Title
29212
    1ASP      N    1   1.983   4.930   5.185  0.3617 -0.5942 -0.1233
    1ASP    HT1    2   2.013   5.029   5.192  2.8670 -1.2571 -0.4865
    1ASP    HT2    3   2.028   4.893   5.271  1.5993 -0.8015 -0.8342
    1ASP    HT3    4   1.883   4.903   5.188  0.7215 -1.9544  0.6783
    1ASP     CA    5   2.064   4.869   5.085 -0.3796  0.8843  0.3140
    1ASP     HA    6   2.163   4.909   5.095  0.2632 -0.3897 -0.6763
    1ASP     CB    7   2.075   4.713   5.099  0.2389  0.8698 -0.5202
    1ASP    HB1    8   2.137   4.663   5.022  0.4018  0.7628 -0.3203
    1ASP    HB2    9   1.977   4.662   5.111  1.3012 -1.3531 -0.8726
    1ASP     CG   10   2.152   4.698   5.230 -0.7543  0.7473  0.6527
    1ASP    OD1   11   2.225   4.596   5.234 -0.2579 -0.0290  0.1084
    1ASP    OD2   12   2.138   4.777   5.326  0.0542 -0.7776 -0.3574
    1ASP      C   13   2.002   4.911   4.949 -0.1140  0.7867 -0.4864
    1ASP      O   14   2.063   4.977   4.866  0.1665  0.2746  0.2577
    2GLY      N   15   1.873   4.878   4.940  0.0455 -0.8010  0.0266
    2GLY     HN   16   1.835   4.824   5.014  0.2546  0.8177  1.3716
    2GLY     CA   17   1.774   4.910   4.839 -0.3793 -0.0658 -0.0348
    2GLY    HA1   18   1.761   5.017   4.834  1.3756  0.2775  1.5681
    2GLY    HA2   19   1.683   4.863   4.874 -2.1523  2.9532 -0.2623
    2GLY      C   20   1.810   4.861   4.707 -0.2242  0.0141 -0.0319
    2GLY      O   21   1.899   4.778   4.697  0.0900 -0.9986 -0.1580
    3ASP      N   22   1.731   4.886   4.602 -0.4622 -0.3306  0.0195
    3ASP     HN   23   1.655   4.950   4.606  1.4402  2.3225 -2.4264
    3ASP     CA   24   1.744   4.825   4.468 -0.1704  0.0429 -0.0194
    3ASP     HA   25   1.727   4.720   4.488  2.0213 -0.5217 -0.7240
    3ASP     CB   26   1.643   4.869   4.368  0.3107 -0.5091  0.3927
    3ASP    HB1   27   1.647   4.818   4.269  0.3088 -1.0692  0.6770
    3ASP    HB2   28   1.652   4.979   4.355  2.3227 -0.7434 -0.5601
    3ASP     CG   29   1.503   4.834   4.407  0.2369 -0.2496 -0.6242
    3ASP    OD1   30   1.485   4.720   4.463  0.2092 -0.0353 -0.6517
    3ASP    OD2   31   1.414   4.903   4.361 -0.1536 -0.5848  0.1362
    3ASP      C   32   1.882   4.858   4.414  0.1386  1.0264  0.5698
    3ASP      O   33   1.927   4.970   4.421 -0.3310 -0.1932  0.6814
    4GLY      N   34   1.945   4.759   4.346 -0.3547 -0.6828  0.6351
    4GLY     HN   35   1.881   4.685   4.325 -0.3210 -0.1484 -1.5219
    4GLY     CA   36   2.074   4.763   4.280  0.6302 -0.7305 -0.1581
    4GLY    HA1   37   2.089   4.663   4.241 -0.3284 -1.4300  1.1946
    4GLY    HA2   38   2.147   4.784   4.357  0.3546 -0.2842 -0.0210
    4GLY      C   39   2.085   4.862   4.170  0.0697  0.3942  0.7841
    4GLY      O   40   1.983   4.922   4.123  0.4764 -0.1690 -0.2085
    5PRO      N   41   2.201   4.875   4.116 -0.2226 -0.1775  0.3368
    5PRO     CD   42   2.318   4.834   4.192 -0.1314  0.1608 -0.1691
    5PRO    HD1   43   2.325   4.723   4.184  0.7110  0.2857 -1.5190
    5PRO    HD2   44   2.309   4.875   4.294 -1.7519  1.4206 -0.7814
    5PRO     CA   45   2.232   4.917   3.974  0.3265  0.0558 -0.3576
    5PRO     HA   46   2.220   5.025   3.968  1.5453  0.1597 -1.4819
    5PRO     CB   47   2.386   4.885   3.963  0.7250 -0.2869 -0.2772
    5PRO    HB1   48   2.435   4.952   3.890 -0.2821  0.7273 -0.0587
    5PRO    HB2   49   2.392   4.780   3.928 -0.0474 -0.1231 -0.9196
    5PRO     CG   50   2.439   4.884   4.108  0.5708  0.2063  0.0062
    5PRO    HG1   51   2.538   4.836   4.121  0.9413  0.7120 -0.8823
    5PRO    HG2   52   2.442   4.991   4.139  0.1135  0.5768 -1.1999
    5PRO      C   53   2.144   4.858   3.865  0.1811  0.0601 -0.3329
    5PRO      O   54   2.096   4.747   3.885  0.1856  0.1085  0.2578
    6GLY      N   55   2.124   4.929   3.754 -0.0293  0.0022 -0.2073
    6GLY     HN   56   2.152   5.024   3.760  1.0523 -0.3262  0.1084
    6GLY     CA   57   2.058   4.884   3.632  0.0162  1.1523  0.6435
    6GLY    HA1   58   2.061   4.965   3.561  1.1046  0.3658 -0.2547
    6GLY    HA2   59   1.961   4.846   3.662  0.7464 -0.8406  0.6235
    6GLY      C   60   2.115   4.763   3.553 -0.6794  0.4199 -0.0670
    6GLY      O   61   2.196   4.685   3.601 -0.3166  0.2709 -0.3640
    7ASP      N   62   2.074   4.749   3.426 -0.3531 -0.3459  0.8943
    7ASP     HN   63   2.014   4.816   3.383  1.2489 -0.5573 -1.9155
    7ASP     CA   64   2.151   4.656   3.336 -0.1384 -0.0534 -0.2923
    7ASP     HA   65   2.155   4.559   3.383 -0.7759 -0.1980 -0.5378
    7ASP     CB   66   2.102   4.641   3.192  0.2858  0.3843  0.0025
    7ASP    HB1   67   2.170   4.571   3.140  1.5545  0.2530  1.7681
    7ASP    HB2   68   2.095   4.741   3.143 -2.0026  0.6729  0.7836
    7ASP     CG   69   1.967   4.582   3.190  0.0815 -0.1472 -0.2843
    7ASP    OD1   70   1.911   4.555   3.084  0.0825 -0.0022  0.5026
    7ASP    OD2   71   1.913   4.550   3.300  0.3478 -0.3658 -0.1833
    7ASP      C   72   2.308   4.688   3.326  0.2533  0.2721  0.9856
    7ASP      O   73   2.346   4.803   3.338 -0.8470 -0.1056  0.1449
    8PRO      N   74   2.401   4.587   3.300  0.6976  0.0796  0.1748
    8PRO     CD   75   2.373   4.439   3.307  0.1804 -0.5359  1.1426
    8PRO    HD1   76   2.341   4.406   3.206 -0.8387  0.8623  0.9764
    8PRO    HD2   77   2.288   4.416   3.376 -2.3556  1.1888 -1.1942
    8PRO     CA   78   2.539   4.618   3.286 -0.2816 -0.1084  0.3514
    8PRO     HA   79   2.576   4.672   3.372 -1.3529 -0.8220  1.2865
    8PRO     CB   80   2.603   4.477   3.269 -0.1658 -0.6953  0.1424
    8PRO    HB1   81   2.699   4.477   3.326 -0.9913  0.5528  1.5939
    8PRO    HB2   82   2.604   4.446   3.163 -0.5323  0.2183 -0.1347
    8PRO     CG   83   2.509   4.382   3.340  0.1735  0.4758 -0.1085
    8PRO    HG1   84   2.519   4.281   3.295 -0.9790 -0.3761  1.4676
    8PRO    HG2   85   2.530   4.376   3.449 -1.5693 -1.7473  0.1754
    8PRO      C   86   2.565   4.698   3.159 -0.0959 -0.2877 -0.1778
    8PRO      O   87   2.519   4.656   3.049 -0.2435  0.0377  0.3274
    9GLY      N   88   2.613   4.825   3.166 -0.1388 -0.2552 -0.1328
    9GLY     HN   89   2.635   4.853   3.259 -2.1793  2.3419 -0.3170
    9GLY     CA   90   2.629   4.911   3.055  0.9864 -0.2912 -0.4751
    9GLY    HA1   91   2.647   5.010   3.093  0.8663  0.2548 -1.8219
    9GLY    HA2   92   2.540   4.902   2.995 -0.3426  0.3635  1.2958
    9GLY      C   93   2.747   4.874   2.967 -0.0532  0.2177  0.7972
    9GLY      O   94   2.851   4.830   3.020  0.2092  0.3316  0.2852
   10ASP      N   95   2.739   4.882   2.832 -0.5242  0.0115  0.2643
   10ASP     HN   96   2.654   4.905   2.785 -0.0742  0.4036 -0.3714
   10ASP     CA   97   2.835   4.846   2.727  0.4950  0.2000 -0.0641
   10ASP     HA   98   2.807   4.746   2.695 -1.1192  1.0175 -1.3548
   10ASP     CB   99   2.829   4.945   2.608  0.8957 -0.2321 -0.0250
   10ASP    HB1  100   2.900   4.911   2.530  0.4730  1.2144 -1.0938
   10ASP    HB2  101   2.866   5.043   2.647  0.7210  0.6645 -1.9801
   10ASP     CG  102   2.695   4.950   2.540 -0.1550 -0.1166  0.1296
   10ASP    OD1  103   2.633   5.058   2.516 -0.5751  0.0446  0.3930
   10ASP    OD2  104   2.649   4.848   2.495  0.3479  0.3771 -0.3944
   10ASP      C  105   2.986   4.836   2.766 -0.1422  0.0627 -0.2261
   10ASP      O  106   3.045   4.931   2.810 -0.1689 -0.4117 -0.4929
   11GLY      N  107   3.048   4.719   2.760 -0.1191 -0.3932  0.4128
   11GLY     HN  108   2.994   4.637   2.742 -0.3468  0.2411 -2.1445
   11GLY     CA  109   3.193   4.683   2.779 -0.0727  0.3566 -0.7128
   11GLY    HA1  110   3.187   4.579   2.807 -0.6796  0.5641 -0.0630
   11GLY    HA2  111   3.229   4.748   2.858 -1.8925 -0.5214  0.9160
   11GLY      C  112   3.282   4.705   2.655  0.1113 -0.0089 -0.1633
   11GLY    OT1  113   3.261   4.626   2.557  0.0183 -0.4836  0.2604
   11GLY    OT2  114   3.385   4.778   2.668  0.1068  0.0285  0.1905
   12SOD    SOD  115   4.596   1.031   3.244 -0.2746 -0.3023  0.0424
   13SOD    SOD  116   2.649   1.537   5.194 -0.1374  0.5001  0.3676
   14SOD    SOD  117   3.313   3.453   3.254  0.1048  0.0399 -0.1329
   15SOD    SOD  118   3.903   2.576   1.730  0.0131  0.0591 -0.1211
   16SOD    SOD  119   5.121   1.127   0.546 -0.1081 -0.4376 -0.3731
   17SOD    SOD  120   4.369   4.906   0.489 -0.1860 -0.2892  0.0392
   18SOD    SOD  121   4.722   1.023   1.827 -0.2950 -0.1064 -0.3823
   19SOD    SOD  122   4.928   6.059   0.870 -0.0558  0.3282  0.1571
   20SOD    SOD  123   3.288   2.627   0.799 -0.3199 -0.1085 -0.0787
   21SOD    SOD  124   1.715   1.767   0.505 -0.1866 -0.0743 -0.2688
   22SOD    SOD  125   1.358   6.129   1.292 -0.1486  0.3891  0.2665
   23SOD    SOD  126   1.445   4.485   1.927 -0.0337  0.5419 -0.0431
   24SOD    SOD  127   4.512   2.882   5.172 -0.2049 -0.0906 -0.4365
   25SOD    SOD  128   0.876   6.267   5.439 -0.5165 -0.6589 -0.2602
   26SOD    SOD  129   4.767   5.572   2.040  0.1762  0.2382  0.2052
   27SOD    SOD  130   3.050   5.009   4.164 -0.3277  0.0812  0.5844
   28SOD    SOD  131   6.648   4.603   3.215  0.1156  0.4532 -0.4029
   29SOD    SOD  132   0.917   5.788   4.011  0.2398 -0.2077 -0.3717
   30SOD    SOD  133   0.823   6.188   2.470  0.0908  0.1938  0.0189
   31SOD    SOD  134   6.384   6.489   2.206 -0.4089  0.3687  0.1078
   32SOD    SOD  135   1.995   5.382   4.402 -0.2388  0.2390  0.1114
   33SOD    SOD  136   0.264   1.543   1.068 -0.0828 -0.1521  0.4447
   34SOD    SOD  137   2.077   4.192   0.330  0.6296 -0.0888 -0.4762
   35SOD    SOD  138   2.301   4.717   0.911  0.0505  0.2024  0.2934
   36SOD    SOD  139   0.141   3.514   1.952  0.0201 -0.5060  0.5317
   37SOD    SOD  140   2.729   6.014   1.014 -0.3724 -0.6749 -0.0428
   38SOD    SOD  141   1.398   2.675   4.555  0.1578  0.1204  0.0877
   39SOD    SOD  142   0.332   3.301   0.418 -0.1713  0.2459  0.2669
   40SOD    SOD  143   3.627   6.176   0.228 -0.4398 -0.1134  0.0890
   41SOD    SOD  144   6.344   4.330   0.716  0.0638 -0.2813  0.1916
   42SOD    SOD  145   1.199   5.591   0.189  0.4306 -0.1710 -0.1897
   43CLA    CLA  146   2.336   1.934   4.979  0.0658 -0.2114  0.1721
   44CLA    CLA  147   5.176   5.872   3.957  0.0733  0.0614  0.1524
   45CLA    CLA  148   3.729   2.536   2.499  0.2553 -0.4869  0.0447
   46CLA    CLA  149   6.818   5.562   4.434  0.0938 -0.1097  0.0892
   47CLA    CLA  150   0.641   6.278   4.957  0.1421  0.4661  0.1052
   48CLA    CLA  151   1.548   5.193   4.116 -0.1905  0.1180  0.3549
   49CLA    CLA  152   4.885   0.386   4.250  0.0373 -0.3097  0.4902
   50CLA    CLA  153   4.014   2.645   3.183  0.4207  0.1077 -0.1869
   51CLA    CLA  154   1.688   3.923   4.424  0.2380 -0.2002 -0.1796
   52CLA    CLA  155   2.933   0.604   0.141 -0.0976 -0.4174  0.1997
   53CLA    CLA  156   5.682   6.341   5.353  0.1578  0.1282  0.0514
   54CLA    CLA  157   7.117   2.361   5.281  0.4189 -0.0988 -0.2877
   55CLA    CLA  158   3.843   5.789   1.226 -0.4669 -0.0120 -0.1502
   56CLA    CLA  159   5.556   6.110   2.353  0.2096 -0.1633 -0.3418
   57CLA    CLA  160   5.778   5.336   4.684  0.0184 -0.1715 -0.0127
   58CLA    CLA  161   3.222   2.247   5.622  0.3810 -0.3173 -0.0831
   59CLA    CLA  162   1.204   0.339   2.538  0.1385  0.0476 -0.1813
   60CLA    CLA  163   0.436   5.582   0.511  0.4060  0.0116  0.3790
   61CLA    CLA  164   6.333   3.295   2.765  0.2934  0.1121 -0.3431
   62CLA    CLA  165   7.102   0.116   0.047  0.0697 -0.5191  0.5999
   63CLA    CLA  166   7.111   6.299   2.701  0.4272  0.0960 -0.0882
   64CLA    CLA  167   4.388   1.874   1.548  0.1242  0.3514  0.2308
   65CLA    CLA  168   5.206   0.660   5.785 -0.1623  0.1283 -0.3887
   66CLA    CLA  169   4.792   0.002   1.476  0.0258 -0.1310 -0.0567
   67CLA    CLA  170   0.411   3.053   4.198 -0.4022 -0.2811 -0.1196
   68CLA    CLA  171   4.099   3.292   1.405 -0.2213 -0.5126 -0.0336
   69CLA    CLA  172   2.369   1.473   0.296 -0.3720 -0.5008 -0.1006
   70TIP3   OH2  173   3.267   0.081   2.986 -0.0522 -0.8295  0.0897
   70TIP3    H1  174   3.327   0.154   3.005 -0.6850 -0.9607  3.1566
   70TIP3    H2  175   3.216   0.111   2.911  0.9028  1.1312  0.1512
   71TIP3   OH2  176   4.662   1.823   4.131  0.0509  0.3194  0.3795
   71TIP3    H1  177   4.744   1.808   4.179  0.2276  0.4187  0.1075
   71TIP3    H2  178   4.666   1.914   4.103 -0.5324  0.5792  1.0832
   72TIP3   OH2  179   2.980   1.190   0.403  0.0733  0.1964  0.5502
   72TIP3    H1  180   3.004   1.266   0.349 -1.1487 -0.9062 -1.6689
   72TIP3    H2  181   2.910   1.222   0.460  0.5804  1.0886  0.6892
   73TIP3   OH2  182   3.783   1.826   0.210  0.7940 -0.5788  0.1164
   73TIP3    H1  183   3.877   1.833   0.226  0.5403  0.9786  1.1975
   73TIP3    H2  184   3.774   1.843   0.116  1.6881 -2.1565 -0.2838
   74TIP3   OH2  185   3.313   2.046   0.714  0.2456 -0.2064 -0.1580
   74TIP3    H1  186   3.359   2.110   0.769  0.8183  1.0217 -1.9715
   74TIP3    H2  187   3.368   2.039   0.636 -2.1293  0.5678 -1.9859
   75TIP3   OH2  188   3.543   1.736   2.486  0.6515  0.3330  0.3112
   75TIP3    H1  189   3.552   1.711   2.394  1.1872 -0.8004  0.6551
   75TIP3    H2  190   3.626   1.710   2.527  0.3721  0.6975  1.1438
   76TIP3   OH2  191   4.735   0.707   1.331  0.1757  0.2145  0.5363
   76TIP3    H1  192   4.798   0.648   1.371  1.0784  0.4523 -0.4760
   76TIP3    H2  193   4.731   0.680   1.239 -0.5564  0.7369  0.4045
   77TIP3   OH2  194   6.522   6.491   0.950  0.1758  0.2621 -0.3250
   77TIP3    H1  195   6.512   6.550   0.875  1.5057 -0.4662 -1.1223
   77TIP3    H2  196   6.515   6.548   1.027  1.7360  1.5328 -1.0695
   78TIP3   OH2  197   2.828   6.565   0.096 -0.0788 -0.2985 -0.7534
   78TIP3    H1  198   2.921   6.573   0.113 -0.4602 -0.8503  1.9528
   78TIP3    H2  199   2.787   6.630   0.153 -1.4704 -1.8764  0.1206
   79TIP3   OH2  200   2.652   2.382   5.117  0.3275  0.0975  0.8254
   79TIP3    H1  201   2.703   2.462   5.102 -1.1174  0.7515 -1.0165
   79TIP3    H2  202   2.606   2.367   5.034  0.6469 -2.7541  1.0566
   80TIP3   OH2  203   5.063   1.545   4.222  0.3023 -0.5098  0.2269
   80TIP3    H1  204   5.157   1.560   4.230  0.1695  1.4486 -1.1080
   80TIP3    H2  205   5.056   1.462   4.174  1.4302  0.1141 -1.1116
   81TIP3   OH2  206   2.460   3.822   4.567  0.6670  0.1783 -0.3314
   81TIP3    H1  207   2.515   3.857   4.496 -0.3584  0.1410 -1.1752
   81TIP3    H2  208   2.379   3.871   4.560  0.5279  0.1157  0.7948
   82TIP3   OH2  209   4.258   2.972   4.583 -0.3523  0.5467  0.2370
   82TIP3    H1  210   4.268   3.010   4.495 -2.3331 -1.3760 -0.9441
   82TIP3    H2  211   4.192   3.027   4.625  0.4744  1.3709  0.4811
   83TIP3   OH2  212   3.270   2.328   2.305 -0.4448 -0.2381 -0.2047
   83TIP3    H1  213   3.344   2.382   2.333 -0.5787  0.7528 -1.6685
   83TIP3    H2  214   3.247   2.277   2.383  2.2400 -1.1462  0.0958
   84TIP3   OH2  215   3.764   5.600   4.095 -0.4501 -0.2341  0.5615
   84TIP3    H1  216   3.789   5.531   4.157 -1.0693 -3.3081 -2.3307
   84TIP3    H2  217   3.692   5.562   4.045 -1.3902  2.9006 -0.7108
   85TIP3   OH2  218   5.764   2.048   4.938 -0.3326  0.9573  0.2295
   85TIP3    H1  219   5.693   2.111   4.924 -0.3371  1.1314  0.9839
   85TIP3    H2  220   5.815   2.051   4.857 -0.2075  2.0894  0.3281
   86TIP3   OH2  221   2.073   6.583   2.603 -0.5242  0.0742 -0.5372
   86TIP3    H1  222   2.051   6.611   2.514  0.4013 -2.2366 -1.5974
   86TIP3    H2  223   2.006   6.623   2.659 -0.6036  2.3286 -2.1145
   87TIP3   OH2  224   0.152   3.002   3.264 -0.2361  0.0532  0.7364
   87TIP3    H1  225   0.157   3.051   3.346  0.2075 -0.4014  0.9856
   87TIP3    H2  226   0.149   3.069   3.196 -1.9089  0.4635  1.1687
   88TIP3   OH2  227   5.447   5.509   3.062 -0.1166 -0.0605  0.2530
   88TIP3    H1  228   5.432   5.417   3.040 -0.3121  0.0077  0.0967
   88TIP3    H2  229   5.529   5.532   3.019  1.2280 -0.8405  2.2814
   89TIP3   OH2  230   5.428   2.164   2.016 -0.5514  0.2712  0.0499
   89TIP3    H1  231   5.406   2.196   1.929  0.5756 -0.8102 -0.6629
   89TIP3    H2  232   5.456   2.242   2.064 -1.9613  1.0079 -0.2661
   90TIP3   OH2  233   6.448   1.335   4.512  0.6194  0.7914 -0.4764
   90TIP3    H1  234   6.535   1.304   4.489  0.9878  0.7692  0.8854
   90TIP3    H2  235   6.411   1.265   4.567 -0.6445  0.3520 -1.8070
   91TIP3   OH2  236   3.367   0.061   5.151  0.6520 -0.1522 -0.9316
   91TIP3    H1  237   3.369  -0.025   5.108 -0.3421 -0.2191 -0.8690
   91TIP3    H2  238   3.442   0.107   5.114  3.1015 -2.0710  1.2835
   92TIP3   OH2  239   3.760   2.634   0.145  0.2066 -0.2703 -0.7622
   92TIP3    H1  240   3.741   2.644   0.238 -2.2099 -0.7257 -1.1174
   92TIP3    H2  241   3.770   2.540   0.133 -1.9239 -0.4865 -1.2777
   93TIP3   OH2  242   0.047   6.426   0.486  0.3771 -0.3982  0.0924
   93TIP3    H1  243   0.023   6.496   0.547 -1.5419 -1.8681  1.1412
   93TIP3    H2  244   0.128   6.390   0.521 -0.1540 -0.5394  1.2216
   94TIP3   OH2  245   4.181   3.036   1.551 -0.8275 -0.3192  0.1330
   94TIP3    H1  246   4.144   2.983   1.480 -1.2267  0.8904 -0.5907
   94TIP3    H2  247   4.171   3.126   1.521 -0.0638  0.1697  1.2924
   95TIP3   OH2  248   5.243   4.146   2.479 -0.1785  0.7043 -0.1450
   95TIP3    H1  249   5.303   4.198   2.533  0.1537  1.6564 -1.3825
   95TIP3    H2  250   5.300   4.081   2.437 -0.7936 -1.7573  2.5327
   96TIP3   OH2  251   0.183   1.588   4.585 -0.2157 -0.4496 -0.0528
   96TIP3    H1  252   0.245   1.638   4.638  1.8053 -2.7489 -0.0515
   96TIP3    H2  253   0.145   1.525   4.646 -1.6144  0.0825 -0.3466
   97TIP3   OH2  254   3.406   4.812   3.560 -0.3332 -0.2722 -0.1689
   97TIP3    H1  255   3.437   4.773   3.478  1.0789  0.1701  0.1425
   97TIP3    H2  256   3.421   4.906   3.550  0.1465 -0.2466  0.7128
   98TIP3   OH2  257   3.975   2.822   5.828 -0.1037 -0.4462  0.0193
   98TIP3    H1  258   4.004   2.737   5.793 -2.5020 -0.0210 -3.5862
   98TIP3    H2  259   4.015   2.887   5.770  0.6287  0.8677  1.9164
   99TIP3   OH2  260   3.524   6.605   4.841 -0.1150  0.3075 -0.0153
   99TIP3    H1  261   3.465   6.562   4.904 -0.3737  1.0704  0.2826
   99TIP3    H2  262   3.516   6.554   4.761  0.4021 -0.8310  0.6391
  100TIP3   OH2  263   4.140   3.320   4.302 -0.3527  0.7568  0.7381
  100TIP3    H1  264   4.221   3.357   4.337 -1.0525  3.2379 -0.0928
  100TIP3    H2  265   4.152   3.322   4.207 -1.5528  1.6490  0.5854
  101TIP3   OH2  266   6.935   2.623   0.652  0.1831 -0.8006  0.4176
  101TIP3    H1  267   6.996   2.603   0.582 -0.4146 -1.5602  0.0960
  101TIP3    H2  268   6.977   2.693   0.702  1.2419 -1.2106  0.1221
  102TIP3   OH2  269   4.969   2.092   5.647 -0.6883 -0.3123 -0.5903
  102TIP3    H1  270   5.048   2.067   5.599 -0.0356  1.4315 -0.4912
  102TIP3    H2  271   5.000   2.113   5.735 -0.8799  2.2434 -1.0515
  103TIP3   OH2  272   6.275   3.084   5.593 -0.4460 -0.1959  0.3275
  103TIP3    H1  273   6.289   3.006   5.539  1.2064  0.4219 -0.1983
  103TIP3    H2  274   6.333   3.150   5.556 -1.7204  1.2729  0.8374
  104TIP3   OH2  275   4.826   2.485   2.772  0.0063 -0.1966  0.4272
  104TIP3    H1  276   4.913   2.489   2.811 -1.1499  0.6211  3.2057
  104TIP3    H2  277   4.794   2.575   2.777 -0.7707 -0.3484 -1.2108
  105TIP3   OH2  278   5.860   3.915   1.150 -0.3552  0.1175 -0.0320
  105TIP3    H1  279   5.833   3.902   1.241  0.3169 -0.6450  0.0654
  105TIP3    H2  280   5.778   3.929   1.103 -0.6430  1.8434  0.8751
  106TIP3   OH2  281   5.493   3.575   1.838  0.1274 -0.0297  0.2216
  106TIP3    H1  282   5.513   3.498   1.891 -0.2943 -0.6667 -0.5306
  106TIP3    H2  283   5.555   3.571   1.765 -0.0605  0.2117  0.0468
  107TIP3   OH2  284   2.025   2.456   0.185 -1.0160 -0.0175 -0.4424
  107TIP3    H1  285   2.073   2.474   0.104 -2.1899  1.0155 -0.9378
  107TIP3    H2  286   2.093   2.448   0.252 -0.1019  0.5826 -1.2757
  108TIP3   OH2  287   1.013   3.770   3.107 -0.2135 -0.1458 -0.3655
  108TIP3    H1  288   1.053   3.710   3.044  1.9724 -0.3709  1.1004
  108TIP3    H2  289   0.926   3.734   3.123  0.6588 -2.3857 -0.2788
  109TIP3   OH2  290   2.848   1.996   5.733  0.3294 -0.1872  0.3687
  109TIP3    H1  291   2.802   1.931   5.787  1.2415 -1.4991 -0.3868
  109TIP3    H2  292   2.802   1.995   5.649 -0.0204  0.6012  0.5404
  110TIP3   OH2  293   3.674   3.417   1.983 -0.4514  0.0731 -0.1203
  110TIP3    H1  294   3.627   3.339   1.953 -1.4664  1.3607 -2.0920
  110TIP3    H2  295   3.758   3.413   1.938 -1.2712  1.0663 -1.8476
  111TIP3   OH2  296   4.836   6.593   4.216 -0.3758 -0.5126  0.1935
  111TIP3    H1  297   4.824   6.512   4.265  2.3173 -1.0755  0.0916
  111TIP3    H2  298   4.847   6.566   4.125  0.5801 -0.0833  0.1604
  112TIP3   OH2  299   6.684   6.353   1.706 -0.3652  0.0496 -0.5717
  112TIP3    H1  300   6.720   6.277   1.752  0.3812  0.7866  0.1019
  112TIP3    H2  301   6.602   6.321   1.667  0.0639 -1.1607 -0.5289
  113TIP3   OH2  302   6.180   1.157   1.360 -0.5365  0.2269  0.0803
  113TIP3    H1  303   6.166   1.191   1.449 -1.5951 -0.6482  0.2777
  113TIP3    H2  304   6.096   1.115   1.338 -0.5917  1.2045 -1.6867
  114TIP3   OH2  305   1.267   0.087   4.316 -0.3643 -0.2483 -0.3178
  114TIP3    H1  306   1.194   0.146   4.297 -0.1758  0.9843  2.3360
  114TIP3    H2  307   1.335   0.145   4.350  2.5241 -1.1430 -3.9846
  115TIP3   OH2  308   2.687   2.523   0.201  0.1816  0.3826  0.2198
  115TIP3    H1  309   2.776   2.500   0.176  0.0142 -1.0662  0.8715
  115TIP3    H2  310   2.660   2.587   0.135  1.1838 -0.2503 -0.8603
  116TIP3   OH2  311   0.792   6.224   1.856 -0.0388 -1.0139  0.0902
  116TIP3    H1  312   0.721   6.230   1.793  0.2143 -0.8327 -0.1789
  116TIP3    H2  313   0.816   6.314   1.875  0.7053 -1.0715 -0.4938
  117TIP3   OH2  314   2.586   3.987   1.212 -0.2157  0.2630  0.4679
  117TIP3    H1  315   2.556   4.022   1.296  0.9415  2.3755  0.0802
  117TIP3    H2  316   2.666   4.036   1.192 -0.3238 -0.3210 -1.7652
  118TIP3   OH2  317   2.352   1.156   0.309  1.1057  0.3453  0.3318
  118TIP3    H1  318   2.372   1.247   0.287 -0.2224  0.8028  0.9284
  118TIP3    H2  319   2.320   1.159   0.399 -3.5183  0.0589 -1.0279
  119TIP3   OH2  320   3.633   2.150   0.119 -0.4321  0.0468  0.2599
  119TIP3    H1  321   3.719   2.109   0.120  0.1116  1.0593 -1.1213
  119TIP3    H2  322   3.595   2.125   0.035  0.2660  2.9100 -1.0254
  120TIP3   OH2  323   1.262   4.518   1.461 -0.1816 -0.5923  0.4641
  120TIP3    H1  324   1.220   4.472   1.534  0.6916 -1.8415  0.1950
  120TIP3    H2  325   1.355   4.517   1.482  0.1089 -1.1728 -0.7784
  121TIP3   OH2  326   1.762   1.867   5.859 -0.3594  0.8957  0.8867
  121TIP3    H1  327   1.805   1.885   5.943  1.4233 -1.0261  0.4717
  121TIP3    H2  328   1.833   1.867   5.795 -0.4428 -4.0694  0.4120
  122TIP3   OH2  329   1.990   2.170   2.768 -0.0586  0.1232  0.0679
  122TIP3    H1  330   1.970   2.085   2.729  1.8752  0.7226 -2.5515
  122TIP3    H2  331   1.906   2.216   2.770 -0.9759 -1.5126  0.7273
  123TIP3   OH2  332   6.958   6.445   0.381 -0.1351 -0.0155 -0.0904
  123TIP3    H1  333   6.944   6.492   0.463 -1.4484  0.4291 -0.5474
  123TIP3    H2  334   7.014   6.502   0.329 -1.3937  0.9070 -0.4844
  124TIP3   OH2  335   5.509   2.365   4.249 -0.0505 -0.3092  0.6019
  124TIP3    H1  336   5.594   2.391   4.285  0.8418 -1.2213 -0.7598
  124TIP3    H2  337   5.445   2.394   4.315  1.0352  2.9362  0.3822
  125TIP3   OH2  338   4.613   2.564   1.900 -0.3005  0.0621  0.1265
  125TIP3    H1  339   4.645   2.481   1.935 -0.6452 -0.4469 -0.7301
  125TIP3    H2  340   4.692   2.615   1.882 -0.0448  1.5294  4.1753
  126TIP3   OH2  341   4.804   0.042   3.196  0.3108 -0.0179 -0.1535
  126TIP3    H1  342   4.775   0.054   3.106  0.4259  1.4328 -0.0215
  126TIP3    H2  343   4.900   0.050   3.192  0.2403  1.1737  0.2381
  127TIP3   OH2  344   6.050   2.208   2.607 -0.5284  0.0114 -0.6745
  127TIP3    H1  345   5.979   2.178   2.550 -0.6087  2.1022 -1.7463
  127TIP3    H2  346   6.130   2.175   2.565 -0.6136  1.2194 -1.8416
  128TIP3   OH2  347   3.812   6.558   0.856  0.1660  0.1493 -0.1987
  128TIP3    H1  348   3.821   6.471   0.819  0.6551  0.3273 -0.5107
  128TIP3    H2  349   3.725   6.587   0.829 -0.1879 -0.4258  0.3108
  129TIP3   OH2  350   5.765   4.221   4.548  0.0338 -0.3962 -0.3124
  129TIP3    H1  351   5.822   4.278   4.496  0.3224 -0.9045 -0.5574
  129TIP3    H2  352   5.752   4.144   4.493 -1.5101  0.0233 -0.5937
  130TIP3   OH2  353   0.059   6.380   3.224 -0.0483  0.9234  0.4688
  130TIP3    H1  354   0.055   6.331   3.307  2.5121 -1.0216 -0.4277
  130TIP3    H2  355  -0.027   6.368   3.185 -0.6899  0.2757  2.0049
  131TIP3   OH2  356   0.014   4.261   1.305  0.0458  0.3465 -0.2623
  131TIP3    H1  357   0.086   4.204   1.279 -1.0580 -1.5193  0.5411
  131TIP3    H2  358   0.004   4.245   1.399 -1.2896  0.6935 -0.3317
  132TIP3   OH2  359   4.883   6.286   0.925  0.1177  0.1503  0.2248
  132TIP3    H1  360   4.862   6.342   0.850  2.2700 -0.2490 -0.7616
  132TIP3    H2  361   4.798   6.263   0.963 -1.0172  0.7677 -1.7976
  133TIP3   OH2  362   1.752   4.023   0.197 -0.0049 -0.5726  0.2128
  133TIP3    H1  363   1.669   4.008   0.151  0.6334  0.6984 -1.4359
  133TIP3    H2  364   1.761   4.118   0.200  1.4159 -0.6936  0.3452
  134TIP3   OH2  365   2.763   5.183   4.637  0.3869  0.1887  0.1203
  134TIP3    H1  366   2.703   5.141   4.698  0.0672 -0.7429 -0.8062
  134TIP3    H2  367   2.747   5.140   4.554  2.0401  0.2250 -0.2529
  135TIP3   OH2  368   5.449   3.835   0.354 -0.3742  0.7359 -0.0949
  135TIP3    H1  369   5.535   3.792   0.362 -0.0752  1.5185  1.1837
  135TIP3    H2  370   5.386   3.765   0.364  0.1159  0.2171 -0.5783
  136TIP3   OH2  371   0.241   1.228   0.146  0.2442  0.4517  0.5697
  136TIP3    H1  372   0.257   1.200   0.056  0.1094  0.2661  0.6026
  136TIP3    H2  373   0.178   1.300   0.138  0.5515  0.7144  0.4882
  137TIP3   OH2  374   2.360   6.718   0.286  0.4509 -0.0724 -0.0752
  137TIP3    H1  375   2.274   6.683   0.261 -0.4075  1.5198  0.5032
  137TIP3    H2  376   2.391   6.659   0.354  0.5577 -1.5719 -1.3649
  138TIP3   OH2  377   2.409   3.820   0.857  0.2668  0.4739  0.3986
  138TIP3    H1  378   2.488   3.826   0.910  1.0754  0.0843 -0.7177
  138TIP3    H2  379   2.389   3.726   0.854 -0.0229  0.5343  0.3572
  139TIP3   OH2  380   4.776   6.336   5.653  0.3090  0.3561 -0.0265
  139TIP3    H1  381   4.785   6.431   5.644 -0.2921  0.2716 -2.5137
  139TIP3    H2  382   4.864   6.302   5.633  0.0483  0.3569 -1.2833
  140TIP3   OH2  383   3.158   4.657   5.490 -0.0937  0.1206  0.1787
  140TIP3    H1  384   3.187   4.717   5.558 -0.5509  0.3069  0.2170
  140TIP3    H2  385   3.167   4.570   5.529 -1.4069  0.2772  0.9098
  141TIP3   OH2  386   7.176   1.764   3.863  0.6511  0.3233 -0.6471
  141TIP3    H1  387   7.155   1.690   3.921  1.5233 -0.7168 -1.6013
  141TIP3    H2  388   7.097   1.817   3.862  0.6959  0.5535  1.7167
  142TIP3   OH2  389   0.232   6.362   0.078 -0.7313  0.2673  0.0196
  142TIP3    H1  390   0.318   6.391   0.108 -0.2686 -0.4886 -0.5413
  142TIP3    H2  391   0.174   6.436   0.096  0.1737  1.0523 -0.2506
  143TIP3   OH2  392   4.029   2.549   5.764 -0.7173  0.2041 -0.1161
  143TIP3    H1  393   4.098   2.526   5.701 -0.3677 -2.1296  0.9905
  143TIP3    H2  394   3.949   2.549   5.712 -0.2767 -0.3590 -0.8185
  144TIP3   OH2  395   3.242   0.039   0.317 -0.2316  0.4817 -0.1375
  144TIP3    H1  396   3.286   0.091   0.249 -2.8700  0.7133 -1.8022
  144TIP3    H2  397   3.215   0.103   0.382 -1.2198  0.8829 -0.9153
  145TIP3   OH2  398   2.195   0.789   0.654  0.0340 -0.2819  0.4066
  145TIP3    H1  399   2.180   0.863   0.595 -0.0651 -0.0827  0.6833
  145TIP3    H2  400   2.286   0.764   0.637  0.1121 -0.0087  0.4090
  146TIP3   OH2  401   0.723   6.355   3.275 -0.7022 -0.0272  0.1117
  146TIP3    H1  402   0.814   6.375   3.253 -0.1712 -0.2380  1.9269
  146TIP3    H2  403   0.721   6.356   3.371 -2.8798  1.1331  0.1195
  147TIP3   OH2  404   6.774   4.594   1.257 -0.0809  0.7202 -0.0324
  147TIP3    H1  405   6.731   4.582   1.342  0.0597 -0.5638 -0.1254
  147TIP3    H2  406   6.722   4.662   1.213 -0.9997  0.3967  0.5216
  148TIP3   OH2  407   2.618   2.560   3.456 -0.6477  0.2656 -0.1012
  148TIP3    H1  408   2.539   2.592   3.412 -0.7190  0.5626  0.2383
  148TIP3    H2  409   2.618   2.605   3.540 -0.9508 -0.9120  0.5452
  149TIP3   OH2  410   2.930   2.154   4.518 -0.4926  0.1234 -0.2444
  149TIP3    H1  411   2.916   2.065   4.485 -0.8392  0.2898 -0.5607
  149TIP3    H2  412   3.014   2.181   4.481 -0.5968  0.0885 -0.5086
  150TIP3   OH2  413   1.317   3.368   1.180  0.1768  0.4704 -0.2589
  150TIP3    H1  414   1.244   3.430   1.179  1.0764  1.5577 -0.3595
  150TIP3    H2  415   1.315   3.328   1.093 -1.0145 -0.3968  0.1416
  151TIP3   OH2  416   2.745   0.179   0.767  0.2638  0.6072  0.6159
  151TIP3    H1  417   2.738   0.269   0.799  0.2947  0.3441  1.3699
  151TIP3    H2  418   2.756   0.188   0.672 -0.9172  1.3600  0.5329
  152TIP3   OH2  419   2.144   2.135   1.592 -0.6038 -0.0172 -0.0440
  152TIP3    H1  420   2.083   2.066   1.566  0.0895 -0.1821 -1.3127
  152TIP3    H2  421   2.198   2.151   1.514  0.1400  1.0136  0.6437
  153TIP3   OH2  422   4.187   5.184   4.895 -1.0747  0.1340 -0.3509
  153TIP3    H1  423   4.149   5.151   4.814  1.3502  0.2320 -1.6147
  153TIP3    H2  424   4.203   5.277   4.879  1.2345 -0.2405 -0.5875
  154TIP3   OH2  425   3.132   2.761   0.933 -0.3601 -0.3922  0.3520
  154TIP3    H1  426   3.152   2.843   0.979 -0.1552 -0.6418  0.7078
  154TIP3    H2  427   3.059   2.784   0.876 -0.4227 -0.0027  0.5792
  155TIP3   OH2  428   5.717   3.878   1.855 -0.4306 -0.0260  0.1472
  155TIP3    H1  429   5.630   3.919   1.859 -0.0980  0.7096 -0.0262
  155TIP3    H2  430   5.729   3.841   1.942 -0.4445  0.8813  0.5507
  156TIP3   OH2  431   6.573   2.835   2.433  0.3301 -0.0986 -0.1473
  156TIP3    H1  432   6.484   2.815   2.459  0.4334 -0.6358 -0.2071
  156TIP3    H2  433   6.598   2.910   2.487  0.4892 -1.0918  1.2011
  157TIP3   OH2  434   2.518   0.556   2.514 -0.5732  0.4265  0.0041
  157TIP3    H1  435   2.518   0.469   2.474 -1.4914  0.2029  0.4747
  157TIP3    H2  436   2.574   0.547   2.591 -0.1201  0.4355 -0.3193
  158TIP3   OH2  437   4.398   2.044   1.080 -0.1579 -0.3300 -0.0026
  158TIP3    H1  438   4.369   2.099   1.007  0.0128 -0.2498 -0.0085
  158TIP3    H2  439   4.317   2.022   1.126 -0.2611 -0.3411 -0.1872
  159TIP3   OH2  440   3.656   3.556   5.707  0.2328  0.4764 -0.2436
  159TIP3    H1  441   3.568   3.524   5.729  1.1036 -1.3820  0.8226
  159TIP3    H2  442   3.653   3.572   5.613 -1.4090  1.0509 -0.1264
  160TIP3   OH2  443   1.678   4.434   3.174  0.5010 -0.5511  0.1521
  160TIP3    H1  444   1.767   4.469   3.164  0.8052 -0.0988  3.3510
  160TIP3    H2  445   1.621   4.502   3.138  1.3503  0.4507  0.6279
  161TIP3   OH2  446   6.226   0.688   3.436 -0.1991  0.6083 -0.0593
  161TIP3    H1  447   6.310   0.701   3.393 -0.4122  1.5478 -0.2037
  161TIP3    H2  448   6.162   0.695   3.365 -0.3324 -1.7850 -0.2604
  162TIP3   OH2  449   0.534   3.442   1.400  0.4339 -0.0610 -0.3474
  162TIP3    H1  450   0.546   3.378   1.469  0.3660  0.7466  0.4257
  162TIP3    H2  451   0.505   3.521   1.445 -0.6530  0.1753 -1.3978
  163TIP3   OH2  452   2.646   1.864   0.633  0.2565  0.6655  1.0623
  163TIP3    H1  453   2.607   1.952   0.627 -1.4743  0.0273  2.1319
  163TIP3    H2  454   2.593   1.811   0.574  1.2368  0.3009  0.4920
  164TIP3   OH2  455   2.536   5.605   3.073  0.2399 -0.6702 -0.0931
  164TIP3    H1  456   2.606   5.598   3.008 -0.3853 -1.2525 -0.7124
  164TIP3    H2  457   2.501   5.693   3.061  1.0386 -0.2761  0.4056
  165TIP3   OH2  458   1.920   4.050   5.692 -0.2693 -0.1626 -0.1955
  165TIP3    H1  459   1.858   4.109   5.734  0.5892  0.8120 -0.2597
  165TIP3    H2  460   1.906   4.063   5.598  0.7548  0.8895 -0.2278
  166TIP3   OH2  461   0.625   3.741   2.258  0.1397 -0.5298  0.0455
  166TIP3    H1  462   0.709   3.696   2.240 -1.1304 -3.6227  1.1092
  166TIP3    H2  463   0.578   3.736   2.175  0.2362 -0.6185 -0.0051
  167TIP3   OH2  464   6.464   5.382   5.026 -0.1042  0.2378 -0.3229
  167TIP3    H1  465   6.383   5.397   5.075 -0.5155  0.8227 -1.1578
  167TIP3    H2  466   6.445   5.304   4.974  0.1259 -0.0341 -0.0077
  168TIP3   OH2  467   6.799   6.339   3.540  0.4652  0.0997  0.1610
  168TIP3    H1  468   6.814   6.376   3.627 -1.2866  3.3386 -0.7666
  168TIP3    H2  469   6.862   6.384   3.484 -0.3827  0.2625 -0.6927
  169TIP3   OH2  470   1.454   2.217   0.974 -0.1919 -0.1459  0.2316
  169TIP3    H1  471   1.462   2.311   0.991 -3.9267  0.2759  0.4212
  169TIP3    H2  472   1.477   2.208   0.881 -0.8425  1.1750 -0.0915
  170TIP3   OH2  473   4.762   4.506   1.801  0.5585 -0.7735  0.0039
  170TIP3    H1  474   4.750   4.588   1.848  1.6835 -0.9505  0.6474
  170TIP3    H2  475   4.700   4.510   1.729 -1.4978 -0.6401  1.6818
  171TIP3   OH2  476   1.290   5.027   1.017 -0.7719 -0.1788  0.5621
  171TIP3    H1  477   1.267   5.110   0.975 -1.0630  0.2904  1.6101
  171TIP3    H2  478   1.214   4.971   1.000  0.1599 -0.8744 -1.6896
  172TIP3   OH2  479   6.203   3.285   3.085  0.8935  0.0460  0.1840
  172TIP3    H1  480   6.252   3.291   3.004  0.5261 -0.4930 -0.0881
  172TIP3    H2  481   6.120   3.330   3.067  0.5100 -0.7105  0.0128
  173TIP3   OH2  482   4.658   0.795   0.785 -0.2670 -0.0120 -0.1605
  173TIP3    H1  483   4.658   0.706   0.750  2.4631 -0.5105  0.8923
  173TIP3    H2  484   4.722   0.842   0.732 -0.6829  0.9766  0.1754
  174TIP3   OH2  485   2.650   6.324   5.328  0.6789 -0.0277 -0.5526
  174TIP3    H1  486   2.557   6.308   5.311  0.6006 -0.0263 -0.1383
  174TIP3    H2  487   2.655   6.417   5.349  0.1139 -0.6834  3.3910
  175TIP3   OH2  488   4.733   4.766   3.530 -0.0696 -0.2245  0.5300
  175TIP3    H1  489   4.736   4.728   3.618 -2.0216  0.3106  0.8824
  175TIP3    H2  490   4.659   4.827   3.533 -0.6717 -0.7404 -1.6833
  176TIP3   OH2  491   1.190   4.718   0.698  0.1917  0.6541 -0.2317
  176TIP3    H1  492   1.178   4.626   0.677  0.7296  0.9200 -1.8260
  176TIP3    H2  493   1.229   4.718   0.786 -0.4508 -0.5883  0.0739
  177TIP3   OH2  494   4.967   1.532   0.420  0.2323 -0.0933 -0.0567
  177TIP3    H1  495   5.020   1.464   0.461  1.1963  1.9228  2.2616
  177TIP3    H2  496   4.939   1.588   0.492 -1.9229  1.0582 -1.6805
  178TIP3   OH2  497   5.897   3.329   3.009  0.0148 -0.3998 -0.5434
  178TIP3    H1  498   5.819   3.354   2.960  1.3150  1.9301 -1.6062
  178TIP3    H2  499   5.880   3.361   3.098 -0.7811 -1.1978 -0.3903
  179TIP3   OH2  500   1.929   3.620   1.714  0.7964  1.1792  0.0144
  179TIP3    H1  501   1.954   3.655   1.800  0.7526  1.7125 -0.1847
  179TIP3    H2  502   2.007   3.577   1.682  1.3394  2.4054 -0.3860
  180TIP3   OH2  503   3.870   0.547   5.805  0.5304 -0.0457 -0.0130
  180TIP3    H1  504   3.915   0.506   5.731 -0.6991  0.7561 -1.2664
  180TIP3    H2  505   3.779   0.518   5.796  0.1640  0.8747  0.6084
  181TIP3   OH2  506   6.582   0.092   3.214  0.0639  0.3789  0.6971
  181TIP3    H1  507   6.538   0.010   3.192  1.6902 -0.0082 -1.3187
  181TIP3    H2  508   6.511   0.157   3.216 -0.7857 -0.3860 -1.5244
  182TIP3   OH2  509   6.888   0.453   4.500 -1.0359  0.1023 -0.6368
  182TIP3    H1  510   6.963   0.406   4.536 -0.4959  0.8500 -0.7676
  182TIP3    H2  511   6.828   0.384   4.473  0.1127 -0.5493 -1.6299
  183TIP3   OH2  512   6.474   5.654   4.967  0.3427  0.2939 -0.7844
  183TIP3    H1  513   6.518   5.574   4.995  0.7465  0.1044 -1.9260
  183TIP3    H2  514   6.392   5.625   4.928 -0.5709  0.6102  0.8173
  184TIP3   OH2  515   6.913   3.829   5.528 -0.0050 -0.0747  0.4357
  184TIP3    H1  516   6.916   3.924   5.540 -0.5977 -0.2413  2.1505
  184TIP3    H2  517   6.835   3.815   5.474  0.3517  0.4202 -0.2354
  185TIP3   OH2  518   4.261   1.375   0.635 -0.0420  0.8047 -0.7696
  185TIP3    H1  519   4.239   1.299   0.689 -1.4761  2.4875  1.1610
  185TIP3    H2  520   4.334   1.416   0.682  0.9778  0.4896 -2.0074
  186TIP3   OH2  521   6.938   6.675   3.998 -0.3661 -0.1772  0.0378
  186TIP3    H1  522   6.845   6.666   3.978 -0.1826 -1.4206 -0.3248
  186TIP3    H2  523   6.980   6.600   3.956  0.9463  0.8824 -0.6532
  187TIP3   OH2  524   1.184   0.451   0.078 -0.8218  0.8699 -0.4182
  187TIP3    H1  525   1.113   0.515   0.081 -0.3432  1.3561  1.2240
  187TIP3    H2  526   1.141   0.367   0.088 -1.1840  1.1542  0.4578
  188TIP3   OH2  527   6.589   4.667   3.428 -0.5158 -0.1677 -0.0863
  188TIP3    H1  528   6.498   4.673   3.457 -0.0879 -1.4063  1.6648
  188TIP3    H2  529   6.629   4.747   3.461 -0.2543 -1.1344  2.1159
  189TIP3   OH2  530   4.198   1.129   1.915 -0.2200 -0.0735 -0.0439
  189TIP3    H1  531   4.162   1.138   2.003  0.4793 -0.3063  0.2695
  189TIP3    H2  532   4.280   1.178   1.917  0.4805 -1.1956 -0.1565
  190TIP3   OH2  533   6.637   0.424   3.808 -0.0028  0.3816 -0.1988
  190TIP3    H1  534   6.570   0.489   3.827 -0.3036  0.0673 -0.1614
  190TIP3    H2  535   6.623   0.355   3.874  0.6621  0.5346  0.1100
  191TIP3   OH2  536   3.932   3.611   4.624  0.3925  0.0236 -0.6303
  191TIP3    H1  537   3.983   3.691   4.608  0.6261  0.1494  0.6213
  191TIP3    H2  538   3.900   3.585   4.537  1.3012  0.8065 -1.2204
  192TIP3   OH2  539   6.072   0.322   2.924  0.1380  0.1550  0.2250
  192TIP3    H1  540   6.141   0.349   2.864 -0.4691  0.5263 -0.3182
  192TIP3    H2  541   6.010   0.274   2.869 -0.2286  0.1591  0.6317
  193TIP3   OH2  542   0.591   0.141   2.231  0.0065  0.0591 -0.6735
  193TIP3    H1  543   0.517   0.185   2.190 -0.3626 -0.6032 -0.7344
  193TIP3    H2  544   0.569   0.048   2.226  0.1462 -0.0658  0.6407
  194TIP3   OH2  545   7.063   1.060   4.609  0.2397  0.1096 -0.1721
  194TIP3    H1  546   7.034   1.086   4.521  0.8712  1.6122  0.0388
  194TIP3    H2  547   7.144   1.012   4.595 -0.2923 -0.7179 -0.4833
  195TIP3   OH2  548   5.881   0.174   2.782  0.1822 -0.4822 -0.2046
  195TIP3    H1  549   5.899   0.113   2.711 -0.5529  1.3858 -2.0765
  195TIP3    H2  550   5.785   0.181   2.785  0.2556  1.6699 -1.0686
  196TIP3   OH2  551   1.439   1.208   1.846 -0.5859  0.1769  0.3826
  196TIP3    H1  552   1.431   1.196   1.940 -1.3245 -1.2048  0.1707
  196TIP3    H2  553   1.349   1.208   1.813 -0.4088  1.9037 -0.2091
  197TIP3   OH2  554   2.416   4.504   5.601 -0.1555  0.2799 -0.4779
  197TIP3    H1  555   2.471   4.439   5.557  0.5553  0.2622  0.4200
  197TIP3    H2  556   2.333   4.500   5.554  0.7292  0.6291 -2.1679
  198TIP3   OH2  557   4.463   4.807   2.557  0.0367 -0.2496  0.3581
  198TIP3    H1  558   4.474   4.738   2.622 -2.4120 -1.1831 -0.1297
  198TIP3    H2  559   4.552   4.821   2.522  0.5601 -3.6550 -0.0124
  199TIP3   OH2  560   7.056   5.359   1.820 -0.3910 -0.0656  0.0900
  199TIP3    H1  561   7.042   5.317   1.905 -4.2564  0.2555 -0.1778
  199TIP3    H2  562   7.060   5.287   1.757 -0.7672 -0.2249  0.2452
  200TIP3   OH2  563   2.640   0.315   2.243 -0.0488  0.4194 -0.6445
  200TIP3    H1  564   2.546   0.332   2.252 -0.2310 -0.7250 -0.2245
  200TIP3    H2  565   2.677   0.399   2.216 -1.0861  1.0758 -0.0967
  201TIP3   OH2  566   5.884   5.227   5.089  0.1371  0.0915 -0.0204
  201TIP3    H1  567   5.922   5.246   5.003  0.2358 -0.5104 -0.1180
  201TIP3    H2  568   5.852   5.137   5.081  0.0264  0.0793  0.5319
  202TIP3   OH2  569   1.095   5.939   5.635 -0.4485  0.0614 -0.0210
  202TIP3    H1  570   1.051   5.990   5.567 -3.1429 -1.9152  0.0966
  202TIP3    H2  571   1.144   5.872   5.586  0.9644  1.0886 -0.0783
  203TIP3   OH2  572   4.666   0.291   5.094 -0.4424  0.2119  0.0239
  203TIP3    H1  573   4.700   0.232   5.162 -1.3897  0.9284  1.1560
  203TIP3    H2  574   4.632   0.233   5.026  3.1324 -0.5884 -1.3330
  204TIP3   OH2  575   5.382   4.094   5.526 -0.0290  0.3633  0.0973
  204TIP3    H1  576   5.426   4.144   5.594  0.4652 -0.7819  0.6527
  204TIP3    H2  577   5.414   4.132   5.444 -1.7397  2.7301  0.4288
  205TIP3   OH2  578   2.547   1.156   3.232 -0.1049 -0.8471 -0.5569
  205TIP3    H1  579   2.513   1.128   3.146  0.5957 -1.9626 -0.4876
  205TIP3    H2  580   2.635   1.188   3.213  0.1994 -1.4668 -0.2027
  206TIP3   OH2  581   5.832   2.678   0.302  0.3005  0.7243  0.0087
  206TIP3    H1  582   5.830   2.582   0.298 -1.6546  0.7715 -1.8001
  206TIP3    H2  583   5.894   2.703   0.235 -0.7552  0.7247 -0.9974
  207TIP3   OH2  584   0.810   0.915   3.557 -0.2198 -0.3822 -0.0350
  207TIP3    H1  585   0.786   0.891   3.646  0.3141 -0.6359  0.0440
  207TIP3    H2  586   0.735   0.888   3.504 -0.4461 -0.4285  0.3065
  208TIP3   OH2  587   5.548   3.694   3.492 -0.2509 -0.1478 -0.8898
  208TIP3    H1  588   5.605   3.677   3.417 -1.0222 -1.6827 -1.1606
  208TIP3    H2  589   5.489   3.619   3.495 -0.5436  0.1131  0.9807
  209TIP3   OH2  590   4.297   6.740   5.350  0.1285 -0.0565 -0.2453
  209TIP3    H1  591   4.265   6.801   5.417  0.9182  0.8631 -0.6839
  209TIP3    H2  592   4.306   6.794   5.272 -0.5422 -1.0681 -1.0422
  210TIP3   OH2  593   0.396   3.295   3.546  0.3805  0.0326 -0.2081
  210TIP3    H1  594   0.378   3.360   3.479  0.4314  1.6210  1.2708
  210TIP3    H2  595   0.491   3.284   3.543  0.4370  0.4745 -0.0579
  211TIP3   OH2  596   2.793   1.160   1.388 -0.4094  0.5658  0.0720
  211TIP3    H1  597   2.747   1.164   1.304 -0.9702  2.4443  0.4330
  211TIP3    H2  598   2.778   1.070   1.419 -0.5542 -0.0276 -1.6048
  212TIP3   OH2  599   5.983   5.895   1.707 -0.7917  0.4866 -0.2884
  212TIP3    H1  600   5.989   5.839   1.784 -0.0947  1.2570  0.2271
  212TIP3    H2  601   5.921   5.964   1.730 -0.5229  0.7644 -0.3826
  213TIP3   OH2  602   6.331   3.741   4.584  0.0329 -0.1046  0.5783
  213TIP3    H1  603   6.257   3.776   4.634 -0.3399 -1.3885  0.9514
  213TIP3    H2  604   6.380   3.688   4.646 -1.0368 -2.6325 -0.5723
  214TIP3   OH2  605   0.496   1.994   1.065 -0.3524  0.6495  0.4106
  214TIP3    H1  606   0.543   2.077   1.058  1.1754  0.0832  2.7290
  214TIP3    H2  607   0.415   2.016   1.110 -0.1355  0.9449  0.6625
  215TIP3   OH2  608   6.627   5.628   3.881 -0.1564 -0.4760 -0.4948
  215TIP3    H1  609   6.636   5.645   3.787 -0.5780  0.7048 -0.3418
  215TIP3    H2  610   6.620   5.715   3.920 -1.0311 -0.9827  0.5270
  216TIP3   OH2  611   3.813   4.431   0.598 -0.0603 -0.2671  0.3709
  216TIP3    H1  612   3.853   4.377   0.666 -2.0996 -1.2454  0.8875
  216TIP3    H2  613   3.721   4.406   0.599 -0.3503  0.4371 -2.0790
  217TIP3   OH2  614   1.712   1.974   4.445  0.3586 -0.3564 -0.0378
  217TIP3    H1  615   1.769   1.903   4.416  0.8985 -0.8127  2.0004
  217TIP3    H2  616   1.663   1.937   4.518 -0.4702  0.9207  0.0759
  218TIP3   OH2  617   2.738   2.524   4.570  0.2217  0.3217 -0.3480
  218TIP3    H1  618   2.702   2.475   4.496  0.0873  1.1763 -0.8652
  218TIP3    H2  619   2.785   2.459   4.621  0.9459 -0.1729 -1.5827
  219TIP3   OH2  620   6.263   2.764   2.467 -0.5802  0.3738  0.2700
  219TIP3    H1  621   6.238   2.855   2.451  1.6519  1.3001  1.5559
  219TIP3    H2  622   6.291   2.763   2.558  0.5728 -1.3089 -0.0661
  220TIP3   OH2  623   3.702   5.708   3.440 -0.5858 -0.8907 -0.0641
  220TIP3    H1  624   3.768   5.728   3.373 -1.6576 -1.3201 -1.2815
  220TIP3    H2  625   3.682   5.792   3.481 -0.7248 -0.4460 -1.0426
  221TIP3   OH2  626   1.005   3.440   3.107  0.7964  0.1288  0.3156
  221TIP3    H1  627   1.051   3.507   3.057 -0.1234  1.7608  1.5375
  221TIP3    H2  628   1.002   3.474   3.196  0.0349 -1.4227  0.9235
  222TIP3   OH2  629   4.560   5.119   3.598 -0.1297  0.0300  0.1163
  222TIP3    H1  630   4.525   5.030   3.589 -2.9567  1.0746 -0.1473
  222TIP3    H2  631   4.547   5.158   3.511  1.1589  0.6947  0.2066
  223TIP3   OH2  632   5.070   1.042   5.602 -0.0778 -0.1988  0.5551
  223TIP3    H1  633   5.089   1.013   5.691  0.7096 -2.0521 -0.1672
  223TIP3    H2  634   5.122   0.984   5.546 -1.8463 -0.2154 -1.1878
  224TIP3   OH2  635   5.916   0.980   3.410  0.2062 -0.1354  0.3929
  224TIP3    H1  636   5.835   1.013   3.371  0.2578 -0.4118  0.0518
  224TIP3    H2  637   5.890   0.899   3.453  1.2975 -3.5516 -4.6524
  225TIP3   OH2  638   4.585   3.969   1.853  0.5107 -0.2049 -0.6180
  225TIP3    H1  639   4.656   4.032   1.861  0.2223  0.1860 -1.0732
  225TIP3    H2  640   4.628   3.884   1.859  1.0913  0.0239 -1.3631
  226TIP3   OH2  641   5.698   0.749   4.304 -0.6952  0.0931 -0.2746
  226TIP3    H1  642   5.708   0.774   4.212  0.3431  0.0210 -0.2010
  226TIP3    H2  643   5.734   0.661   4.308  0.1646  0.4597  0.3702
  227TIP3   OH2  644   5.664   6.194   2.624 -0.2586 -0.7379  0.2235
  227TIP3    H1  645   5.607   6.269   2.611 -0.3932 -0.9133 -0.2137
  227TIP3    H2  646   5.640   6.133   2.554  0.5563 -0.7504 -0.0565
  228TIP3   OH2  647   6.753   6.149   4.326 -0.2450  0.0046  0.5465
  228TIP3    H1  648   6.829   6.161   4.268 -0.7898 -2.9201 -0.9438
  228TIP3    H2  649   6.789   6.105   4.403 -0.3894 -1.7832 -0.3475
  229TIP3   OH2  650   5.213   1.721   4.793 -0.2309  0.3037  0.0537
  229TIP3    H1  651   5.217   1.809   4.829  1.6210  1.5280 -2.8126
  229TIP3    H2  652   5.276   1.671   4.844 -0.0601  1.0923  0.6288
  230TIP3   OH2  653   3.325   1.860   2.600  0.5777 -0.5695 -0.2283
  230TIP3    H1  654   3.231   1.848   2.584  0.9160 -0.7295 -2.5535
  230TIP3    H2  655   3.365   1.781   2.563  1.5888 -1.2627  2.1467
  231TIP3   OH2  656   1.029   3.430   5.175  0.0790 -0.1252  0.0546
  231TIP3    H1  657   0.995   3.364   5.236 -0.5753  0.4608  0.3330
  231TIP3    H2  658   0.969   3.426   5.100 -0.5093  0.7585  0.4538
  232TIP3   OH2  659   2.784   1.065   3.510 -0.2226 -0.2687 -0.1205
  232TIP3    H1  660   2.765   0.997   3.445 -0.1214 -0.6602  0.2591
  232TIP3    H2  661   2.878   1.055   3.528  0.1714  1.0053 -1.2398
  233TIP3   OH2  662   3.193   2.600   0.238 -0.4946  0.1179  0.4152
  233TIP3    H1  663   3.178   2.672   0.177 -0.8929 -0.1343  0.2139
  233TIP3    H2  664   3.226   2.529   0.183 -1.9913 -0.5151  0.2840
  234TIP3   OH2  665   5.067   1.454   1.059  0.4207  0.1937 -0.3562
  234TIP3    H1  666   5.077   1.360   1.051 -3.6945 -0.3357 -1.5853
  234TIP3    H2  667   5.049   1.485   0.970  1.2807  2.1200  0.0764
  235TIP3   OH2  668   5.516   3.830   5.583  0.2134 -0.3314 -0.4310
  235TIP3    H1  669   5.472   3.909   5.550 -0.1258 -0.3732 -0.0834
  235TIP3    H2  670   5.475   3.813   5.668  2.5424  1.0131  1.0630
  236TIP3   OH2  671   0.851   3.074   3.467  1.0621  0.2597 -0.7503
  236TIP3    H1  672   0.911   3.021   3.416  0.3738 -1.0140 -0.2697
  236TIP3    H2  673   0.867   3.048   3.558  0.0068  0.1123 -0.5916
  237TIP3   OH2  674   1.058   6.674   2.564  0.1768 -0.0613  0.5300
  237TIP3    H1  675   1.049   6.734   2.490 -0.5382  0.0580  0.7036
  237TIP3    H2  676   1.106   6.599   2.530 -0.3001 -0.0828 -0.0989
  238TIP3   OH2  677   5.546   5.187   1.166 -0.0860  0.5080 -0.4077
  238TIP3    H1  678   5.489   5.164   1.240  0.3762  0.5114 -0.0417
  238TIP3    H2  679   5.505   5.264   1.127 -1.5069 -0.7361 -1.4825
  239TIP3   OH2  680   3.816   6.386   0.646  0.1353 -0.1101 -0.6521
  239TIP3    H1  681   3.868   6.317   0.606  0.6876 -1.4187  2.0790
  239TIP3    H2  682   3.786   6.440   0.573  2.4649 -1.3007 -2.5978
  240TIP3   OH2  683   6.319   1.172   3.398  0.2092  0.0267  0.1507
  240TIP3    H1  684   6.298   1.264   3.416  0.1289  0.0293  0.0442
  240TIP3    H2  685   6.388   1.176   3.332 -0.8014 -0.0081 -0.9289
  241TIP3   OH2  686   6.212   5.381   3.553 -0.6029 -0.2390  0.2367
  241TIP3    H1  687   6.170   5.392   3.638  0.4705  2.2310  0.5418
  241TIP3    H2  688   6.230   5.471   3.524 -1.2002 -0.9896 -2.7549
  242TIP3   OH2  689   6.117   2.230   3.570  0.2376  0.5330  0.4598
  242TIP3    H1  690   6.082   2.254   3.656  0.5281  1.1699  0.4033
  242TIP3    H2  691   6.089   2.302   3.513 -0.3712 -0.1230 -0.0864
  243TIP3   OH2  692   1.068   1.301   0.687  1.0898  0.0899 -0.5421
  243TIP3    H1  693   1.035   1.328   0.601 -0.3910  0.7487  0.2020
  243TIP3    H2  694   1.054   1.206   0.688  2.2196 -0.1046 -1.4683
  244TIP3   OH2  695   6.230   6.495   3.681 -0.5714 -0.0079 -0.3757
  244TIP3    H1  696   6.215   6.551   3.757  1.3631  1.1237 -0.7385
  244TIP3    H2  697   6.210   6.551   3.606 -0.2961 -0.3609 -0.7155
  245TIP3   OH2  698   3.271   0.272   4.044 -0.2891  0.1021 -0.1850
  245TIP3    H1  699   3.330   0.197   4.043 -0.6578 -0.1913 -0.2302
  245TIP3    H2  700   3.195   0.244   3.993  0.2728  1.0818 -1.6207
  246TIP3   OH2  701   2.878   5.391   4.086 -0.8178 -0.2952 -0.1579
  246TIP3    H1  702   2.802   5.433   4.047 -0.4090 -0.3167 -0.9960
  246TIP3    H2  703   2.860   5.391   4.180 -1.7371 -0.0865 -0.3287
  247TIP3   OH2  704   2.111   0.900   3.682  0.1393 -0.1662 -0.1638
  247TIP3    H1  705   2.087   0.832   3.744  0.3912 -0.2269 -0.1321
  247TIP3    H2  706   2.027   0.930   3.646 -0.0097 -0.1123  0.2194
  248TIP3   OH2  707   2.052   1.558   3.620 -0.4825  0.4544 -0.3789
  248TIP3    H1  708   2.051   1.502   3.697  1.1282 -2.0802 -2.0538
  248TIP3    H2  709   2.088   1.641   3.651  1.1305 -0.8246  1.4157
  249TIP3   OH2  710   5.431   4.962   2.904 -0.2974  0.2858 -0.0155
  249TIP3    H1  711   5.385   4.994   2.982 -1.6742 -1.0396 -0.2386
  249TIP3    H2  712   5.384   5.001   2.831 -2.3159 -2.4328 -0.3133
  250TIP3   OH2  713   5.301   0.642   3.870 -0.3388  0.1945 -0.6217
  250TIP3    H1  714   5.316   0.701   3.944 -0.5000 -1.8858  1.1913
  250TIP3    H2  715   5.213   0.663   3.841 -0.5766  0.5379  0.2981
  251TIP3   OH2  716   5.093   0.888   2.037  0.4074 -0.0056 -0.5882
  251TIP3    H1  717   5.104   0.983   2.040  1.9152 -0.1550 -0.9396
  251TIP3    H2  718   5.080   0.867   1.945  0.1324 -0.1550 -0.5184
  252TIP3   OH2  719   3.890   2.064   5.522  0.8279 -0.3967  0.4390
  252TIP3    H1  720   3.839   2.053   5.442 -1.6132 -1.0585  1.9977
  252TIP3    H2  721   3.981   2.060   5.493  0.0370  0.1507 -2.3780
  253TIP3   OH2  722   1.694   4.129   0.758  0.0441 -0.0126 -0.1254
  253TIP3    H1  723   1.747   4.077   0.819 -0.0000 -1.2146 -1.0758
  253TIP3    H2  724   1.755   4.194   0.724 -0.2221  1.4612  2.0467
  254TIP3   OH2  725   0.236   3.387   1.541  0.2056 -0.0271 -0.0025
  254TIP3    H1  726   0.188   3.317   1.585  0.9329 -0.3167  0.3550
  254TIP3    H2  727   0.315   3.344   1.508  0.2009  0.4290 -0.6105
  255TIP3   OH2  728   6.645   2.940   2.902  0.0023 -0.9335  0.7753
  255TIP3    H1  729   6.686   3.014   2.947 -0.2111  0.2531 -0.9278
  255TIP3    H2  730   6.575   2.912   2.962 -0.6611  0.9728  0.9534
  256TIP3   OH2  731   5.849   6.412   1.450  0.2468 -0.7834  0.3294
  256TIP3    H1  732   5.887   6.436   1.365  0.3487  1.6249  0.9747
  256TIP3    H2  733   5.778   6.475   1.463  1.2280 -0.0606  2.6928
  257TIP3   OH2  734   6.136   0.029   2.848  0.0537  0.3660  0.4797
  257TIP3    H1  735   6.052   0.075   2.857 -0.2880 -0.4406  1.6978
  257TIP3    H2  736   6.112  -0.057   2.815  0.1889 -0.4551  2.3984
  258TIP3   OH2  737   3.558   4.542   0.969 -0.2942 -0.2770  0.2563
  258TIP3    H1  738   3.474   4.514   0.932 -0.8733  0.2662  1.1217
  258TIP3    H2  739   3.616   4.467   0.955 -0.2034  0.1856 -2.4950
  259TIP3   OH2  740   6.954   0.665   2.158  0.0409  0.0062 -0.1365
  259TIP3    H1  741   6.975   0.600   2.225  1.1302 -2.4328 -2.6327
  259TIP3    H2  742   6.861   0.650   2.139  0.0068 -0.0518  0.0739
  260TIP3   OH2  743   4.377   1.132   1.050  0.1132  0.1060 -0.0502
  260TIP3    H1  744   4.315   1.195   1.014  1.6081  0.6643 -1.7832
  260TIP3    H2  745   4.403   1.170   1.135  0.3026  1.3966 -0.6571
  261TIP3   OH2  746   4.169   4.562   1.652 -0.2841 -0.2529  0.3239
  261TIP3    H1  747   4.134   4.504   1.720  0.2995 -1.2394 -0.1931
  261TIP3    H2  748   4.121   4.538   1.573  1.4326 -1.5819 -0.3799
  262TIP3   OH2  749   2.102   4.811   2.822 -0.3225  0.3426  0.7600
  262TIP3    H1  750   2.195   4.817   2.847  0.3704  0.1992 -1.4960
  262TIP3    H2  751   2.093   4.874   2.751 -0.4900 -3.2773 -2.7856
  263TIP3   OH2  752   2.428   1.594   5.144 -0.3339 -0.1896  0.5704
  263TIP3    H1  753   2.357   1.589   5.081  0.4327 -0.5538 -0.3008
  263TIP3    H2  754   2.421   1.681   5.183 -0.2806  0.3977 -0.6923
  264TIP3   OH2  755   6.357   2.381   4.332 -0.5300 -0.2220  0.3760
  264TIP3    H1  756   6.421   2.375   4.261 -0.1366 -0.8803  0.7864
  264TIP3    H2  757   6.302   2.456   4.307 -0.2583 -0.3022 -0.5072
  265TIP3   OH2  758   2.788   1.640   0.896 -0.2560  0.1069  0.1183
  265TIP3    H1  759   2.769   1.553   0.931 -2.8164  1.1046  1.5455
  265TIP3    H2  760   2.809   1.626   0.804  2.9275 -2.2914  1.0499
  266TIP3   OH2  761   1.065   0.893   2.846 -0.2055  0.3586 -0.1452
  266TIP3    H1  762   1.009   0.912   2.770  1.5232 -0.4101 -1.6961
  266TIP3    H2  763   1.079   0.977   2.888 -1.9996  0.6500 -0.0791
  267TIP3   OH2  764   0.350   2.577   0.499  0.5673  0.6339 -0.0152
  267TIP3    H1  765   0.434   2.531   0.498  0.9655  1.3527 -0.4101
  267TIP3    H2  766   0.370   2.663   0.538 -0.2773  0.2742  1.3013
  268TIP3   OH2  767   4.398   0.647   4.081  0.1135  1.0076 -0.3641
  268TIP3    H1  768   4.420   0.555   4.098 -1.1614 -0.1436 -4.0255
  268TIP3    H2  769   4.326   0.666   4.140 -0.5358 -0.8542 -0.4982
  269TIP3   OH2  770   6.353   1.607   2.088 -0.4201  0.1766  0.0878
  269TIP3    H1  771   6.386   1.639   2.172  0.3439 -1.0999  0.3081
  269TIP3    H2  772   6.316   1.684   2.045 -1.2123  0.7798  1.7751
  270TIP3   OH2  773   3.859   4.371   2.561 -0.2062 -1.1110 -0.1065
  270TIP3    H1  774   3.907   4.396   2.640 -0.2585  1.3883 -0.7958
  270TIP3    H2  775   3.784   4.322   2.594 -0.4333  0.1924  1.4616
  271TIP3   OH2  776   3.870   3.524   3.333  0.7289  0.2281 -0.0530
  271TIP3    H1  777   3.798   3.549   3.391  1.4897  2.4264  0.0516
  271TIP3    H2  778   3.826   3.495   3.252 -0.2769 -0.3387  0.6699
  272TIP3   OH2  779   4.257   4.059   3.898  0.2673 -0.1261  0.5275
  272TIP3    H1  780   4.189   4.091   3.840  0.2732  0.5334  0.8637
  272TIP3    H2  781   4.234   3.968   3.916 -1.0383  0.3423  1.3627
  273TIP3   OH2  782   1.941   1.696   4.002 -0.0632 -0.0752 -0.1571
  273TIP3    H1  783   1.903   1.614   3.970  0.4248 -0.0389 -0.8590
  273TIP3    H2  784   2.033   1.675   4.016  0.2782  0.5964 -1.2699
  274TIP3   OH2  785   6.416   4.639   3.746  0.5817 -0.0544  0.6883
  274TIP3    H1  786   6.389   4.697   3.817  0.1836 -0.4049  0.8290
  274TIP3    H2  787   6.497   4.599   3.778  0.9381  0.5278  0.5283
  275TIP3   OH2  788   5.928   1.135   1.744  0.4672  0.2449 -0.1352
  275TIP3    H1  789   5.891   1.107   1.661 -0.3727  1.2779 -0.1268
  275TIP3    H2  790   5.869   1.100   1.811 -1.0600  2.5406 -0.1493
  276TIP3   OH2  791   2.082   0.739   0.323  0.2543 -0.2375 -0.3287
  276TIP3    H1  792   2.040   0.716   0.406  2.6069 -2.7878  0.3326
  276TIP3    H2  793   2.151   0.801   0.347 -0.1812  0.3958 -0.6855
  277TIP3   OH2  794   6.709   5.025   2.134  0.5092  0.0611  0.2653
  277TIP3    H1  795   6.792   4.997   2.095 -0.0614 -1.0753 -0.1683
  277TIP3    H2  796   6.691   4.960   2.202 -0.9360 -0.7929 -0.8876
  278TIP3   OH2  797   5.665   0.785   4.031 -0.2876  0.0158  0.8066
  278TIP3    H1  798   5.700   0.868   3.997  0.1707 -1.3450 -2.4381
  278TIP3    H2  799   5.570   0.793   4.020 -0.2272  0.0212  0.2786
  279TIP3   OH2  800   0.885   3.740   3.609  0.5468 -0.3613 -0.1311
  279TIP3    H1  801   0.971   3.699   3.615  0.4028 -0.9798 -1.8222
  279TIP3    H2  802   0.825   3.668   3.588 -0.1591  0.2843 -0.3888
  280TIP3   OH2  803   5.665   5.143   1.752 -0.4036  0.0427 -0.8225
  280TIP3    H1  804   5.690   5.210   1.689 -1.7627  1.0420 -0.3736
  280TIP3    H2  805   5.726   5.154   1.825  0.2994 -0.1870 -1.3772
  281TIP3   OH2  806   1.776   1.082   2.472  0.7484  0.2792  0.4722
  281TIP3    H1  807   1.702   1.140   2.487 -0.1449 -0.0775 -2.0768
  281TIP3    H2  808   1.808   1.105   2.384  1.4483 -1.8851  0.0828
  282TIP3   OH2  809   5.915  -0.002   2.581 -0.2146 -0.2746  0.2911
  282TIP3    H1  810   5.887   0.066   2.518  1.1809  0.3893  0.3421
  282TIP3    H2  811   5.972  -0.060   2.529 -0.6206 -0.8466  0.4851
  283TIP3   OH2  812   7.097   5.436   4.681  0.4549  0.0122 -0.3381
  283TIP3    H1  813   7.133   5.369   4.623  0.7843 -0.6493  0.6002
  283TIP3    H2  814   7.027   5.476   4.630 -0.6629 -1.9539 -0.4583
  284TIP3   OH2  815   3.487   4.315   5.144  0.1460  0.0311  0.1408
  284TIP3    H1  816   3.525   4.317   5.056  2.3459  1.8467  1.0149
  284TIP3    H2  817   3.482   4.222   5.167  1.2146 -0.3896 -1.2276
  285TIP3   OH2  818   6.093   0.397   2.651  0.3716 -0.7287 -0.5534
  285TIP3    H1  819   6.153   0.394   2.577  0.3792  0.2165 -0.6041
  285TIP3    H2  820   6.090   0.490   2.675 -0.6803 -0.8281 -0.2407
  286TIP3   OH2  821   1.495   4.167   5.340  0.1668 -0.2723  0.1740
  286TIP3    H1  822   1.449   4.217   5.273 -2.5242 -1.2949  1.1029
  286TIP3    H2  823   1.537   4.234   5.395 -0.8055  0.8028 -0.3434
  287TIP3   OH2  824   3.610   0.459   0.753  0.0060  0.1736  0.4454
  287TIP3    H1  825   3.620   0.543   0.798  0.2289  0.6722 -0.5057
  287TIP3    H2  826   3.691   0.448   0.704 -0.4599 -0.0727 -0.2916
  288TIP3   OH2  827   1.917   0.959   5.346 -0.0636  0.4036 -0.0742
  288TIP3    H1  828   1.838   0.949   5.399 -1.5683 -0.1981 -2.2828
  288TIP3    H2  829   1.913   1.049   5.314  0.2627  0.4218 -0.0725
  289TIP3   OH2  830   1.208   0.962   4.385  0.7364  0.5918  0.3722
  289TIP3    H1  831   1.262   0.981   4.462  1.5394  0.0212 -0.0370
  289TIP3    H2  832   1.233   1.028   4.321  1.8167 -0.3513 -0.2216
  290TIP3   OH2  833   0.495   4.712   1.669  0.5850  0.0002 -0.0263
  290TIP3    H1  834   0.493   4.777   1.598  0.4087  1.6996  1.4591
  290TIP3    H2  835   0.536   4.635   1.630  0.0492  0.6935 -2.0988
  291TIP3   OH2  836   5.214   1.468   2.583 -0.2529 -0.6273  0.3454
  291TIP3    H1  837   5.244   1.526   2.512  0.6141  0.6535  1.6949
  291TIP3    H2  838   5.197   1.384   2.540 -0.1406  0.2152 -1.4389
  292TIP3   OH2  839   5.582   6.478   3.459 -0.4005  0.0320  0.0723
  292TIP3    H1  840   5.559   6.387   3.476 -0.9984  0.2024  0.1886
  292TIP3    H2  841   5.677   6.481   3.470 -0.2686 -0.7550 -0.7775
  293TIP3   OH2  842   0.588   2.505   0.805 -0.5540 -0.3369 -0.1182
  293TIP3    H1  843   0.519   2.490   0.870 -0.6128 -0.5615 -0.2343
  293TIP3    H2  844   0.574   2.595   0.776  0.0681  0.1026  0.8995
  294TIP3   OH2  845   6.176   2.641   5.143 -0.1028  0.1435 -0.4352
  294TIP3    H1  846   6.165   2.581   5.068  0.3494 -1.4607  0.7199
  294TIP3    H2  847   6.091   2.639   5.186 -0.0472  0.2299 -0.3236
  295TIP3   OH2  848   5.589   5.546   0.792  0.1949 -0.3208 -0.0832
  295TIP3    H1  849   5.566   5.506   0.709  0.9859 -1.0215  0.0322
  295TIP3    H2  850   5.517   5.522   0.851 -0.2475 -0.0186 -0.4920
  296TIP3   OH2  851   6.414   2.460   1.149  0.1213  0.6882 -0.4644
  296TIP3    H1  852   6.369   2.432   1.069 -1.6688 -0.3311  0.8345
  296TIP3    H2  853   6.426   2.555   1.138 -3.2925  1.2344 -0.5171
  297TIP3   OH2  854   6.239   5.058   0.154 -0.2493  0.6783 -0.2355
  297TIP3    H1  855   6.192   5.135   0.186 -1.1556  0.1116 -0.1710
  297TIP3    H2  856   6.293   5.091   0.082  1.1263  1.7956  1.2509
  298TIP3   OH2  857   5.137   6.150   0.780  0.0364 -0.0292  0.9343
  298TIP3    H1  858   5.186   6.174   0.859  2.9927 -2.2837 -0.0385
  298TIP3    H2  859   5.150   6.223   0.720 -0.4938  0.7652  1.7485
  299TIP3   OH2  860   1.551   0.188   4.185  0.2316  0.3449  0.0226
  299TIP3    H1  861   1.606   0.142   4.249 -2.2215  0.2492  2.2426
  299TIP3    H2  862   1.496   0.246   4.238 -1.7102  0.5248 -2.0237
  300TIP3   OH2  863   3.759   3.970   2.830  0.2698  1.3249 -0.3033
  300TIP3    H1  864   3.717   4.032   2.891  0.1109  0.3098  0.6642
  300TIP3    H2  865   3.685   3.925   2.789  0.3742  0.3471  0.5410
  301TIP3   OH2  866   0.479   5.485   3.492  0.4462  0.3468  0.1109
  301TIP3    H1  867   0.438   5.475   3.406 -1.0465  1.4350  0.6412
  301TIP3    H2  868   0.476   5.580   3.509  0.3284  0.1222  1.5160
  302TIP3   OH2  869   2.446   2.681   0.543 -0.4197 -0.3628 -0.0449
  302TIP3    H1  870   2.481   2.756   0.591 -0.6147 -0.0020 -0.4637
  302TIP3    H2  871   2.351   2.692   0.546 -0.4923 -1.0618  0.6372
  303TIP3   OH2  872   6.862   5.333   3.445  0.0046  0.3296 -0.0213
  303TIP3    H1  873   6.941   5.286   3.418  1.6102  3.3799 -1.0819
  303TIP3    H2  874   6.883   5.365   3.533 -1.4287 -1.5393  1.0696
  304TIP3   OH2  875   1.778   3.153   2.989  0.5492  0.0244  0.3418
  304TIP3    H1  876   1.812   3.185   2.905  2.0842 -0.9662  0.5343
  304TIP3    H2  877   1.760   3.232   3.039 -0.4215  0.6261 -0.9261
  305TIP3   OH2  878   5.665   1.250   1.789 -0.1577  0.5240  0.4512
  305TIP3    H1  879   5.653   1.279   1.699 -0.0660 -0.3714  0.1373
  305TIP3    H2  880   5.691   1.328   1.837 -1.6365  1.3201  0.0005
  306TIP3   OH2  881   0.258   5.057   4.457 -0.1068 -0.1770  0.2091
  306TIP3    H1  882   0.287   5.030   4.370  0.8480 -0.4105  0.5929
  306TIP3    H2  883   0.163   5.067   4.448  0.2557  2.6803 -1.6393
  307TIP3   OH2  884   3.230   4.355   3.023  0.8180 -0.0869 -0.3436
  307TIP3    H1  885   3.214   4.334   2.931  1.5353 -2.4520  0.0140
  307TIP3    H2  886   3.155   4.319   3.070  1.0945 -0.0637  0.1268
  308TIP3   OH2  887   5.736   2.427   3.901 -0.5402  0.0093  0.1747
  308TIP3    H1  888   5.641   2.439   3.911 -0.8504 -1.0006 -1.2210
  308TIP3    H2  889   5.763   2.383   3.982 -1.7294 -1.9066 -0.3967
  309TIP3   OH2  890   7.091   5.240   2.392 -0.6657 -0.1192 -0.0199
  309TIP3    H1  891   7.027   5.182   2.434  0.1201  0.3795  2.0186
  309TIP3    H2  892   7.038   5.311   2.354 -1.4071 -0.2863  0.6682
  310TIP3   OH2  893   1.687   2.139   4.873 -0.2394 -0.0410 -0.0528
  310TIP3    H1  894   1.771   2.142   4.826  1.0710 -0.2617  2.1589
  310TIP3    H2  895   1.647   2.224   4.856  1.0769  0.6031 -0.0519
  311TIP3   OH2  896   0.447   1.405   0.955 -0.1065 -0.5295  0.4769
  311TIP3    H1  897   0.506   1.338   0.988  0.5384  0.5451  1.6090
  311TIP3    H2  898   0.503   1.463   0.903 -0.9948 -1.8474 -2.1378
  312TIP3   OH2  899   0.875   4.222   2.105 -0.0248 -0.0044  0.4810
  312TIP3    H1  900   0.898   4.256   2.192  1.6732  0.4073 -0.0918
  312TIP3    H2  901   0.854   4.130   2.120 -1.7747  0.5238  1.6089
  313TIP3   OH2  902   2.140   3.872   5.725 -0.0886 -0.1657  0.1583
  313TIP3    H1  903   2.113   3.866   5.817 -2.1615 -0.9715 -0.4486
  313TIP3    H2  904   2.071   3.925   5.683  1.3285  1.0171 -0.7842
  314TIP3   OH2  905   0.759   6.484   0.364  0.4583  0.4476 -0.2779
  314TIP3    H1  906   0.718   6.463   0.280 -1.4237 -0.5521  0.8055
  314TIP3    H2  907   0.721   6.568   0.389  0.6898  0.5391 -0.2288
  315TIP3   OH2  908   7.183   4.596   1.413  0.1717 -0.0269 -0.0576
  315TIP3    H1  909   7.256   4.535   1.404 -0.6078 -0.8423 -0.9393
  315TIP3    H2  910   7.138   4.593   1.329  0.3480  2.0954 -0.2816
  316TIP3   OH2  911   6.508   1.708   0.740 -0.4759  0.1269  0.8003
  316TIP3    H1  912   6.511   1.613   0.742 -0.2110 -0.0415 -2.4296
  316TIP3    H2  913   6.426   1.731   0.783 -0.8796 -1.5903  1.0061
  317TIP3   OH2  914   2.087   3.434   1.580 -0.3761  0.0357  0.2061
  317TIP3    H1  915   2.121   3.346   1.592 -0.8764 -0.3248 -0.8810
  317TIP3    H2  916   2.143   3.473   1.513  0.1452  0.7256  1.0245
  318TIP3   OH2  917   1.498   1.184   1.288 -0.7178  0.6928  0.4872
  318TIP3    H1  918   1.531   1.248   1.351 -2.4072  1.7292  0.3783
  318TIP3    H2  919   1.454   1.118   1.341  3.2238 -1.9510  0.8336
  319TIP3   OH2  920   1.037   6.632   4.395  0.6030  0.4996  0.0635
  319TIP3    H1  921   1.008   6.723   4.387 -0.1665  0.1199 -1.9904
  319TIP3    H2  922   0.962   6.587   4.434  1.1871  0.7865  1.6236
  320TIP3   OH2  923   4.456   5.418   3.916  0.4546 -0.2237  0.0787
  320TIP3    H1  924   4.531   5.361   3.899  0.3329 -0.3967  0.1277
  320TIP3    H2  925   4.461   5.437   4.010 -0.6829 -1.8152  0.4854
  321TIP3   OH2  926   0.470   6.580   1.197 -0.6202 -0.2861 -0.0870
  321TIP3    H1  927   0.445   6.528   1.120  0.2034  1.1080 -1.3477
  321TIP3    H2  928   0.403   6.648   1.202  0.4800  0.8994 -0.8991
  322TIP3   OH2  929   1.964   1.171   3.922  0.5276 -0.0579  0.3845
  322TIP3    H1  930   2.024   1.135   3.987  2.1089 -0.8924 -1.4157
  322TIP3    H2  931   1.922   1.094   3.883  0.1960  0.3557 -0.1005
  323TIP3   OH2  932   3.260   4.746   2.304 -0.3492 -0.0789 -0.1020
  323TIP3    H1  933   3.219   4.829   2.325 -0.5673 -0.1059 -0.4171
  323TIP3    H2  934   3.287   4.710   2.389  0.3457  0.6202 -0.0146
  324TIP3   OH2  935   0.703   0.449   0.649 -0.0389  0.6528 -0.1498
  324TIP3    H1  936   0.619   0.405   0.661  0.5461 -1.0437 -1.7874
  324TIP3    H2  937   0.717   0.448   0.554  2.0739  0.3866  0.1199
  325TIP3   OH2  938   4.202   4.959   0.633  0.4592  0.3376  0.3157
  325TIP3    H1  939   4.190   5.053   0.625 -0.3951  0.2715  0.7118
  325TIP3    H2  940   4.126   4.929   0.683  0.7987 -0.5385  0.3276
  326TIP3   OH2  941   3.424   6.532   4.289 -0.6307  0.2465 -0.7786
  326TIP3    H1  942   3.402   6.439   4.301 -0.7372  0.0283 -2.3427
  326TIP3    H2  943   3.340   6.574   4.272 -0.6309  0.7170  0.3641
  327TIP3   OH2  944   3.251   1.732   2.337 -0.1624 -0.3218 -0.0760
  327TIP3    H1  945   3.310   1.666   2.373  1.5528  0.9778 -0.3659
  327TIP3    H2  946   3.305   1.781   2.275 -1.4373  1.1942 -0.0507
  328TIP3   OH2  947   0.836   5.729   2.932  0.0754 -0.4066 -0.1967
  328TIP3    H1  948   0.761   5.773   2.892  0.1132 -0.2044 -0.0461
  328TIP3    H2  949   0.803   5.699   3.017  0.3123  0.1426  0.0954
  329TIP3   OH2  950   0.547   5.910   3.330  0.0245  0.0348  0.4311
  329TIP3    H1  951   0.467   5.868   3.360 -0.1963 -0.8218 -1.2648
  329TIP3    H2  952   0.516   5.985   3.279  0.2011 -1.2870 -1.6974
  330TIP3   OH2  953   4.054   6.255   0.045 -0.2635 -0.2433  0.0735
  330TIP3    H1  954   4.125   6.316   0.026 -0.6603  0.4351  0.7403
  330TIP3    H2  955   4.002   6.253  -0.036  0.5298 -0.7890 -0.4372
  331TIP3   OH2  956   1.076   0.081   0.824  0.0272  0.2178  0.0272
  331TIP3    H1  957   1.048   0.120   0.906 -0.0162 -1.0020  0.6090
  331TIP3    H2  958   1.035   0.135   0.756  0.9750  1.9057  0.7674
  332TIP3   OH2  959   4.097   0.813   2.650 -0.4098 -0.2138 -0.2413
  332TIP3    H1  960   4.107   0.869   2.727 -1.9061 -0.1389 -0.0850
  332TIP3    H2  961   4.025   0.853   2.600  0.1721 -0.5774 -1.4099
  333TIP3   OH2  962   3.944   5.770   4.250  0.6725 -0.0545 -0.2323
  333TIP3    H1  963   4.012   5.702   4.254  2.2055  1.3127 -1.4020
  333TIP3    H2  964   3.891   5.746   4.174  1.5181  0.3044 -0.9504
  334TIP3   OH2  965   2.659   5.635   2.478 -0.4428  0.6062 -0.1191
  334TIP3    H1  966   2.740   5.603   2.440 -0.7711  0.3945 -0.6492
  334TIP3    H2  967   2.596   5.565   2.464 -0.6477  0.6406  0.5617
  335TIP3   OH2  968   6.188   5.210   2.305  0.3605  0.6829  0.0486
  335TIP3    H1  969   6.270   5.260   2.313 -0.1947  1.6007  0.2324
  335TIP3    H2  970   6.147   5.218   2.391  0.2578 -0.1032  0.0721
  336TIP3   OH2  971   0.506   2.528   3.347  0.2016  0.2745 -0.4193
  336TIP3    H1  972   0.502   2.586   3.271 -0.7997  1.5520  0.5646
  336TIP3    H2  973   0.595   2.537   3.380  0.3602  0.4385 -0.8789
  337TIP3   OH2  974   5.133   4.822   2.323  0.0886  0.6744  0.1247
  337TIP3    H1  975   5.190   4.755   2.285  0.8728  0.5892  1.3756
  337TIP3    H2  976   5.165   4.905   2.288 -0.7838  0.4514 -1.3048
  338TIP3   OH2  977   0.110   5.613   1.567  0.0119 -0.1909  0.1310
  338TIP3    H1  978   0.173   5.541   1.564 -0.9876 -1.1081  0.7282
  338TIP3    H2  979   0.024   5.571   1.559 -0.6576  0.8153  1.5921
  339TIP3   OH2  980   6.802   1.772   3.126 -0.0941  0.3956  0.1886
  339TIP3    H1  981   6.752   1.851   3.103 -0.4850  0.5250  1.3859
  339TIP3    H2  982   6.747   1.727   3.190 -0.0464 -1.0601 -0.7555
  340TIP3   OH2  983   5.368   6.496   4.899  0.4162 -0.1872 -0.0043
  340TIP3    H1  984   5.421   6.417   4.884  0.8611  0.1756 -0.3567
  340TIP3    H2  985   5.280   6.471   4.871 -0.1204 -1.4834  2.4810
  341TIP3   OH2  986   6.457   4.158   0.590  0.1474 -0.4464  0.3245
  341TIP3    H1  987   6.551   4.173   0.597  0.4839 -1.9053 -0.5981
  341TIP3    H2  988   6.448   4.063   0.583 -1.2485 -0.2417 -1.4256
  342TIP3   OH2  989   3.697   0.673   5.296  0.1179  0.0238 -0.2871
  342TIP3    H1  990   3.657   0.760   5.290  0.1906  0.0231 -0.9090
  342TIP3    H2  991   3.706   0.657   5.390  1.8572  1.5027 -0.1402
  343TIP3   OH2  992   2.955   4.040   5.485 -0.0221 -0.9603  0.3702
  343TIP3    H1  993   2.872   4.056   5.441 -0.4983 -2.3406  0.7095
  343TIP3    H2  994   3.021   4.051   5.416 -0.4096  0.6369  0.2115
  344TIP3   OH2  995   2.877   1.332   4.551  0.4188  0.1195  0.0362
  344TIP3    H1  996   2.968   1.336   4.521  1.3234 -0.3531  2.4541
  344TIP3    H2  997   2.877   1.379   4.634 -1.4086 -0.4757  0.4230
  345TIP3   OH2  998   6.016   2.544   3.561 -0.2094 -0.2750 -0.1189
  345TIP3    H1  999   6.109   2.541   3.536  0.3133 -0.7015  1.7452
  345TIP3    H2 1000   5.970   2.561   3.478  1.3687 -2.0556 -1.4613
  346TIP3   OH2 1001   3.628   0.044   4.281  0.0246  0.2078 -0.5468
  346TIP3    H1 1002   3.678   0.098   4.219  0.1653  1.8508  0.9230
  346TIP3    H2 1003   3.671   0.059   4.365 -1.1645 -0.6835  0.2472
  347TIP3   OH2 1004   7.179   3.473   1.775 -0.4777 -0.0381 -0.0907
  347TIP3    H1 1005   7.167   3.558   1.734 -0.4897  1.3455  2.5525
  347TIP3    H2 1006   7.093   3.452   1.813 -0.0449 -0.3943  0.7211
  348TIP3   OH2 1007   1.046   6.040   5.872  0.1324  0.0261  0.3735
  348TIP3    H1 1008   0.953   6.057   5.889 -0.1441 -0.6174 -0.4424
  348TIP3    H2 1009   1.047   5.994   5.788  1.2062  0.1776  0.2961
  349TIP3   OH2 1010   0.002   3.518   3.046  0.3446  0.1472  0.0377
  349TIP3    H1 1011   0.051   3.469   2.981 -0.3047 -1.4615  0.7196
  349TIP3    H2 1012   0.037   3.489   3.131 -0.5030  0.3536  0.4714
  350TIP3   OH2 1013   6.838   6.572   1.682  0.0369 -0.4166 -0.3380
  350TIP3    H1 1014   6.826   6.596   1.590  2.8616 -1.5406 -1.1153
  350TIP3    H2 1015   6.783   6.494   1.694 -0.5904 -0.0813 -0.9898
  351TIP3   OH2 1016   1.764   0.534   0.703 -0.1627 -0.5269  0.0898
  351TIP3    H1 1017   1.722   0.505   0.784 -0.8123  0.1814  0.0171
  351TIP3    H2 1018   1.692   0.548   0.642  0.3356 -1.2712 -0.6957
  352TIP3   OH2 1019   6.490   5.494   2.531 -0.4976 -0.4401 -0.3837
  352TIP3    H1 1020   6.514   5.585   2.516  1.4760 -0.8456 -0.0748
  352TIP3    H2 1021   6.462   5.491   2.622 -0.2701 -0.1814 -0.3036
  353TIP3   OH2 1022   0.365   2.960   4.808  0.5110  0.0761  0.1548
  353TIP3    H1 1023   0.301   2.901   4.849 -0.1038  0.1455 -0.6822
  353TIP3    H2 1024   0.314   3.036   4.781  0.9168  0.0941 -0.6006
  354TIP3   OH2 1025   3.735   5.155   0.846  0.2860 -0.2778 -0.6270
  354TIP3    H1 1026   3.732   5.106   0.765 -1.8679 -1.7326  0.2477
  354TIP3    H2 1027   3.657   5.211   0.844 -0.2872 -0.9599  0.7472
  355TIP3   OH2 1028   6.757   2.090   4.261 -0.1954  0.0977 -0.1732
  355TIP3    H1 1029   6.729   2.148   4.332  0.8620 -2.6143  2.7159
  355TIP3    H2 1030   6.686   2.026   4.253  0.7803 -1.0944  0.3134
  356TIP3   OH2 1031   0.581   2.473   2.680  0.7153 -0.0222 -0.1178
  356TIP3    H1 1032   0.594   2.380   2.659  1.3500  0.3385 -1.4460
  356TIP3    H2 1033   0.505   2.474   2.737 -1.1029 -1.1798 -2.3295
  357TIP3   OH2 1034   6.091   1.242   0.626  0.1429 -0.2288  0.4064
  357TIP3    H1 1035   6.056   1.167   0.674 -0.1089  0.6973  1.7131
  357TIP3    H2 1036   6.044   1.317   0.662 -0.3424  0.4731 -1.5996
  358TIP3   OH2 1037   5.202   4.384   2.928  0.2910  0.0074 -0.2387
  358TIP3    H1 1038   5.144   4.451   2.965  0.5017  1.0902 -1.7446
  358TIP3    H2 1039   5.274   4.377   2.992 -0.9769 -0.6827  1.1877
  359TIP3   OH2 1040   6.823   3.025   2.649  0.4620 -0.0110 -0.0956
  359TIP3    H1 1041   6.832   2.990   2.738  1.4719  0.8007  0.1442
  359TIP3    H2 1042   6.872   2.963   2.594  0.0917 -0.3484 -0.0517
  360TIP3   OH2 1043   0.859   5.823   3.234 -0.0734  0.4523  0.1589
  360TIP3    H1 1044   0.782   5.839   3.288  0.6649  3.8423  0.4356
  360TIP3    H2 1045   0.914   5.901   3.245  1.7044 -0.1620 -2.8689
  361TIP3   OH2 1046   1.837   5.103   1.489  0.1687  0.1639  0.5933
  361TIP3    H1 1047   1.784   5.179   1.467  0.5528  0.4269  0.5664
  361TIP3    H2 1048   1.823   5.090   1.583 -1.2641 -0.8005  0.2711
  362TIP3   OH2 1049   2.496   5.965   4.329 -0.7009  0.4979  0.7760
  362TIP3    H1 1050   2.485   5.888   4.385 -0.7117  0.0610  0.1804
  362TIP3    H2 1051   2.427   6.025   4.358 -1.6577 -0.3143  0.2624
  363TIP3   OH2 1052   4.018   6.574   3.985 -0.4008 -0.4420  0.0278
  363TIP3    H1 1053   3.925   6.595   3.976 -0.4630 -1.1615 -1.1217
  363TIP3    H2 1054   4.054   6.646   4.038 -1.4456  0.2587 -0.1948
  364TIP3   OH2 1055   0.124   4.904   1.283  0.4907 -0.0384 -0.1917
  364TIP3    H1 1056   0.168   4.819   1.276  1.5120  0.3819  0.8303
  364TIP3    H2 1057   0.192   4.968   1.261  0.7223  0.6796  2.3203
  365TIP3   OH2 1058   4.606   1.950   2.158 -0.0388  1.0896  0.3145
  365TIP3    H1 1059   4.618   2.006   2.081 -2.0027 -0.2988 -1.1242
  365TIP3    H2 1060   4.609   1.861   2.123 -0.1495  0.3861  2.0098
  366TIP3   OH2 1061   4.162   0.707   5.234 -0.1338  0.3800  0.2563
  366TIP3    H1 1062   4.232   0.645   5.254 -0.7087  0.4805  3.0516
  366TIP3    H2 1063   4.207   0.791   5.225  0.2349  0.3174  1.2976
  367TIP3   OH2 1064   5.515   1.582   2.012  0.0122  0.5846 -0.1352
  367TIP3    H1 1065   5.499   1.488   2.014  1.6418  0.2750 -0.3145
  367TIP3    H2 1066   5.516   1.609   2.104 -1.6401  0.6792 -0.1133
  368TIP3   OH2 1067   0.850   0.105   2.874 -0.2284 -0.8166 -0.1609
  368TIP3    H1 1068   0.893   0.131   2.792  0.3665 -0.6122  0.2063
  368TIP3    H2 1069   0.829   0.188   2.917  0.7980 -0.9096  0.5636
  369TIP3   OH2 1070   2.643   1.966   4.327  0.3881 -0.1726  0.1696
  369TIP3    H1 1071   2.738   1.967   4.338  0.7299 -2.6125 -1.6618
  369TIP3    H2 1072   2.628   2.002   4.239 -0.5890  1.7741  1.0708
  370TIP3   OH2 1073   6.883   4.247   4.756 -0.0978 -0.2636 -0.1439
  370TIP3    H1 1074   6.951   4.282   4.700 -0.2541  1.1411  0.4941
  370TIP3    H2 1075   6.869   4.315   4.823 -2.2982 -0.3667 -0.4132
  371TIP3   OH2 1076   3.150   5.505   5.289  0.2447 -0.0730  0.1914
  371TIP3    H1 1077   3.183   5.577   5.343 -1.1465  1.0475 -0.3987
  371TIP3    H2 1078   3.190   5.519   5.203 -0.3770  0.2766 -0.0477
  372TIP3   OH2 1079   1.770   6.020   4.728  0.2816  0.0930 -0.2331
  372TIP3    H1 1080   1.682   5.997   4.757  0.2238 -0.9364 -1.1596
  372TIP3    H2 1081   1.809   5.937   4.700  1.2221  0.6664 -0.7013
  373TIP3   OH2 1082   6.442   1.384   1.400  0.2156 -0.3693 -0.4102
  373TIP3    H1 1083   6.509   1.399   1.334  1.4901  2.8103  1.3721
  373TIP3    H2 1084   6.359   1.400   1.354  0.8628 -0.8944 -1.8109
  374TIP3   OH2 1085   6.176   5.177   2.630  0.6324 -0.3939  0.3887
  374TIP3    H1 1086   6.169   5.264   2.669 -0.9337 -0.1765 -0.3082
  374TIP3    H2 1087   6.262   5.146   2.657  0.8253  0.9691  1.4626
  375TIP3   OH2 1088   7.130   3.097   1.403 -0.7943  0.1013  0.0176
  375TIP3    H1 1089   7.188   3.111   1.478 -1.3953 -2.2114  1.0013
  375TIP3    H2 1090   7.054   3.152   1.420 -0.8337 -0.2467  1.0093
  376TIP3   OH2 1091   0.157   5.119   2.876 -0.7583 -0.0586 -0.1667
  376TIP3    H1 1092   0.215   5.172   2.821 -1.3430 -1.6625 -2.5163
  376TIP3    H2 1093   0.212   5.046   2.906 -1.0322 -0.4867 -0.6883
  377TIP3   OH2 1094   1.884   3.795   0.571  0.4730  0.2243  0.2661
  377TIP3    H1 1095   1.928   3.715   0.541  0.8586  0.0493  1.2764
  377TIP3    H2 1096   1.816   3.811   0.506 -0.2950 -1.5016  0.6097
  378TIP3   OH2 1097   5.683   4.242   5.435 -0.0758 -0.3507  0.3775
  378TIP3    H1 1098   5.714   4.204   5.517  0.3763 -1.8331 -0.4388
  378TIP3    H2 1099   5.751   4.305   5.411 -0.0844 -0.0930  1.0133
  379TIP3   OH2 1100   0.415   6.545   4.954 -0.0054 -0.2714 -0.4626
  379TIP3    H1 1101   0.346   6.528   5.017  1.0940 -1.1440  0.5426
  379TIP3    H2 1102   0.457   6.460   4.940  1.6234  0.4333 -0.1269
  380TIP3   OH2 1103   1.657   4.681   5.779  0.0657 -0.5517 -0.2911
  380TIP3    H1 1104   1.708   4.615   5.826 -1.0466  0.6238  2.8172
  380TIP3    H2 1105   1.574   4.636   5.760  0.2666 -0.8243 -0.5418
  381TIP3   OH2 1106   6.859   2.260   4.601 -0.3286  0.6116 -0.1643
  381TIP3    H1 1107   6.927   2.231   4.539 -0.8082 -0.2991 -0.2846
  381TIP3    H2 1108   6.857   2.191   4.667 -0.2075  1.3075  0.5831
  382TIP3   OH2 1109   7.178   6.422   4.110 -0.5221 -0.4983 -0.5315
  382TIP3    H1 1110   7.139   6.438   4.024 -0.3662 -1.4962 -0.8029
  382TIP3    H2 1111   7.271   6.441   4.098 -0.6970  0.6187 -0.2280
  383TIP3   OH2 1112   2.269   3.530   4.824  0.0323 -0.1514 -0.2528
  383TIP3    H1 1113   2.362   3.549   4.812 -0.6114  2.9219 -1.3583
  383TIP3    H2 1114   2.229   3.549   4.739 -1.6261 -1.6255  0.1265
  384TIP3   OH2 1115   3.275   0.730   3.931 -0.0712 -0.0162 -0.2630
  384TIP3    H1 1116   3.225   0.772   4.001  0.4741 -0.4782  0.4165
  384TIP3    H2 1117   3.310   0.650   3.971  0.3703 -0.2124 -1.0208
  385TIP3   OH2 1118   5.470   3.367   5.753  0.6785 -0.3623 -0.2190
  385TIP3    H1 1119   5.482   3.332   5.665  1.8579  0.4928 -0.4241
  385TIP3    H2 1120   5.432   3.454   5.739  0.0360 -0.5725  0.1692
  386TIP3   OH2 1121   5.948   6.300   3.906  0.0245  0.0832 -0.0862
  386TIP3    H1 1122   6.005   6.223   3.906  0.1538  0.1565 -1.0119
  386TIP3    H2 1123   5.960   6.340   3.992  2.2483  0.7192 -0.6328
  387TIP3   OH2 1124   3.810   5.067   0.561  0.1806 -0.2495 -0.3522
  387TIP3    H1 1125   3.865   5.132   0.516 -0.0512  0.8951  0.9570
  387TIP3    H2 1126   3.804   4.994   0.499  0.9457  0.7215 -1.6238
  388TIP3   OH2 1127   2.704   4.694   1.778  0.2832 -0.0466 -1.1338
  388TIP3    H1 1128   2.667   4.636   1.845 -0.6776  0.5661 -1.1211
  388TIP3    H2 1129   2.762   4.752   1.827 -2.0916  1.8857 -0.3890
  389TIP3   OH2 1130   6.889   0.712   1.010 -0.4749  0.5127 -0.0724
  389TIP3    H1 1131   6.923   0.662   0.935 -1.4975 -1.0137  0.4216
  389TIP3    H2 1132   6.845   0.787   0.971  1.6937  1.4790 -0.8157
  390TIP3   OH2 1133   1.821   0.192   2.654  0.1944 -0.5830 -0.4176
  390TIP3    H1 1134   1.813   0.175   2.560 -0.8081 -1.3753 -0.2099
  390TIP3    H2 1135   1.877   0.270   2.660 -0.2352 -0.1507 -1.6914
  391TIP3   OH2 1136   6.792   5.199   1.049 -0.4740  0.1000  0.3952
  391TIP3    H1 1137   6.758   5.184   1.136  0.2438 -1.3602  0.4493
  391TIP3    H2 1138   6.839   5.119   1.027 -0.7435  0.3873 -1.3815
  392TIP3   OH2 1139   6.930   6.319   3.129 -0.5103 -0.0737 -0.4496
  392TIP3    H1 1140   6.853   6.264   3.144 -0.7590  0.8409  2.2609
  392TIP3    H2 1141   6.922   6.389   3.194  1.8590  0.8779 -1.0862
  393TIP3   OH2 1142   6.115   0.769   3.197  0.3363  0.4887 -0.1391
  393TIP3    H1 1143   6.089   0.703   3.132 -0.8735  0.3744  0.4328
  393TIP3    H2 1144   6.054   0.841   3.184  0.1491  0.5130  0.7846
  394TIP3   OH2 1145   1.717   0.100   2.195 -1.0192 -0.1634 -0.3073
  394TIP3    H1 1146   1.661   0.164   2.152 -0.4004  0.3277 -0.3999
  394TIP3    H2 1147   1.794   0.093   2.137  0.0405  0.8535  0.9079
  395TIP3   OH2 1148   4.360   5.268   5.494  0.0818 -0.3716 -0.5985
  395TIP3    H1 1149   4.311   5.265   5.576  0.1224 -0.1348 -0.5635
  395TIP3    H2 1150   4.441   5.314   5.517  0.5291 -1.1803 -0.5456
  396TIP3   OH2 1151   4.711   4.838   5.293 -0.0341 -0.5233  0.5511
  396TIP3    H1 1152   4.639   4.890   5.328 -1.1577 -0.7892 -1.2825
  396TIP3    H2 1153   4.749   4.891   5.223  0.7876 -0.9008  0.6882
  397TIP3   OH2 1154   0.165   4.931   5.160 -0.9387  0.7225  0.5023
  397TIP3    H1 1155   0.248   4.958   5.121 -1.5023  0.2365 -1.1123
  397TIP3    H2 1156   0.126   5.012   5.192 -0.4003  1.1173  0.1771
  398TIP3   OH2 1157   3.171   3.541   5.590  0.4314 -0.1901  0.1090
  398TIP3    H1 1158   3.101   3.606   5.584 -0.2630 -0.6491  2.2867
  398TIP3    H2 1159   3.196   3.524   5.499 -0.2762  2.1037 -0.5805
  399TIP3   OH2 1160   3.844   0.446   5.328 -0.3216 -0.6203 -0.0033
  399TIP3    H1 1161   3.807   0.518   5.277  0.8497  1.2096  1.6087
  399TIP3    H2 1162   3.915   0.412   5.273 -0.8538 -0.5444 -0.7562
  400TIP3   OH2 1163   1.168   1.640   4.013  0.1883  0.4034 -0.4975
  400TIP3    H1 1164   1.118   1.719   3.993 -0.1955  0.4680  0.6414
  400TIP3    H2 1165   1.112   1.568   3.986 -0.3885  0.4847  0.4563
  401TIP3   OH2 1166   4.551   4.345   2.459  0.5133  0.4773  0.4065
  401TIP3    H1 1167   4.610   4.420   2.462 -0.4602  1.2587  0.2750
  401TIP3    H2 1168   4.503   4.355   2.377 -0.4976  0.3847  0.9733
  402TIP3   OH2 1169   6.921   5.861   4.972 -0.1589  0.0771  0.3180
  402TIP3    H1 1170   6.848   5.900   5.021  0.6444  1.5843  0.3660
  402TIP3    H2 1171   6.881   5.827   4.893 -0.7730  2.1682 -0.3481
  403TIP3   OH2 1172   6.732   2.804   0.268  0.0620 -0.4901  0.1993
  403TIP3    H1 1173   6.675   2.844   0.202 -0.6843 -1.2325  0.3754
  403TIP3    H2 1174   6.797   2.755   0.218 -0.1644 -0.5889 -0.0028
  404TIP3   OH2 1175   4.248   1.527   2.920 -0.0378 -0.7541  0.2472
  404TIP3    H1 1176   4.267   1.614   2.886 -0.5591 -0.4893  0.6168
  404TIP3    H2 1177   4.153   1.519   2.910 -0.1216 -0.8870  1.1335
  405TIP3   OH2 1178   3.824   0.503   4.999  0.1527 -0.2903  0.6482
  405TIP3    H1 1179   3.742   0.504   5.048 -0.1889 -0.1734  0.0754
  405TIP3    H2 1180   3.869   0.583   5.027  0.4116 -0.7232  1.5178
  406TIP3   OH2 1181   0.800   2.559   4.570 -0.0936  0.0221 -0.1973
  406TIP3    H1 1182   0.859   2.592   4.503  0.2759  0.9966  0.5815
  406TIP3    H2 1183   0.840   2.478   4.601 -0.5621 -0.7517 -1.5235
  407TIP3   OH2 1184   5.638   6.783   3.302 -0.4341  0.1733 -0.3541
  407TIP3    H1 1185   5.653   6.868   3.344  2.5608 -0.1364 -0.5811
  407TIP3    H2 1186   5.593   6.732   3.368 -0.3953  1.2841  0.5729
  408TIP3   OH2 1187   3.650   5.651   4.771 -0.1762  0.2892  0.1588
  408TIP3    H1 1188   3.721   5.694   4.724  0.3386  1.3090  1.8207
  408TIP3    H2 1189   3.678   5.649   4.862 -2.4239  1.0413  0.9339
  409TIP3   OH2 1190   5.072   3.694   0.713  0.9967 -0.4717 -0.3164
  409TIP3    H1 1191   5.116   3.771   0.750  1.7977 -1.4547  0.8920
  409TIP3    H2 1192   4.996   3.729   0.668  1.5418  1.0609 -0.1204
  410TIP3   OH2 1193   5.582   2.392   5.730  0.9480  0.0679 -0.0208
  410TIP3    H1 1194   5.551   2.322   5.673  0.8751 -0.5818  0.7924
  410TIP3    H2 1195   5.670   2.365   5.755  0.7097 -0.0238  0.7482
  411TIP3   OH2 1196   1.371   6.076   3.452 -0.4692  0.3158  0.5394
  411TIP3    H1 1197   1.427   6.075   3.530  2.6338  1.8139 -1.4823
  411TIP3    H2 1198   1.289   6.116   3.482  0.3520  0.2509  3.1321
  412TIP3   OH2 1199   6.825   1.019   5.752 -0.3824  0.1724  0.2665
  412TIP3    H1 1200   6.752   1.073   5.722 -0.3380  0.2465  0.2917
  412TIP3    H2 1201   6.888   1.023   5.681 -0.2320  0.4330  0.4130
  413TIP3   OH2 1202   5.920   5.587   2.626 -0.1315  0.7792 -0.0646
  413TIP3    H1 1203   5.863   5.650   2.670 -0.3648  1.6333 -1.5192
  413TIP3    H2 1204   5.865   5.547   2.559 -0.1499 -1.4615  1.2049
  414TIP3   OH2 1205   3.042   1.074   2.587 -0.0686 -1.2966  0.2357
  414TIP3    H1 1206   3.070   1.034   2.669 -1.4976  0.3063  1.5819
  414TIP3    H2 1207   2.947   1.065   2.588 -0.2261  0.0790 -0.5043
  415TIP3   OH2 1208   4.122   5.254   3.285  0.5040  0.4833 -0.1012
  415TIP3    H1 1209   4.135   5.313   3.359 -1.1916  0.2385  0.4407
  415TIP3    H2 1210   4.162   5.299   3.210  1.2640  1.2413  0.7393
  416TIP3   OH2 1211   0.200   1.232   4.016 -0.2286 -0.1132 -0.3227
  416TIP3    H1 1212   0.125   1.196   3.969 -0.4334 -0.1924  0.0620
  416TIP3    H2 1213   0.188   1.204   4.107  0.4314 -0.3917 -0.3121
  417TIP3   OH2 1214   0.697   5.665   2.604  0.3201 -0.5844  0.3195
  417TIP3    H1 1215   0.787   5.685   2.579  0.2434 -0.2369  0.3114
  417TIP3    H2 1216   0.647   5.678   2.524  0.0084  0.9682  0.7426
  418TIP3   OH2 1217   4.291   2.079   0.414 -0.1050  0.3277  0.7425
  418TIP3    H1 1218   4.252   1.996   0.442 -0.2442  0.7620  1.9220
  418TIP3    H2 1219   4.381   2.056   0.390 -0.3761 -0.2867  0.2885
  419TIP3   OH2 1220   0.961   2.877   4.795  0.1323  0.1353  0.6311
  419TIP3    H1 1221   0.887   2.884   4.734  0.8189  0.1480 -0.2086
  419TIP3    H2 1222   0.986   2.785   4.791 -0.4727 -0.0942  1.6903
  420TIP3   OH2 1223   2.253   4.406   0.624 -0.1891  0.0913 -0.2224
  420TIP3    H1 1224   2.257   4.353   0.704  1.6369  0.4398 -0.0537
  420TIP3    H2 1225   2.265   4.496   0.654 -0.8617  0.3737 -0.7693
  421TIP3   OH2 1226   3.818   6.359   4.392 -0.3559  0.6393  0.2585
  421TIP3    H1 1227   3.873   6.297   4.345 -0.3937  0.9768 -0.2361
  421TIP3    H2 1228   3.779   6.414   4.324  0.5245  1.9142  0.7435
  422TIP3   OH2 1229   6.213   5.279   5.044  0.2531  0.1744  0.0995
  422TIP3    H1 1230   6.264   5.203   5.014  0.1467  0.0671  0.1875
  422TIP3    H2 1231   6.154   5.298   4.970 -1.5765 -1.4823  1.0361
  423TIP3   OH2 1232   3.842   4.687   4.968  0.0390  0.0356  0.8411
  423TIP3    H1 1233   3.923   4.636   4.972 -1.2782 -2.1555  1.0139
  423TIP3    H2 1234   3.780   4.638   5.021 -1.7511  1.0542 -0.2136
  424TIP3   OH2 1235   6.868   6.574   0.046  0.0782 -0.5435  0.1657
  424TIP3    H1 1236   6.908   6.544  -0.036  1.5315 -0.3078  0.7449
  424TIP3    H2 1237   6.823   6.497   0.081 -3.2514  0.1073 -2.3112
  425TIP3   OH2 1238   4.868   2.848   4.391  0.2681  0.3254 -0.2931
  425TIP3    H1 1239   4.938   2.783   4.394  0.4456  0.5564  2.2471
  425TIP3    H2 1240   4.905   2.925   4.433 -1.1011  0.8858 -0.0852
  426TIP3   OH2 1241   5.370   2.439   4.563  0.3003 -0.4404  0.0573
  426TIP3    H1 1242   5.313   2.413   4.635  1.1212  1.4937  1.5018
  426TIP3    H2 1243   5.349   2.532   4.549  1.0853 -0.4498 -1.3280
  427TIP3   OH2 1244   0.490   0.156   3.107 -0.0480 -0.8941  0.2660
  427TIP3    H1 1245   0.528   0.194   3.028 -0.0772 -1.8240 -0.2131
  427TIP3    H2 1246   0.397   0.178   3.102 -0.0706 -1.0567 -0.0223
  428TIP3   OH2 1247   3.563   1.361   4.579  0.1371  0.2040  0.1885
  428TIP3    H1 1248   3.654   1.349   4.609  0.7040  1.8861 -0.7264
  428TIP3    H2 1249   3.548   1.286   4.521  0.4917 -0.7634  1.2937
  429TIP3   OH2 1250   4.877   0.904   2.215 -0.3541 -0.4028 -0.2429
  429TIP3    H1 1251   4.939   0.884   2.144  0.7956 -1.4604  0.9964
  429TIP3    H2 1252   4.793   0.872   2.184 -0.3398  1.1330 -2.0090
  430TIP3   OH2 1253   4.198   2.251   3.351 -0.7629 -0.5403 -0.0004
  430TIP3    H1 1254   4.229   2.161   3.347  1.1731  0.0523  0.5321
  430TIP3    H2 1255   4.247   2.297   3.283 -0.5314  0.4213  0.7924
  431TIP3   OH2 1256   1.979   0.173   5.561  0.4519  0.4221 -0.9475
  431TIP3    H1 1257   1.938   0.104   5.508  3.0280 -1.8645 -0.2307
  431TIP3    H2 1258   1.948   0.155   5.650  1.0726  0.2353 -0.7679
  432TIP3   OH2 1259   1.787   0.358   4.595  0.3898 -0.0119 -0.4065
  432TIP3    H1 1260   1.862   0.356   4.535 -0.2460  0.5531 -1.2459
  432TIP3    H2 1261   1.819   0.404   4.672  0.4237  1.8557 -1.4721
  433TIP3   OH2 1262   0.745   2.466   1.381  0.0776  0.1239  0.1136
  433TIP3    H1 1263   0.719   2.453   1.472  1.7612 -1.5207  0.4469
  433TIP3    H2 1264   0.782   2.554   1.379  1.5925 -0.4111  1.5026
  434TIP3   OH2 1265   5.800   0.485   4.277 -0.1867  0.2088 -0.1950
  434TIP3    H1 1266   5.748   0.428   4.221 -0.5580  0.0310  0.3285
  434TIP3    H2 1267   5.847   0.426   4.334  0.0975  0.3969 -0.2326
  435TIP3   OH2 1268   5.173   1.175   2.494  0.4472  0.3259  0.1019
  435TIP3    H1 1269   5.158   1.080   2.496  3.0901 -0.2080 -0.6710
  435TIP3    H2 1270   5.089   1.212   2.469 -0.8451 -1.7472  1.0829
  436TIP3   OH2 1271   5.578   0.404   1.170 -0.3108  0.2145  0.1024
  436TIP3    H1 1272   5.644   0.467   1.144 -0.2679  0.7564  1.4194
  436TIP3    H2 1273   5.606   0.322   1.131 -0.4510  1.0080 -1.7739
  437TIP3   OH2 1274   2.367   3.061   4.188  0.3885  0.4834 -0.2907
  437TIP3    H1 1275   2.431   2.992   4.169 -0.2369 -0.0361 -0.5258
  437TIP3    H2 1276   2.317   3.071   4.107 -1.2555 -0.6445  0.5504
  438TIP3   OH2 1277   4.515   0.383   2.141  0.4990  0.3754 -0.0853
  438TIP3    H1 1278   4.568   0.321   2.091 -0.7411  0.8404 -2.0559
  438TIP3    H2 1279   4.560   0.389   2.225  1.5866 -1.9099 -0.4083
  439TIP3   OH2 1280   6.681   3.163   1.210  0.5604  0.3695 -0.1701
  439TIP3    H1 1281   6.710   3.223   1.141 -0.2898 -0.4815 -1.2884
  439TIP3    H2 1282   6.595   3.197   1.236 -0.0478 -0.4889 -0.9983
  440TIP3   OH2 1283   0.409   5.732   3.533  0.1321 -0.2990 -0.0660
  440TIP3    H1 1284   0.330   5.786   3.532  0.8946  0.8527 -0.7722
  440TIP3    H2 1285   0.463   5.770   3.602  0.2949 -0.7474  0.0551
  441TIP3   OH2 1286   0.047   3.979   1.610  0.1995 -0.2269  0.0682
  441TIP3    H1 1287   0.092   3.976   1.526 -0.5458  0.0357 -0.3543
  441TIP3    H2 1288   0.012   4.068   1.616 -1.7335 -0.9043 -0.4363
  442TIP3   OH2 1289   3.176   2.475   3.821  0.2593  0.0029 -0.3579
  442TIP3    H1 1290   3.247   2.421   3.856 -2.5764 -2.2638  2.5938
  442TIP3    H2 1291   3.176   2.554   3.875 -0.2152 -0.6060  0.5580
  443TIP3   OH2 1292   3.446   3.754   0.622 -0.3464 -0.0308  0.0917
  443TIP3    H1 1293   3.527   3.731   0.668 -0.3622 -1.2549 -0.4452
  443TIP3    H2 1294   3.390   3.792   0.689  0.5287  0.4913  0.5477
  444TIP3   OH2 1295   5.369   4.305   1.031  0.0902  0.0024 -0.4646
  444TIP3    H1 1296   5.287   4.257   1.020  0.9063 -1.2072 -1.6061
  444TIP3    H2 1297   5.437   4.239   1.016  1.2504  1.5202 -2.1820
  445TIP3   OH2 1298   7.039   0.743   1.258 -0.2564  0.3312 -0.5385
  445TIP3    H1 1299   7.019   0.655   1.288 -0.0527  0.1871 -0.8185
  445TIP3    H2 1300   7.016   0.742   1.165 -0.5111  0.6558 -0.4817
  446TIP3   OH2 1301   4.798   0.510   1.722 -0.2764 -0.1619 -0.1388
  446TIP3    H1 1302   4.758   0.585   1.766 -0.5368  0.5028 -1.4764
  446TIP3    H2 1303   4.733   0.480   1.659  1.5515  1.5433 -3.0607
  447TIP3   OH2 1304   6.978   1.338   0.265  0.1055  0.0190  0.0178
  447TIP3    H1 1305   7.032   1.259   0.264  0.4429  0.2280  0.8100
  447TIP3    H2 1306   6.965   1.360   0.173  2.1436  0.5015 -0.1938
  448TIP3   OH2 1307   5.352   1.223   1.088  0.1033  0.1128  0.4251
  448TIP3    H1 1308   5.398   1.262   1.014  1.2397  0.9234  1.5178
  448TIP3    H2 1309   5.267   1.197   1.053  1.2146 -1.0642 -1.5631
  449TIP3   OH2 1310   0.035   0.563   4.596 -0.3542 -0.4639 -0.4364
  449TIP3    H1 1311   0.045   0.564   4.501 -0.0305  0.4726 -0.4104
  449TIP3    H2 1312   0.016   0.654   4.618  3.4538  0.2138  0.7474
  450TIP3   OH2 1313   2.467   6.659   3.637 -0.4515  0.1206 -0.3155
  450TIP3    H1 1314   2.471   6.752   3.612 -0.4016  0.6291  1.4889
  450TIP3    H2 1315   2.551   6.643   3.679  0.3783 -1.3267 -2.3519
  451TIP3   OH2 1316   6.004   5.023   5.563 -0.5587  0.1954  0.1590
  451TIP3    H1 1317   5.912   5.048   5.569 -0.7290 -0.4625  0.3056
  451TIP3    H2 1318   6.004   4.928   5.568  0.0143  0.0871 -1.2829
  452TIP3   OH2 1319   4.628   6.099   2.922  0.1381 -0.2982 -0.1652
  452TIP3    H1 1320   4.624   6.101   2.827 -0.9654 -1.0575 -0.1529
  452TIP3    H2 1321   4.721   6.092   2.942  0.3227 -1.2005 -1.2187
  453TIP3   OH2 1322   4.078   5.232   2.619  0.5652 -0.2667  0.0609
  453TIP3    H1 1323   4.018   5.287   2.670  0.6746  2.2235 -2.2760
  453TIP3    H2 1324   4.022   5.168   2.575 -0.5387  2.0307 -2.1062
  454TIP3   OH2 1325   2.219   0.900   5.331 -0.4200 -0.1079  0.1118
  454TIP3    H1 1326   2.178   0.974   5.375  0.7721  0.8590 -0.3575
  454TIP3    H2 1327   2.253   0.936   5.249  0.4177 -1.1149 -0.0074
  455TIP3   OH2 1328   1.954   6.129   0.059 -0.1042  0.4212  0.3457
  455TIP3    H1 1329   1.915   6.051   0.100 -0.4799 -1.1576 -2.7439
  455TIP3    H2 1330   2.048   6.114   0.066 -0.1629 -0.7710 -0.8514
  456TIP3   OH2 1331   0.753   3.368   2.477 -0.1539  0.4130 -0.4898
  456TIP3    H1 1332   0.720   3.285   2.442  1.7286  0.4018 -2.3948
  456TIP3    H2 1333   0.844   3.371   2.450  0.1053  2.6567  0.4347
  457TIP3   OH2 1334   6.515   3.967   0.835 -0.6046 -0.4564 -0.6593
  457TIP3    H1 1335   6.586   3.946   0.895  0.0818 -0.7340 -1.5533
  457TIP3    H2 1336   6.439   3.922   0.872  0.0859 -1.7075 -0.6951
  458TIP3   OH2 1337   6.033   2.461   2.714 -0.2031  0.0009  0.0670
  458TIP3    H1 1338   6.047   2.371   2.683 -1.2072 -0.3534  0.5933
  458TIP3    H2 1339   6.012   2.510   2.635 -2.9103 -0.9304  0.1127
  459TIP3   OH2 1340   0.329   2.086   1.258 -0.4345  0.2650 -0.6477
  459TIP3    H1 1341   0.375   2.130   1.329 -1.0725 -1.2608  0.7698
  459TIP3    H2 1342   0.248   2.135   1.248  0.5639  1.7719 -1.8262
  460TIP3   OH2 1343   3.540   5.129   4.354 -0.1191 -0.3131 -0.1694
  460TIP3    H1 1344   3.616   5.174   4.318  1.0956 -1.3707  0.9729
  460TIP3    H2 1345   3.519   5.063   4.288  1.3860 -1.4882  0.4625
  461TIP3   OH2 1346   0.409   4.200   1.964 -0.1679  0.4080 -0.5302
  461TIP3    H1 1347   0.443   4.247   2.040 -1.2603  2.9430 -1.4633
  461TIP3    H2 1348   0.314   4.216   1.967 -0.7080 -2.3755 -0.5948
  462TIP3   OH2 1349   4.346   1.511   5.538 -0.1243  0.0929 -0.2451
  462TIP3    H1 1350   4.437   1.515   5.507 -0.0966 -0.4456 -0.2400
  462TIP3    H2 1351   4.342   1.431   5.589 -0.8005 -0.3017 -0.8994
  463TIP3   OH2 1352   0.629   1.591   0.843  0.1161 -0.7457  0.0522
  463TIP3    H1 1353   0.713   1.549   0.825  0.0356 -0.1713 -1.8127
  463TIP3    H2 1354   0.602   1.628   0.760 -1.4809  0.0302  0.8714
  464TIP3   OH2 1355   1.494   1.860   2.149  0.2314 -0.3445  0.4209
  464TIP3    H1 1356   1.571   1.804   2.143 -0.3394 -1.2483  1.1343
  464TIP3    H2 1357   1.425   1.802   2.182 -0.5924  0.5924  0.4012
  465TIP3   OH2 1358   1.361   1.673   0.758 -0.3592  0.0577  0.1205
  465TIP3    H1 1359   1.423   1.669   0.685  0.1692 -0.8093  0.6001
  465TIP3    H2 1360   1.317   1.588   0.756 -1.1287  0.4432  0.1530
  466TIP3   OH2 1361   6.239   4.862   1.046 -0.1104 -0.8328 -0.5459
  466TIP3    H1 1362   6.304   4.823   0.987  0.7203  0.1521 -0.3308
  466TIP3    H2 1363   6.259   4.824   1.131 -0.3856 -1.1897 -0.6409
  467TIP3   OH2 1364   1.901   1.447   5.856 -0.2811 -0.1866  0.5509
  467TIP3    H1 1365   1.810   1.454   5.825 -0.0001 -0.9977 -0.5069
  467TIP3    H2 1366   1.948   1.406   5.783  1.5345  2.6894 -0.0169
  468TIP3   OH2 1367   3.775   5.689   4.485  0.2239  0.1764  0.4060
  468TIP3    H1 1368   3.753   5.779   4.509 -0.9031 -0.1067  0.4869
  468TIP3    H2 1369   3.852   5.697   4.428 -0.3483  1.2509 -0.2320
  469TIP3   OH2 1370   4.692   1.952   3.509 -0.8573  0.3447  0.4915
  469TIP3    H1 1371   4.756   1.941   3.579 -0.7469 -0.5039  0.2684
  469TIP3    H2 1372   4.713   2.037   3.470  0.1226  0.0912  0.4376
  470TIP3   OH2 1373   4.254   4.540   2.705 -0.4479  0.4238 -0.4017
  470TIP3    H1 1374   4.255   4.471   2.772 -2.2669 -0.0248 -0.7856
  470TIP3    H2 1375   4.344   4.572   2.702 -0.1483 -0.0722  1.7192
  471TIP3   OH2 1376   5.490   4.977   4.765  1.0630  0.1974  0.0997
  471TIP3    H1 1377   5.493   4.882   4.752  0.1267  0.4690 -3.0766
  471TIP3    H2 1378   5.582   5.002   4.778  1.5904 -0.9877 -1.0561
  472TIP3   OH2 1379   2.539   4.079   4.842  0.3966  0.0961  0.1132
  472TIP3    H1 1380   2.522   4.008   4.904  1.2739  1.3953  1.9373
  472TIP3    H2 1381   2.497   4.051   4.761 -2.7722 -0.7066  1.8867
  473TIP3   OH2 1382   4.619   1.653   4.786  0.5924 -0.5725  0.2847
  473TIP3    H1 1383   4.561   1.662   4.862  0.6390  0.8952  0.1763
  473TIP3    H2 1384   4.607   1.563   4.757 -0.0781 -0.8997  1.5136
  474TIP3   OH2 1385   3.573   0.508   5.116 -0.1775  0.6712  0.2455
  474TIP3    H1 1386   3.536   0.428   5.153 -0.1238  1.0841  1.2104
  474TIP3    H2 1387   3.590   0.565   5.191  1.5429  0.8736 -0.2386
  475TIP3   OH2 1388   1.123   5.604   0.620  0.2625  0.2571  0.2483
  475TIP3    H1 1389   1.141   5.587   0.713 -1.8236  1.3520  0.9238
  475TIP3    H2 1390   1.110   5.698   0.615 -0.9372  0.0563 -0.8851
  476TIP3   OH2 1391   5.335   3.160   1.821  0.2141  0.0361  0.5437
  476TIP3    H1 1392   5.403   3.098   1.845 -1.0680 -1.9186 -0.5305
  476TIP3    H2 1393   5.331   3.222   1.893  4.4122  1.4793 -0.1984
  477TIP3   OH2 1394   4.777   3.877   1.653  0.6761 -0.2065  0.1757
  477TIP3    H1 1395   4.868   3.889   1.682  0.3931  2.0564  0.2817
  477TIP3    H2 1396   4.747   3.965   1.632 -1.4776 -0.9300  0.0301
  478TIP3   OH2 1397   6.035   1.454   1.042  0.4223  0.1545 -0.3039
  478TIP3    H1 1398   5.954   1.436   1.089  1.4903  1.1120  2.0232
  478TIP3    H2 1399   6.012   1.523   0.980 -0.6787 -0.0195 -0.0995
  479TIP3   OH2 1400   6.830   5.333   2.037 -0.0694 -0.3767 -0.2680
  479TIP3    H1 1401   6.880   5.347   1.957  0.6214  0.3006  0.2627
  479TIP3    H2 1402   6.759   5.397   2.032 -0.5864 -0.9693 -0.7633
  480TIP3   OH2 1403   1.231   2.712   2.442 -0.5414 -0.1781  0.0905
  480TIP3    H1 1404   1.214   2.658   2.519 -1.3912  0.0483  0.0690
  480TIP3    H2 1405   1.224   2.802   2.473  1.8193 -0.0167  0.3450
  481TIP3   OH2 1406   2.694   5.082   5.465 -0.2433  0.2067  0.1136
  481TIP3    H1 1407   2.776   5.090   5.513 -0.0455 -1.4180  0.1091
  481TIP3    H2 1408   2.636   5.035   5.525 -1.2922  1.5768  0.2308
  482TIP3   OH2 1409   0.964   4.885   4.438 -0.0514  0.5398  0.3242
  482TIP3    H1 1410   0.930   4.972   4.458  2.0609  0.9975  2.2858
  482TIP3    H2 1411   0.936   4.830   4.510  0.3505  0.0897  0.1468
  483TIP3   OH2 1412   6.487   4.141   1.214 -0.1365 -0.3252  0.0230
  483TIP3    H1 1413   6.527   4.209   1.267 -1.4341 -0.1132  0.7565
  483TIP3    H2 1414   6.515   4.160   1.125  0.5306  0.4204  0.3882
  484TIP3   OH2 1415   0.206   3.534   2.628  0.4821 -0.3207  0.8884
  484TIP3    H1 1416   0.251   3.502   2.705 -2.1158 -0.2810  2.5447
  484TIP3    H2 1417   0.161   3.613   2.657 -0.2936 -0.1041 -0.7530
  485TIP3   OH2 1418   3.705   3.712   5.375 -0.0273  0.3474  0.3121
  485TIP3    H1 1419   3.648   3.635   5.378  0.8329 -0.3005  0.2253
  485TIP3    H2 1420   3.681   3.756   5.293 -0.8301  0.4278  0.5752
  486TIP3   OH2 1421   4.665   2.019   1.301 -0.3508 -0.4406 -0.7474
  486TIP3    H1 1422   4.569   2.022   1.294 -0.2613  0.6753 -1.6872
  486TIP3    H2 1423   4.683   2.053   1.389 -0.7951 -0.4088 -0.6632
  487TIP3   OH2 1424   3.562   2.227   5.622 -0.1094 -0.3104 -0.1835
  487TIP3    H1 1425   3.467   2.225   5.612 -0.3014 -1.6334  1.4601
  487TIP3    H2 1426   3.582   2.317   5.647 -1.1098 -0.3562  0.8723
  488TIP3   OH2 1427   5.820   4.634   2.686  0.2424  1.0435  0.3480
  488TIP3    H1 1428   5.839   4.611   2.777 -1.4226 -1.4232  0.1596
  488TIP3    H2 1429   5.758   4.707   2.692  1.2488  1.8751  1.1060
  489TIP3   OH2 1430   4.787   4.951   5.078 -0.5160 -0.7143  0.4619
  489TIP3    H1 1431   4.843   4.966   5.001  0.0770  3.6338  1.4933
  489TIP3    H2 1432   4.698   4.969   5.047 -0.5344 -0.9876  0.3522
  490TIP3   OH2 1433   1.819   2.916   1.113  0.6287  0.4040 -0.1105
  490TIP3    H1 1434   1.825   2.861   1.191 -0.2351 -0.1002 -0.3912
  490TIP3    H2 1435   1.774   2.995   1.143  0.2712  0.1986 -0.0963
  491TIP3   OH2 1436   7.020   6.205   4.205  0.7443  0.1472  0.0866
  491TIP3    H1 1437   7.059   6.288   4.181  1.1561 -0.2588 -0.6870
  491TIP3    H2 1438   7.043   6.192   4.297  0.3522  1.0592  0.3178
  492TIP3   OH2 1439   2.259   0.532   2.790 -0.1543  0.3061 -0.0075
  492TIP3    H1 1440   2.253   0.443   2.754 -1.0595  0.6883 -0.8213
  492TIP3    H2 1441   2.328   0.525   2.857  0.0872 -0.9057 -0.3464
  493TIP3   OH2 1442   5.090   0.074   3.200 -0.4572  1.0000 -0.6302
  493TIP3    H1 1443   5.094   0.150   3.142  0.4699  1.0703 -0.4899
  493TIP3    H2 1444   5.146   0.008   3.158  0.5047  1.1709  0.3291
  494TIP3   OH2 1445   3.662   2.353   0.620 -0.1600 -0.0268 -0.5665
  494TIP3    H1 1446   3.600   2.419   0.652 -1.0238 -0.4228 -1.3827
  494TIP3    H2 1447   3.685   2.382   0.532 -0.2762 -0.6206 -0.7993
  495TIP3   OH2 1448   5.362   6.598   4.302  0.0599 -0.3265  1.0413
  495TIP3    H1 1449   5.267   6.613   4.304  0.1600  0.3132  0.9246
  495TIP3    H2 1450   5.380   6.570   4.212  0.1045  0.3686  0.8304
  496TIP3   OH2 1451   5.725   0.417   0.170 -0.3283 -0.3025  0.3328
  496TIP3    H1 1452   5.656   0.351   0.171 -1.2051  0.5339 -1.0037
  496TIP3    H2 1453   5.719   0.460   0.254 -1.8245  0.1230  0.0292
  497TIP3   OH2 1454   1.080   5.017   3.161 -0.6429  0.2853  0.3781
  497TIP3    H1 1455   1.155   5.055   3.115 -0.5798  2.5734  2.1817
  497TIP3    H2 1456   1.116   4.984   3.243 -1.4928  0.9567  1.0475
  498TIP3   OH2 1457   1.999   1.865   4.708  0.5969  0.0969 -0.2086
  498TIP3    H1 1458   2.001   1.889   4.801  0.2939  0.1125 -0.2064
  498TIP3    H2 1459   1.919   1.812   4.699 -0.3372  1.5596 -0.8261
  499TIP3   OH2 1460   6.493   4.072   4.867 -0.1032  0.0724 -0.0684
  499TIP3    H1 1461   6.431   4.091   4.797  0.1557  0.5349 -0.1734
  499TIP3    H2 1462   6.458   3.993   4.908 -0.8560  0.4264 -0.0110
  500TIP3   OH2 1463   4.910   1.352   0.204 -0.1030 -0.1160  0.3092
  500TIP3    H1 1464   4.889   1.387   0.290 -2.6754 -0.0608 -0.2682
  500TIP3    H2 1465   4.888   1.259   0.210 -1.0222  0.0357 -0.4829
  501TIP3   OH2 1466   7.123   5.170   5.751 -0.2781  1.1558  0.4518
  501TIP3    H1 1467   7.114   5.093   5.808 -0.5280  0.7656 -0.1052
  501TIP3    H2 1468   7.044   5.170   5.698 -0.2677  1.7904  0.4248
  502TIP3   OH2 1469   3.417   4.458   3.862 -0.1451 -0.0122  0.0559
  502TIP3    H1 1470   3.392   4.477   3.772 -0.9559 -1.0093  0.0564
  502TIP3    H2 1471   3.448   4.368   3.860  0.9864  0.3458  0.5648
  503TIP3   OH2 1472   5.800   6.283   0.974  0.6428  0.2941  0.0460
  503TIP3    H1 1473   5.724   6.241   1.014  0.4788  0.5313 -0.0134
  503TIP3    H2 1474   5.764   6.330   0.898  0.9514 -0.1627 -0.3923
  504TIP3   OH2 1475   6.235   6.597   0.187 -0.4748 -0.1251 -0.1624
  504TIP3    H1 1476   6.242   6.630   0.097  0.0011  1.4423  0.4263
  504TIP3    H2 1477   6.254   6.503   0.179 -3.3683 -0.7099 -2.1245
  505TIP3   OH2 1478   1.419   2.944   1.932  0.2705  0.2756  0.4325
  505TIP3    H1 1479   1.455   2.867   1.888  0.8494  1.1817 -0.7174
  505TIP3    H2 1480   1.494   3.002   1.946 -0.0548  0.4016  1.8389
  506TIP3   OH2 1481   7.008   1.212   0.002  0.0629  0.3878  0.2170
  506TIP3    H1 1482   6.979   1.140   0.058  2.0704 -0.1194  0.6772
  506TIP3    H2 1483   7.084   1.177  -0.044 -0.1966  1.5436 -1.1428
  507TIP3   OH2 1484   4.828   4.625   4.056 -0.6089 -0.3623 -0.4786
  507TIP3    H1 1485   4.921   4.640   4.045 -0.3898 -2.3321 -1.7866
  507TIP3    H2 1486   4.821   4.573   4.136 -0.5588 -0.5399 -0.5907
  508TIP3   OH2 1487   6.785   4.098   3.678 -0.0167  0.1378  0.7074
  508TIP3    H1 1488   6.765   4.174   3.623 -0.1374 -0.8662 -0.6854
  508TIP3    H2 1489   6.824   4.135   3.757 -2.2423  1.8199  1.1191
  509TIP3   OH2 1490   0.047   1.403   3.282 -0.2690  0.5893 -0.0626
  509TIP3    H1 1491  -0.016   1.336   3.256 -1.0541  2.0994 -2.3619
  509TIP3    H2 1492  -0.005   1.482   3.292  1.2506  2.0786 -2.7926
  510TIP3   OH2 1493   0.387   4.655   0.175 -0.1095  0.4562 -0.0583
  510TIP3    H1 1494   0.401   4.679   0.266  0.4888 -0.9494  0.2561
  510TIP3    H2 1495   0.473   4.666   0.134 -0.4794  1.5388 -0.5896
  511TIP3   OH2 1496   2.718   6.006   2.971 -0.4576 -0.0578  0.1140
  511TIP3    H1 1497   2.771   5.933   2.940  1.7304  1.3411  0.3225
  511TIP3    H2 1498   2.656   6.023   2.901  0.9184 -0.3183 -1.2125
  512TIP3   OH2 1499   0.565   2.721   2.495 -0.1177 -0.3096  0.1729
  512TIP3    H1 1500   0.621   2.799   2.502  0.4234 -0.6944  0.1807
  512TIP3    H2 1501   0.537   2.720   2.404  0.7905 -0.7244 -0.1105
  513TIP3   OH2 1502   1.956   0.477   5.675 -0.4361 -0.2861 -0.1944
  513TIP3    H1 1503   1.941   0.572   5.674  1.9368  0.1325  0.1171
  513TIP3    H2 1504   1.959   0.454   5.767 -0.0514 -0.5129 -0.2652
  514TIP3   OH2 1505   3.899   4.264   2.840 -0.1081  0.2467  0.2107
  514TIP3    H1 1506   3.862   4.184   2.802  2.2347 -2.1969  2.5586
  514TIP3    H2 1507   3.833   4.293   2.903 -0.9053  0.0191 -0.5134
  515TIP3   OH2 1508   2.623   2.072   3.205  0.6587  0.0208 -0.2027
  515TIP3    H1 1509   2.717   2.055   3.214  0.8019  1.2703  0.9729
  515TIP3    H2 1510   2.615   2.167   3.214 -0.8876 -0.2266  1.4401
  516TIP3   OH2 1511   2.087   5.181   4.272  0.2167 -0.2139 -0.7170
  516TIP3    H1 1512   2.090   5.254   4.209 -1.8690  1.0925  0.5488
  516TIP3    H2 1513   2.028   5.117   4.232 -0.3779  0.2018 -0.5195
  517TIP3   OH2 1514   2.923   4.000   4.610 -0.2408 -0.4263  0.5052
  517TIP3    H1 1515   2.963   4.058   4.675 -0.0860 -0.9191  0.8578
  517TIP3    H2 1516   2.954   3.913   4.634  0.1974 -0.5602 -0.5213
  518TIP3   OH2 1517   0.801   4.891   3.659  0.1571 -0.5497 -0.0621
  518TIP3    H1 1518   0.707   4.905   3.658  0.4580  1.8089 -0.7849
  518TIP3    H2 1519   0.817   4.841   3.739 -1.7036 -1.2592 -0.0922
  519TIP3   OH2 1520   2.194   1.685   1.658  0.6680  0.8861 -0.0598
  519TIP3    H1 1521   2.233   1.613   1.708  1.7702  1.5590  0.0871
  519TIP3    H2 1522   2.123   1.644   1.608  2.0410 -0.5483 -0.9148
  520TIP3   OH2 1523   4.601   5.562   0.914  0.1850  0.6683  0.0176
  520TIP3    H1 1524   4.688   5.600   0.927  0.4369  0.7728 -1.7717
  520TIP3    H2 1525   4.560   5.619   0.849 -1.0688  0.3447  0.4928
  521TIP3   OH2 1526   1.238   3.839   2.286 -0.2284 -0.4886  0.2153
  521TIP3    H1 1527   1.156   3.864   2.328 -0.2250 -0.5084  0.2339
  521TIP3    H2 1528   1.303   3.899   2.323 -0.7448  1.6753 -2.1141
  522TIP3   OH2 1529   0.092   3.725   4.914 -0.3948 -0.3727 -0.2871
  522TIP3    H1 1530   0.158   3.780   4.957 -1.1959  0.4973 -0.1317
  522TIP3    H2 1531   0.134   3.639   4.905  1.3370  0.5513 -1.6434
  523TIP3   OH2 1532   3.853   3.794   0.364 -0.0357 -0.3534  0.0167
  523TIP3    H1 1533   3.873   3.701   0.376  1.4224 -0.2148 -1.0903
  523TIP3    H2 1534   3.828   3.824   0.452 -0.8812 -1.8477  0.3220
  524TIP3   OH2 1535   2.840   4.923   2.218  0.3799  0.3663 -0.3423
  524TIP3    H1 1536   2.852   4.830   2.235 -0.6346  0.1604 -0.7043
  524TIP3    H2 1537   2.792   4.955   2.295  1.3849  0.7654  0.1454
  525TIP3   OH2 1538   2.343   5.557   5.068 -0.6397 -0.4188 -0.1187
  525TIP3    H1 1539   2.412   5.513   5.018 -0.0512  0.5005 -0.1265
  525TIP3    H2 1540   2.313   5.490   5.129  0.2024 -0.8726 -0.1776
  526TIP3   OH2 1541   7.115   1.395   1.267  0.1305 -0.3106  0.4564
  526TIP3    H1 1542   7.060   1.321   1.243 -1.2321  0.7503  0.1903
  526TIP3    H2 1543   7.061   1.472   1.251  0.7282  0.6702  2.7632
  527TIP3   OH2 1544   5.838   1.662   0.536 -0.2318 -0.2134 -0.1487
  527TIP3    H1 1545   5.911   1.630   0.483 -0.1030 -1.5527  0.8097
  527TIP3    H2 1546   5.766   1.674   0.473  0.3868 -0.2185 -0.8705
  528TIP3   OH2 1547   3.533   4.369   0.609 -0.0673 -0.3119  0.1616
  528TIP3    H1 1548   3.454   4.321   0.633 -0.9810 -0.0533 -2.0843
  528TIP3    H2 1549   3.505   4.460   0.601  0.2034 -0.3294 -1.4444
  529TIP3   OH2 1550   2.366   1.327   0.574 -0.1631 -0.3723 -0.4445
  529TIP3    H1 1551   2.354   1.391   0.644 -0.1451 -0.2722 -0.5312
  529TIP3    H2 1552   2.364   1.379   0.494  0.3147 -0.4199 -0.4912
  530TIP3   OH2 1553   4.550   5.564   1.952 -0.1690  0.3574 -0.2026
  530TIP3    H1 1554   4.528   5.482   1.909  0.3335  0.3800 -0.5042
  530TIP3    H2 1555   4.490   5.628   1.914  0.1201  0.3327 -0.7105
  531TIP3   OH2 1556   4.418   2.766   5.753 -0.0663  0.5069 -0.5380
  531TIP3    H1 1557   4.491   2.724   5.708 -0.8198 -2.1535  0.5481
  531TIP3    H2 1558   4.345   2.762   5.691  0.6990  3.7764 -1.8954
  532TIP3   OH2 1559   4.083   5.609   2.843  0.0622  0.5912  0.1290
  532TIP3    H1 1560   4.177   5.592   2.837  0.1465  1.0933 -0.1124
  532TIP3    H2 1561   4.055   5.620   2.752 -0.1093  1.0473  0.2322
  533TIP3   OH2 1562   2.725   1.577   4.965  0.5580  0.0029  0.2586
  533TIP3    H1 1563   2.790   1.586   4.895 -0.1333  0.6963 -0.3068
  533TIP3    H2 1564   2.650   1.629   4.935 -0.5791 -1.4277  0.5209
  534TIP3   OH2 1565   0.407   6.282   4.745 -0.4706  0.0242 -0.1027
  534TIP3    H1 1566   0.377   6.373   4.744 -2.8911 -0.7321 -0.4205
  534TIP3    H2 1567   0.484   6.284   4.802 -0.8768  2.1378  0.4668
  535TIP3   OH2 1568   4.640   0.563   5.044  0.3973  0.6325 -0.0656
  535TIP3    H1 1569   4.665   0.475   5.070 -1.6546  0.2212  0.7112
  535TIP3    H2 1570   4.678   0.575   4.957  2.7288 -0.0630  0.7909
  536TIP3   OH2 1571   2.479   5.774   4.504 -0.4236  0.0423  0.6370
  536TIP3    H1 1572   2.553   5.813   4.551 -1.9132  2.0744  1.4137
  536TIP3    H2 1573   2.458   5.695   4.554 -1.1277  1.4644  2.7161
  537TIP3   OH2 1574   3.321   2.698   4.355  0.1753  0.5792 -0.0631
  537TIP3    H1 1575   3.356   2.754   4.286 -1.1131  0.5246 -0.8001
  537TIP3    H2 1576   3.398   2.655   4.392  0.8449 -0.2629 -2.2348
  538TIP3   OH2 1577   5.215   4.367   3.716 -0.4496 -0.5197 -0.0121
  538TIP3    H1 1578   5.232   4.389   3.808 -0.7048 -0.0015 -0.0841
  538TIP3    H2 1579   5.196   4.274   3.717  0.7484 -0.7805  0.2958
  539TIP3   OH2 1580   6.283   5.009   5.591  0.7565 -0.0681  0.2719
  539TIP3    H1 1581   6.322   5.096   5.596  0.6225 -0.0733  1.9555
  539TIP3    H2 1582   6.195   5.024   5.557  0.1655  0.6932  2.0082
  540TIP3   OH2 1583   2.251   4.672   1.398 -0.0071 -0.2362 -0.0164
  540TIP3    H1 1584   2.229   4.761   1.425  1.8190  0.6422 -1.1971
  540TIP3    H2 1585   2.321   4.645   1.457  1.5767  0.3583 -1.5204
  541TIP3   OH2 1586   2.375   2.251   2.342 -0.1033 -0.2281  0.1707
  541TIP3    H1 1587   2.299   2.241   2.400  0.3810 -0.6835  0.7341
  541TIP3    H2 1588   2.399   2.343   2.351  0.8545 -0.6036  1.8413
  542TIP3   OH2 1589   4.012   0.170   2.909  0.5898  0.0361  0.0721
  542TIP3    H1 1590   4.043   0.248   2.956 -0.9367  0.0697  1.0875
  542TIP3    H2 1591   3.947   0.131   2.967 -0.4178 -0.6609 -1.4654
  543TIP3   OH2 1592   1.208   6.785   1.681  0.3354 -0.2115 -0.0922
  543TIP3    H1 1593   1.114   6.783   1.662  0.4565  0.6773 -0.8059
  543TIP3    H2 1594   1.249   6.753   1.600  0.7440  1.4490 -0.5615
  544TIP3   OH2 1595   4.448   1.400   4.001 -0.0277  0.1665  0.0486
  544TIP3    H1 1596   4.494   1.331   3.953 -0.1684  0.0458  0.0856
  544TIP3    H2 1597   4.473   1.387   4.093  0.5259  0.6195 -0.0332
  545TIP3   OH2 1598   2.738   5.394   1.662  0.1002  0.0364  0.5822
  545TIP3    H1 1599   2.689   5.454   1.607 -0.3046 -0.9841 -0.1884
  545TIP3    H2 1600   2.801   5.352   1.603  0.9107  0.2679  1.2647
  546TIP3   OH2 1601   5.487   3.467   2.124  0.2653  0.2533 -0.6051
  546TIP3    H1 1602   5.565   3.430   2.082 -0.8210 -1.0952 -1.4886
  546TIP3    H2 1603   5.414   3.419   2.087 -1.0863  2.0246 -0.3872
  547TIP3   OH2 1604   3.866   5.029   2.570  0.1105  0.9849 -0.2353
  547TIP3    H1 1605   3.787   5.015   2.623  1.2279  2.1290  1.8650
  547TIP3    H2 1606   3.930   4.968   2.606  0.8613  1.6937 -0.3550
  548TIP3   OH2 1607   1.054   3.526   1.170 -0.0230 -0.0406 -0.1621
  548TIP3    H1 1608   1.013   3.452   1.215 -0.3322 -0.1589 -0.6293
  548TIP3    H2 1609   1.000   3.539   1.092 -1.4453  2.2304  1.1112
  549TIP3   OH2 1610   4.400   5.061   0.110 -0.0077 -0.1619 -0.5284
  549TIP3    H1 1611   4.368   4.996   0.049 -0.0513 -0.4186 -0.2351
  549TIP3    H2 1612   4.495   5.054   0.106  0.0750  1.2998 -2.1573
  550TIP3   OH2 1613   2.939   2.474   4.226  0.5864 -0.7364  0.3930
  550TIP3    H1 1614   2.977   2.562   4.231 -0.3039 -0.2264 -1.2416
  550TIP3    H2 1615   3.014   2.417   4.213  1.2062 -0.2810  1.7504
  551TIP3   OH2 1616   0.185   2.066   5.308  0.1411 -0.2961  0.3456
  551TIP3    H1 1617   0.251   2.134   5.299  1.2787 -1.4648 -0.4993
  551TIP3    H2 1618   0.103   2.106   5.278  1.0683  0.2701 -1.5086
  552TIP3   OH2 1619   4.541   1.370   3.495  0.1523  0.2773 -0.0327
  552TIP3    H1 1620   4.475   1.308   3.463  1.5537 -0.2946 -2.0325
  552TIP3    H2 1621   4.564   1.422   3.419  2.7159 -0.2362  0.2867
  553TIP3   OH2 1622   5.665   5.781   0.685 -0.3540  0.2518  0.5493
  553TIP3    H1 1623   5.659   5.697   0.730 -0.9542  0.7491  1.4269
  553TIP3    H2 1624   5.587   5.829   0.713 -0.1152  1.0288 -0.0864
  554TIP3   OH2 1625   2.639   5.127   4.389 -0.0642 -0.0705  0.4295
  554TIP3    H1 1626   2.643   5.033   4.408 -0.2414 -0.3323 -0.7355
  554TIP3    H2 1627   2.550   5.153   4.415 -0.1038 -0.2777  0.5068
  555TIP3   OH2 1628   3.929   4.560   3.572 -0.1905  0.6086  0.1084
  555TIP3    H1 1629   3.998   4.528   3.514  1.1634  1.3797  1.2383
  555TIP3    H2 1630   3.853   4.571   3.515  0.8282  0.4407 -1.3318
  556TIP3   OH2 1631   3.979   3.654   5.332  0.4170  0.3467 -0.1970
  556TIP3    H1 1632   3.883   3.656   5.331  0.3442 -1.4495 -0.0387
  556TIP3    H2 1633   4.001   3.572   5.288  1.9004  0.7710 -0.2844
  557TIP3   OH2 1634   2.627   6.127   2.732 -0.0134  0.2849  0.1893
  557TIP3    H1 1635   2.654   6.211   2.694  0.2895 -0.5274 -1.4601
  557TIP3    H2 1636   2.588   6.079   2.659  1.0252 -1.5437  0.7753
  558TIP3   OH2 1637   1.967   3.507   4.809 -0.3078  0.0973  0.0105
  558TIP3    H1 1638   1.975   3.536   4.900 -2.2732 -0.7175  0.5093
  558TIP3    H2 1639   1.992   3.583   4.757  0.6138  0.6542  1.2247
  559TIP3   OH2 1640   5.245   2.302   4.768  0.1374  0.1053  0.4373
  559TIP3    H1 1641   5.254   2.323   4.861  3.3227  0.5220  0.1408
  559TIP3    H2 1642   5.186   2.369   4.733  0.0336  0.7972  1.8841
  560TIP3   OH2 1643   4.306   4.677   0.532 -0.4569  0.3205 -0.6243
  560TIP3    H1 1644   4.332   4.586   0.517 -0.4680  0.4420 -1.4191
  560TIP3    H2 1645   4.231   4.671   0.591  0.2603 -0.1258  0.2634
  561TIP3   OH2 1646   6.669   5.196   3.741 -0.0798  0.7927 -0.2985
  561TIP3    H1 1647   6.585   5.202   3.695  0.2898 -0.4589 -1.2011
  561TIP3    H2 1648   6.700   5.286   3.746 -1.0487  1.1699 -0.7824
  562TIP3   OH2 1649   4.430   5.685   4.189  0.0163  0.2235 -0.1259
  562TIP3    H1 1650   4.361   5.674   4.124 -0.4574 -1.1119  0.5640
  562TIP3    H2 1651   4.483   5.757   4.155 -0.6471  0.0658 -1.5987
  563TIP3   OH2 1652   4.551   4.847   1.009  0.1221  0.2445  0.2396
  563TIP3    H1 1653   4.560   4.938   1.039 -1.6636  0.6240 -0.2588
  563TIP3    H2 1654   4.537   4.797   1.089 -1.2716  0.7766  0.3578
  564TIP3   OH2 1655   7.062   3.340   5.545 -0.2392  0.1930  0.5556
  564TIP3    H1 1656   7.120   3.355   5.619  2.2545 -0.9741 -1.0169
  564TIP3    H2 1657   7.006   3.268   5.572 -1.2971  1.5741  2.2438
  565TIP3   OH2 1658   5.816   5.515   3.077 -0.4230  0.2398  0.0736
  565TIP3    H1 1659   5.768   5.502   2.995 -0.9977 -0.0915  0.4588
  565TIP3    H2 1660   5.905   5.486   3.058 -0.6581 -0.2355 -0.3093
  566TIP3   OH2 1661   0.091   3.627   3.637  0.3585  0.1191  0.3220
  566TIP3    H1 1662   0.183   3.650   3.649  0.4683 -0.6682  1.2039
  566TIP3    H2 1663   0.069   3.577   3.716 -0.7064 -0.0626 -0.0708
  567TIP3   OH2 1664   1.526   5.542   3.160 -0.0769  0.3417  0.3089
  567TIP3    H1 1665   1.538   5.453   3.193  0.1220  0.9238  1.9023
  567TIP3    H2 1666   1.501   5.592   3.238 -0.2742  1.6557 -0.5878
  568TIP3   OH2 1667   2.122   1.420   2.029  0.1913 -0.4240 -0.5705
  568TIP3    H1 1668   2.043   1.368   2.044 -0.6366  0.5606 -1.3909
  568TIP3    H2 1669   2.190   1.356   2.008 -0.5016 -1.2423 -0.3605
  569TIP3   OH2 1670   2.569   5.090   1.084  0.2330  0.2843 -0.0911
  569TIP3    H1 1671   2.639   5.063   1.024 -0.5511 -0.2703 -0.7772
  569TIP3    H2 1672   2.587   5.041   1.165  0.4227 -0.1630 -0.3975
  570TIP3   OH2 1673   3.299   6.502   5.610 -0.0730  0.1158  0.2870
  570TIP3    H1 1674   3.239   6.428   5.613 -1.0302  0.8928  0.9592
  570TIP3    H2 1675   3.274   6.550   5.532  0.6549 -0.3350 -0.2398
  571TIP3   OH2 1676   1.722   3.371   3.140  0.0298 -0.0410  0.5640
  571TIP3    H1 1677   1.726   3.467   3.147  0.2848  0.0455 -0.5674
  571TIP3    H2 1678   1.682   3.343   3.222 -4.0990  1.3440 -0.6946
  572TIP3   OH2 1679   2.840   5.115   4.182 -0.9370  0.0730 -0.0747
  572TIP3    H1 1680   2.784   5.142   4.109  0.4715 -1.1843 -1.7275
  572TIP3    H2 1681   2.787   5.130   4.260 -2.6980  1.0438 -1.3827
  573TIP3   OH2 1682   6.504   5.910   3.374 -0.0012 -0.3595  0.6479
  573TIP3    H1 1683   6.516   5.974   3.443 -0.4865  0.6714 -0.1982
  573TIP3    H2 1684   6.412   5.919   3.349  0.8433  1.5779 -2.2857
  574TIP3   OH2 1685   5.824   4.361   0.910 -0.2030  0.2393 -0.1044
  574TIP3    H1 1686   5.882   4.324   0.844  1.0795  0.5751  0.8067
  574TIP3    H2 1687   5.757   4.408   0.860  1.4878  1.6071 -1.1676
  575TIP3   OH2 1688   2.198   0.707   1.289  0.2090 -0.3113  0.0962
  575TIP3    H1 1689   2.287   0.731   1.317  0.7525 -1.5604 -0.5041
  575TIP3    H2 1690   2.203   0.614   1.271 -0.9596 -0.1752 -1.0204
  576TIP3   OH2 1691   0.955   2.355   4.765  0.3827  0.3141 -0.4982
  576TIP3    H1 1692   0.979   2.442   4.798 -1.6354  0.9097 -0.4827
  576TIP3    H2 1693   1.033   2.301   4.781  1.7187  2.1185 -0.5917
  577TIP3   OH2 1694   0.181   2.447   3.860  0.1120 -0.4055  0.3168
  577TIP3    H1 1695   0.269   2.433   3.823 -0.0741  1.4234 -0.9855
  577TIP3    H2 1696   0.125   2.458   3.784 -0.2967  3.5176  0.9679
  578TIP3   OH2 1697   5.053   3.411   1.544 -0.0471 -0.2660  0.1825
  578TIP3    H1 1698   5.034   3.503   1.560 -0.1884 -0.6029  2.2470
  578TIP3    H2 1699   5.142   3.399   1.577 -0.0420 -0.8597 -0.0394
  579TIP3   OH2 1700   6.801   6.144   2.750 -0.0047  0.1446  0.1180
  579TIP3    H1 1701   6.809   6.095   2.831  3.1337 -1.5768 -1.0859
  579TIP3    H2 1702   6.873   6.207   2.752  0.2930 -0.1137 -1.4383
  580TIP3   OH2 1703   2.853   4.377   2.151 -0.2411  0.3673  0.3874
  580TIP3    H1 1704   2.946   4.354   2.159 -0.4412 -0.2989  0.8771
  580TIP3    H2 1705   2.838   4.381   2.057  0.7594  2.4805  0.2567
  581TIP3   OH2 1706   1.973   2.996   5.552  0.0611 -0.2544  0.4261
  581TIP3    H1 1707   2.013   2.910   5.567  0.7240 -0.0461 -0.0988
  581TIP3    H2 1708   1.995   3.047   5.629  0.1678 -0.3682  0.4712
  582TIP3   OH2 1709   1.754   6.651   4.990  0.1417 -0.4302  0.3801
  582TIP3    H1 1710   1.681   6.597   4.961  0.6145 -0.6654 -0.4064
  582TIP3    H2 1711   1.829   6.591   4.993  0.8589  0.3006 -1.2680
  583TIP3   OH2 1712   2.783   5.973   1.984  0.4617  0.3525 -0.0436
  583TIP3    H1 1713   2.703   6.010   1.947  1.2134  1.7679 -0.3174
  583TIP3    H2 1714   2.759   5.883   2.009 -1.3424  0.9070  0.3493
  584TIP3   OH2 1715   6.128   4.830   3.601  0.3185 -0.3292  0.1914
  584TIP3    H1 1716   6.179   4.766   3.553 -0.5567 -0.9492  0.0591
  584TIP3    H2 1717   6.040   4.791   3.607 -0.4006  1.1346 -0.4421
  585TIP3   OH2 1718   5.157   4.293   5.415 -0.2694 -0.2415  0.1717
  585TIP3    H1 1719   5.161   4.339   5.499  0.0895 -2.5449  1.4930
  585TIP3    H2 1720   5.208   4.348   5.356  1.0889  0.5149  1.9501
  586TIP3   OH2 1721   5.105   0.271   2.998  0.2066  0.1179 -0.3306
  586TIP3    H1 1722   5.182   0.324   2.978  0.4076 -0.1450 -0.2515
  586TIP3    H2 1723   5.116   0.191   2.947  0.1551 -0.0667 -0.0561
  587TIP3   OH2 1724   0.249   0.229   1.159  0.4910 -0.6989 -0.0602
  587TIP3    H1 1725   0.173   0.179   1.128  0.7554 -1.3461  0.2985
  587TIP3    H2 1726   0.323   0.172   1.140  0.8648 -0.1810 -0.1707
  588TIP3   OH2 1727   4.797   2.199   3.443  0.1175  0.2075 -0.8521
  588TIP3    H1 1728   4.886   2.186   3.411  0.2531 -1.5056  0.0711
  588TIP3    H2 1729   4.808   2.250   3.524  0.1907  0.5402 -1.0690
  589TIP3   OH2 1730   1.339   1.126   3.413 -0.4788  0.5066 -0.3431
  589TIP3    H1 1731   1.425   1.165   3.428  0.0951 -0.1211 -1.7966
  589TIP3    H2 1732   1.277   1.195   3.439  0.4373  0.9311  0.8114
  590TIP3   OH2 1733   3.440   6.383   0.833 -0.3907 -0.1035  0.6240
  590TIP3    H1 1734   3.373   6.404   0.768 -0.7883 -0.5323  0.8876
  590TIP3    H2 1735   3.423   6.442   0.906 -1.3783 -1.1567  1.2785
  591TIP3   OH2 1736   4.085   3.115   2.946 -0.1955 -0.1306  0.5178
  591TIP3    H1 1737   4.075   3.064   2.865  2.1575  2.1267 -1.3819
  591TIP3    H2 1738   4.157   3.073   2.992 -1.3216 -1.2191  1.3587
  592TIP3   OH2 1739   4.705   6.607   1.178 -0.0980  0.1514 -0.0218
  592TIP3    H1 1740   4.646   6.582   1.107 -0.1259  0.1849 -0.0104
  592TIP3    H2 1741   4.649   6.612   1.255 -0.4005  1.7634 -0.3116
  593TIP3   OH2 1742   2.212   0.146   3.954  0.2245 -0.7182  0.4581
  593TIP3    H1 1743   2.218   0.052   3.968  0.3217 -0.4953  2.2354
  593TIP3    H2 1744   2.221   0.158   3.860  0.1945 -2.4791  0.2080
  594TIP3   OH2 1745   0.950   1.688   1.674  0.0849  0.7585  0.2172
  594TIP3    H1 1746   0.958   1.594   1.689 -2.6671  0.1404 -1.4003
  594TIP3    H2 1747   0.895   1.719   1.746 -0.7663  0.6824 -0.3858
  595TIP3   OH2 1748   1.695   5.244   3.465  0.0267 -0.4190  0.1424
  595TIP3    H1 1749   1.747   5.167   3.488  0.1677 -0.5765 -0.6774
  595TIP3    H2 1750   1.682   5.290   3.548  3.4985  0.9099  0.1228
  596TIP3   OH2 1751   2.557   4.815   0.029  0.3297 -0.1380  0.3270
  596TIP3    H1 1752   2.508   4.752  -0.023  0.9359  1.0649 -1.8291
  596TIP3    H2 1753   2.503   4.894   0.027 -1.0761 -0.7984  4.1007
  597TIP3   OH2 1754   0.793   0.361   4.260  0.1693  0.3667  0.0856
  597TIP3    H1 1755   0.739   0.356   4.339  0.3065 -0.6095  0.1343
  597TIP3    H2 1756   0.730   0.365   4.188 -0.0850 -2.3872  0.0267
  598TIP3   OH2 1757   5.490   1.049   1.892  0.0704 -0.4359 -0.0873
  598TIP3    H1 1758   5.407   1.089   1.921 -0.3697 -1.6676  0.4130
  598TIP3    H2 1759   5.538   1.122   1.853 -1.0532  0.4122  0.0248
  599TIP3   OH2 1760   0.195   4.852   0.702  0.4068 -0.3797  0.5841
  599TIP3    H1 1761   0.129   4.783   0.693  0.6310 -1.1211  3.5523
  599TIP3    H2 1762   0.144   4.933   0.704 -0.0852 -0.6455 -0.3869
  600TIP3   OH2 1763   6.941   5.166   4.310  0.1304  0.8139  0.0473
  600TIP3    H1 1764   6.881   5.129   4.246 -1.5586  0.2241  1.8620
  600TIP3    H2 1765   6.989   5.234   4.262 -1.7422  1.0787 -1.5753
  601TIP3   OH2 1766   0.906   2.530   5.526 -0.0178  0.6402 -0.5875
  601TIP3    H1 1767   0.913   2.549   5.620 -0.9473  3.2579 -0.9794
  601TIP3    H2 1768   0.996   2.511   5.499  0.4914  1.2974  0.5806
  602TIP3   OH2 1769   3.955   3.361   2.968 -0.1523  0.5762  0.0372
  602TIP3    H1 1770   3.963   3.266   2.959 -2.4844  0.5452 -4.2549
  602TIP3    H2 1771   4.045   3.393   2.965  0.6818 -1.3840  1.5322
  603TIP3   OH2 1772   3.783   0.984   1.742  0.4840  0.0579  0.5492
  603TIP3    H1 1773   3.795   1.009   1.834  2.4305 -0.8193  0.5726
  603TIP3    H2 1774   3.805   1.063   1.693 -1.3881  0.7992  0.8029
  604TIP3   OH2 1775   4.134   2.383   0.781  0.2196  0.0368  0.4081
  604TIP3    H1 1776   4.039   2.394   0.788  0.2284  1.2083 -0.8925
  604TIP3    H2 1777   4.146   2.326   0.705  0.5612 -0.7106  1.0028
  605TIP3   OH2 1778   5.006   5.512   1.994 -0.0871  0.4489 -0.0960
  605TIP3    H1 1779   5.054   5.486   2.073 -2.5775 -1.8418  0.8271
  605TIP3    H2 1780   5.070   5.502   1.923  1.7951  1.1494  1.3913
  606TIP3   OH2 1781   3.813   2.474   4.146  0.3681  0.5516 -0.0648
  606TIP3    H1 1782   3.851   2.517   4.069  0.3610  1.0199  0.1873
  606TIP3    H2 1783   3.719   2.486   4.136  0.2618 -0.6730 -0.7274
  607TIP3   OH2 1784   1.943   5.030   0.647 -0.1075 -0.0030 -0.3044
  607TIP3    H1 1785   2.034   5.057   0.631 -0.3816  2.2388  1.3524
  607TIP3    H2 1786   1.890   5.094   0.599 -0.8236 -1.0804 -0.9781
  608TIP3   OH2 1787   0.984   4.205   4.448  0.0432  0.3382 -0.3203
  608TIP3    H1 1788   0.936   4.244   4.521  1.8927 -0.4797  1.4354
  608TIP3    H2 1789   1.059   4.263   4.434  0.3255 -0.1260 -0.7869
  609TIP3   OH2 1790   5.438   4.785   1.566 -0.1843 -0.1356  0.0392
  609TIP3    H1 1791   5.484   4.706   1.594 -0.1744  0.4352  1.7354
  609TIP3    H2 1792   5.507   4.852   1.560 -0.2442 -0.1490 -1.0769
  610TIP3   OH2 1793   5.721   1.581   0.146  0.0648  0.1111 -0.4664
  610TIP3    H1 1794   5.625   1.582   0.141 -0.0190 -0.0438  0.8231
  610TIP3    H2 1795   5.745   1.674   0.148 -0.0315  0.1544 -1.1040
  611TIP3   OH2 1796   2.979   3.795   1.706  0.5315 -0.0997 -0.2993
  611TIP3    H1 1797   3.046   3.829   1.647  0.9888 -1.6082 -0.6927
  611TIP3    H2 1798   3.020   3.798   1.793  0.8774 -0.4456 -0.4516
  612TIP3   OH2 1799   1.228   6.070   5.238 -0.4390  0.4117 -0.0447
  612TIP3    H1 1800   1.185   5.999   5.191  1.2090 -0.6488 -0.0242
  612TIP3    H2 1801   1.248   6.135   5.171 -0.4387  0.0926 -0.3518
  613TIP3   OH2 1802   1.378   0.645   0.193  0.0443 -0.4702 -0.4614
  613TIP3    H1 1803   1.420   0.566   0.226 -2.5164 -1.4899  0.5832
  613TIP3    H2 1804   1.299   0.614   0.149  0.7526  1.2706 -3.2753
  614TIP3   OH2 1805   2.120   1.034   0.141 -0.7377  0.5661  0.2219
  614TIP3    H1 1806   2.101   1.126   0.121 -1.0259  0.2396 -1.1231
  614TIP3    H2 1807   2.215   1.030   0.148 -0.7898  1.2003  1.6175
  615TIP3   OH2 1808   2.865   3.182   5.832  0.6011  0.3655 -0.1600
  615TIP3    H1 1809   2.891   3.272   5.812  0.9215 -0.0508 -1.7654
  615TIP3    H2 1810   2.904   3.165   5.918 -0.2204  2.0340  0.5835
  616TIP3   OH2 1811   1.782   4.970   5.862  0.0106 -0.0949 -0.2055
  616TIP3    H1 1812   1.813   5.028   5.792  0.9842  0.2058  0.4518
  616TIP3    H2 1813   1.690   4.953   5.840 -0.0817  1.0831 -0.8233
  617TIP3   OH2 1814   1.471   1.147   2.965  0.0262  0.4285 -1.0113
  617TIP3    H1 1815   1.389   1.112   2.929  0.5921 -1.2539 -0.7750
  617TIP3    H2 1816   1.537   1.123   2.900  0.6648 -0.3525 -0.1044
  618TIP3   OH2 1817   5.624   4.636   4.146  0.3188 -0.0851 -0.2717
  618TIP3    H1 1818   5.561   4.652   4.076 -1.2943 -1.1161  0.8672
  618TIP3    H2 1819   5.642   4.723   4.182 -0.8376  0.2044 -0.3371
  619TIP3   OH2 1820   5.942   3.021   2.281  0.4772  0.2259  0.1371
  619TIP3    H1 1821   5.852   3.018   2.315  0.4913  0.9296  0.2538
  619TIP3    H2 1822   5.938   2.974   2.198 -0.5347  2.2285 -1.0286
  620TIP3   OH2 1823   7.194   1.478   4.988  0.2062  0.4608  0.1575
  620TIP3    H1 1824   7.109   1.480   5.032 -0.4621  2.5732 -1.0965
  620TIP3    H2 1825   7.255   1.515   5.052  0.0469 -0.2353  0.7329
  621TIP3   OH2 1826   0.228   3.500   0.769 -0.2387  0.1367 -0.1949
  621TIP3    H1 1827   0.294   3.452   0.819 -0.8044 -1.7497 -1.1619
  621TIP3    H2 1828   0.150   3.498   0.824  0.2863  1.8656  0.6925
  622TIP3   OH2 1829   4.732   2.357   0.843  0.9045  0.4975  0.4230
  622TIP3    H1 1830   4.779   2.436   0.871  0.9145  0.4256  0.6135
  622TIP3    H2 1831   4.640   2.378   0.856  0.8849  0.6423  0.0391
  623TIP3   OH2 1832   2.297   3.134   3.916  0.1352  0.0739  0.0455
  623TIP3    H1 1833   2.221   3.096   3.874  0.1957  1.1005 -1.0600
  623TIP3    H2 1834   2.323   3.207   3.859  4.5787 -2.7545 -2.1292
  624TIP3   OH2 1835   3.913   4.612   4.506 -0.1464  0.1101 -0.8163
  624TIP3    H1 1836   3.867   4.673   4.447 -0.7382 -0.0922 -0.5748
  624TIP3    H2 1837   4.006   4.625   4.487 -0.2840  0.8322 -1.0206
  625TIP3   OH2 1838   0.160   0.712   3.826  0.0419 -0.2893 -1.1523
  625TIP3    H1 1839   0.247   0.713   3.866  0.0074  1.5876 -1.0298
  625TIP3    H2 1840   0.173   0.751   3.739 -0.8021  0.8143 -0.8028
  626TIP3   OH2 1841   3.157   2.943   2.482  0.1195 -0.1587 -0.1949
  626TIP3    H1 1842   3.078   2.956   2.430 -0.9064 -0.9158  1.0976
  626TIP3    H2 1843   3.211   3.019   2.463 -1.4715  1.0317 -0.1931
  627TIP3   OH2 1844   0.426   1.403   5.823  0.0704  0.5302 -0.0671
  627TIP3    H1 1845   0.331   1.401   5.831 -0.0432  0.6716 -1.3193
  627TIP3    H2 1846   0.448   1.329   5.767  0.6163  1.0465 -0.5437
  628TIP3   OH2 1847   0.172   5.985   3.838  0.3090 -0.4548 -0.4005
  628TIP3    H1 1848   0.088   5.953   3.871 -0.9043  2.1593 -0.6964
  628TIP3    H2 1849   0.232   5.974   3.912 -0.9051 -0.1670  0.6774
  629TIP3   OH2 1850   6.980   4.181   1.143  0.0188  0.4392  0.0600
  629TIP3    H1 1851   6.996   4.091   1.118 -1.8620 -0.9540  3.1429
  629TIP3    H2 1852   7.064   4.213   1.177  0.6566 -0.1872 -0.9006
  630TIP3   OH2 1853   3.090   1.822   0.002 -0.1423  0.4173 -0.3585
  630TIP3    H1 1854   3.031   1.897   0.009 -0.7287 -0.1218  0.5734
  630TIP3    H2 1855   3.178   1.861  -0.002 -0.4922  1.1805 -0.7301
  631TIP3   OH2 1856   2.734   3.510   5.556  0.2064 -0.7213 -0.1739
  631TIP3    H1 1857   2.690   3.524   5.472  1.0139 -0.5601 -0.5776
  631TIP3    H2 1858   2.797   3.440   5.540  1.1299  0.0440 -0.0027
  632TIP3   OH2 1859   0.426   2.356   3.761 -0.1304  0.2975  0.1605
  632TIP3    H1 1860   0.456   2.299   3.832 -0.1644  1.6805  1.3263
  632TIP3    H2 1861   0.414   2.297   3.687  2.9439 -0.7730  0.3421
  633TIP3   OH2 1862   5.447   0.681   3.605  0.3522 -0.1394 -0.2690
  633TIP3    H1 1863   5.405   0.668   3.690  0.4013 -0.0116 -0.2235
  633TIP3    H2 1864   5.531   0.636   3.613  0.0407 -0.7765 -0.5146
  634TIP3   OH2 1865   2.061   0.643   3.808  0.2197 -0.5721  0.0749
  634TIP3    H1 1866   1.978   0.607   3.838  0.5904 -0.3480  1.4306
  634TIP3    H2 1867   2.106   0.568   3.767 -0.4729 -0.7778 -0.3262
  635TIP3   OH2 1868   2.165   1.882   1.165  0.3630 -0.4825  0.6204
  635TIP3    H1 1869   2.195   1.939   1.236 -1.3247  1.1133  0.1492
  635TIP3    H2 1870   2.164   1.940   1.088  1.3533 -1.9512 -0.5520
  636TIP3   OH2 1871   4.894   0.746   0.380 -0.0266 -0.6327 -0.4096
  636TIP3    H1 1872   4.919   0.820   0.435  0.2175  0.0034 -1.3499
  636TIP3    H2 1873   4.946   0.673   0.413 -0.2838 -0.4043  0.5466
  637TIP3   OH2 1874   2.750   2.431   1.275 -0.0177 -0.6023  0.0019
  637TIP3    H1 1875   2.743   2.336   1.270 -1.6061 -0.4480 -1.9112
  637TIP3    H2 1876   2.803   2.456   1.200  0.7665  0.0053  0.7456
  638TIP3   OH2 1877   0.487   5.966   1.094 -0.3139  0.4048 -0.2695
  638TIP3    H1 1878   0.513   5.943   1.004 -1.4555 -0.0779 -0.4962
  638TIP3    H2 1879   0.511   6.058   1.103 -2.5397  1.2696 -2.0373
  639TIP3   OH2 1880   5.521   4.709   1.923 -0.2896  0.0743 -0.8917
  639TIP3    H1 1881   5.576   4.755   1.860 -0.1275 -0.0665 -0.8502
  639TIP3    H2 1882   5.532   4.617   1.904  3.1140 -0.3270  2.0232
  640TIP3   OH2 1883   5.253   2.751   5.765 -0.2890 -0.1327  0.6885
  640TIP3    H1 1884   5.229   2.831   5.719 -0.2132 -1.2240 -1.4065
  640TIP3    H2 1885   5.338   2.727   5.728  0.4133 -0.3898  2.3901
  641TIP3   OH2 1886   5.098   4.405   2.185 -0.0209  0.2819  0.6112
  641TIP3    H1 1887   5.155   4.481   2.187  1.0396 -0.3780 -1.2111
  641TIP3    H2 1888   5.060   4.406   2.097 -0.5614 -0.8758  0.8038
  642TIP3   OH2 1889   5.914   1.370   4.643 -0.0573  0.5454  0.2434
  642TIP3    H1 1890   5.947   1.320   4.569 -1.0456  0.7599 -0.3629
  642TIP3    H2 1891   5.895   1.457   4.607  1.8414  1.4704  1.3240
  643TIP3   OH2 1892   6.796   0.142   0.123 -0.4885  0.1963  0.7543
  643TIP3    H1 1893   6.751   0.058   0.125 -1.3711  0.6691  1.6019
  643TIP3    H2 1894   6.882   0.125   0.162 -0.0823 -0.6152 -0.4521
  644TIP3   OH2 1895   2.643   1.723   3.921 -0.1042 -0.5818 -0.3228
  644TIP3    H1 1896   2.577   1.690   3.982 -0.4781  0.8626  0.0995
  644TIP3    H2 1897   2.701   1.649   3.905 -0.3487 -1.1613  1.3259
  645TIP3   OH2 1898   1.458   4.428   1.699 -0.7112 -0.1309 -0.1985
  645TIP3    H1 1899   1.453   4.381   1.616 -1.5629  0.0672 -0.2675
  645TIP3    H2 1900   1.550   4.454   1.707 -0.5173 -0.6209 -0.8133
  646TIP3   OH2 1901   4.242   4.336   0.289 -0.0546  0.1348  0.2912
  646TIP3    H1 1902   4.161   4.370   0.252  0.2284 -0.8612 -1.3857
  646TIP3    H2 1903   4.239   4.360   0.381 -2.4110 -0.1732  0.3582
  647TIP3   OH2 1904   4.859   4.662   5.812  0.6172 -0.2336 -0.2366
  647TIP3    H1 1905   4.873   4.607   5.890 -1.4421 -1.4046 -0.6092
  647TIP3    H2 1906   4.939   4.714   5.805  2.3900 -2.6387  0.5840
  648TIP3   OH2 1907   4.703   5.627   0.458  0.0932 -0.5442  0.6211
  648TIP3    H1 1908   4.769   5.558   0.468 -0.9908 -1.4561  1.6303
  648TIP3    H2 1909   4.649   5.621   0.536 -0.1707  1.3289  0.6349
  649TIP3   OH2 1910   6.489   1.431   0.746  0.2260 -0.3300  0.1116
  649TIP3    H1 1911   6.582   1.412   0.760  0.4887  1.5364  1.2107
  649TIP3    H2 1912   6.463   1.373   0.674  1.6415 -2.5365  1.2888
  650TIP3   OH2 1913   1.545   3.781   3.451 -0.1226  0.5190 -0.0407
  650TIP3    H1 1914   1.477   3.736   3.401  0.5871  0.1102 -0.6703
  650TIP3    H2 1915   1.605   3.816   3.384 -0.3147  1.8755  0.4504
  651TIP3   OH2 1916   5.785   5.772   2.775  0.4072 -0.1559  0.2802
  651TIP3    H1 1917   5.825   5.810   2.853 -0.5021 -0.1361  0.7566
  651TIP3    H2 1918   5.731   5.842   2.739 -0.5607 -0.6833  0.6483
  652TIP3   OH2 1919   1.257   2.505   0.944  0.3221  0.6744  0.3046
  652TIP3    H1 1920   1.195   2.460   0.886 -0.8426  0.9269  1.3360
  652TIP3    H2 1921   1.342   2.469   0.918 -0.4752 -1.5588  0.5455
  653TIP3   OH2 1922   4.906   3.357   0.834 -0.4509 -0.7400 -0.4892
  653TIP3    H1 1923   4.932   3.377   0.744 -1.5821  1.3882 -0.4054
  653TIP3    H2 1924   4.944   3.428   0.886 -0.7747 -1.3132  0.5610
  654TIP3   OH2 1925   6.551   0.210   1.921  0.7395 -0.0614  0.2358
  654TIP3    H1 1926   6.516   0.244   2.003  1.0057  1.5556 -0.2877
  654TIP3    H2 1927   6.477   0.166   1.878  0.8403 -1.8777  1.7689
  655TIP3   OH2 1928   1.059   1.006   0.466 -0.0549 -0.2555  0.2423
  655TIP3    H1 1929   1.032   1.092   0.437 -0.3535 -1.2527 -2.7260
  655TIP3    H2 1930   0.983   0.971   0.513 -0.1100  0.8368  1.0128
  656TIP3   OH2 1931   0.015   1.928   5.543  0.0366  0.2243  0.1151
  656TIP3    H1 1932   0.016   2.016   5.506  2.1496 -0.2151 -1.0397
  656TIP3    H2 1933   0.103   1.894   5.527 -0.5583 -1.9180  0.9943
  657TIP3   OH2 1934   3.669   5.643   2.300  0.8450 -0.3214 -0.0024
  657TIP3    H1 1935   3.623   5.583   2.241 -1.1908  0.1519  1.0182
  657TIP3    H2 1936   3.709   5.586   2.365  0.8268 -0.6912 -0.3076
  658TIP3   OH2 1937   1.056   1.085   5.115  0.4423 -0.2349  0.2492
  658TIP3    H1 1938   1.107   1.153   5.071 -0.3205 -0.3877 -0.9196
  658TIP3    H2 1939   1.026   1.028   5.044  0.0156 -1.0743  1.0819
  659TIP3   OH2 1940   5.697   1.806   4.653 -0.0126  0.2855 -0.2765
  659TIP3    H1 1941   5.772   1.846   4.696 -0.4254 -0.7240  1.5301
  659TIP3    H2 1942   5.631   1.875   4.649 -0.1562  0.2855  1.3168
  660TIP3   OH2 1943   0.356   6.268   2.606  0.1131  0.0754 -0.1813
  660TIP3    H1 1944   0.299   6.321   2.662  0.8860  0.5018  0.2252
  660TIP3    H2 1945   0.297   6.212   2.557 -0.5632 -0.5335  1.2973
  661TIP3   OH2 1946   4.751   4.656   4.748 -0.2310  0.2140  0.5032
  661TIP3    H1 1947   4.686   4.725   4.735  0.2172  0.4341 -0.5949
  661TIP3    H2 1948   4.833   4.694   4.718 -0.0593 -0.9446 -0.5660
  662TIP3   OH2 1949   2.659   5.202   4.004 -0.8355 -0.1740 -0.3701
  662TIP3    H1 1950   2.663   5.286   4.049  0.3576 -0.7605  0.7208
  662TIP3    H2 1951   2.568   5.174   4.013 -0.6903 -0.1647  1.5473
  663TIP3   OH2 1952   3.651   0.506   1.148 -0.1070  0.1762  0.2632
  663TIP3    H1 1953   3.572   0.470   1.107 -0.0354  0.6065 -0.2641
  663TIP3    H2 1954   3.659   0.457   1.230  0.2097 -1.2696 -0.5915
  664TIP3   OH2 1955   0.284   1.835   5.531  0.3054 -0.8303 -0.7956
  664TIP3    H1 1956   0.343   1.864   5.461  0.2761  0.3683 -0.3493
  664TIP3    H2 1957   0.303   1.742   5.541  1.5291 -0.6533 -1.2454
  665TIP3   OH2 1958   1.863   1.580   2.688 -0.0370  0.1201  0.3502
  665TIP3    H1 1959   1.846   1.492   2.722  1.8396 -0.2244  0.4913
  665TIP3    H2 1960   1.855   1.571   2.594  1.6156 -0.5922  0.2491
  666TIP3   OH2 1961   2.949   2.851   5.121 -0.4167  0.7600  0.4241
  666TIP3    H1 1962   2.881   2.918   5.119 -3.9526 -2.5626 -1.9253
  666TIP3    H2 1963   2.959   2.831   5.214 -2.8761  1.2071  0.8563
  667TIP3   OH2 1964   0.058   2.171   1.287 -0.0742 -0.4478  0.0225
  667TIP3    H1 1965   0.011   2.196   1.367 -0.6283 -0.1881 -0.3742
  667TIP3    H2 1966  -0.011   2.147   1.225  0.3113 -0.0915 -0.5620
  668TIP3   OH2 1967   1.151   4.844   1.804 -0.3755  0.0359 -0.2651
  668TIP3    H1 1968   1.071   4.891   1.829 -0.7960 -1.2973  1.0118
  668TIP3    H2 1969   1.222   4.896   1.843 -0.7704  0.0549  0.4376
  669TIP3   OH2 1970   3.832   2.405   3.838  0.0284  0.2329 -0.1474
  669TIP3    H1 1971   3.889   2.481   3.845 -0.1678  0.5219 -1.4849
  669TIP3    H2 1972   3.881   2.343   3.784 -1.4483  1.0568 -2.5858
  670TIP3   OH2 1973   0.460   3.081   3.898 -0.1544  0.3797  0.5484
  670TIP3    H1 1974   0.551   3.109   3.884 -0.5480  1.7102  0.5591
  670TIP3    H2 1975   0.452   3.073   3.993  0.1424 -0.4350  0.5112
  671TIP3   OH2 1976   4.798   5.201   2.783  0.0680 -0.0901 -0.1162
  671TIP3    H1 1977   4.810   5.181   2.876 -0.1586  1.7315  0.3343
  671TIP3    H2 1978   4.703   5.209   2.772  0.1090 -0.0471 -0.4610
  672TIP3   OH2 1979   0.605   3.700   3.976 -0.2142 -0.0890 -0.7005
  672TIP3    H1 1980   0.579   3.613   3.945 -1.7431  0.4117 -0.8833
  672TIP3    H2 1981   0.524   3.741   4.004  0.8120  0.2207  2.1990
  673TIP3   OH2 1982   5.460   1.661   0.199 -0.2009  0.5500 -0.0592
  673TIP3    H1 1983   5.464   1.725   0.271  0.2554  0.0689  0.3505
  673TIP3    H2 1984   5.438   1.713   0.122 -0.2024  1.1481  0.3391
  674TIP3   OH2 1985   1.999   4.861   2.061  0.5168 -0.0913 -0.2090
  674TIP3    H1 1986   2.054   4.910   2.000  1.5105 -0.1573  0.6184
  674TIP3    H2 1987   2.058   4.798   2.102 -0.0381  0.2076  1.1074
  675TIP3   OH2 1988   3.988   4.923   0.805  0.9808  0.2311  0.3774
  675TIP3    H1 1989   3.897   4.912   0.778  0.2996  1.5621  1.9857
  675TIP3    H2 1990   3.992   4.882   0.892  1.8067  0.5950  0.5165
  676TIP3   OH2 1991   5.972   3.998   1.782  0.6294  0.1723 -0.6701
  676TIP3    H1 1992   5.879   3.977   1.783  0.3897  1.0974 -1.3966
  676TIP3    H2 1993   5.987   4.032   1.694  1.4596  0.8651 -0.2711
  677TIP3   OH2 1994   4.526   4.388   0.642 -0.5804 -0.0668  0.2879
  677TIP3    H1 1995   4.558   4.478   0.633  0.5051 -0.4481  0.1890
  677TIP3    H2 1996   4.587   4.335   0.590 -0.4042 -1.0185  1.4243
  678TIP3   OH2 1997   5.253   3.089   4.225  0.4790 -0.5556  0.5430
  678TIP3    H1 1998   5.163   3.113   4.201  0.9062  0.8251  0.2278
  678TIP3    H2 1999   5.243   3.011   4.279 -0.9594 -0.1019  0.9800
  679TIP3   OH2 2000   1.919   3.985   3.795 -0.1160  0.5486  0.2621
  679TIP3    H1 2001   1.959   4.006   3.880 -0.0743 -0.3153  0.4632
  679TIP3    H2 2002   1.948   4.056   3.737  0.0926  0.9906  0.8942
  680TIP3   OH2 2003   6.216   5.922   3.324 -0.2997  0.6591  0.3571
  680TIP3    H1 2004   6.169   6.006   3.323 -0.0005  0.8548  1.1509
  680TIP3    H2 2005   6.148   5.857   3.340 -0.6261  0.6705 -0.9088
  681TIP3   OH2 2006   4.286   6.428   1.376  0.0725  0.2988  0.4149
  681TIP3    H1 2007   4.251   6.368   1.311  0.0521 -1.0507  1.6404
  681TIP3    H2 2008   4.279   6.514   1.334 -1.0968 -0.3705 -0.8648
  682TIP3   OH2 2009   0.594   6.599   2.833  0.1663  0.0096  0.5068
  682TIP3    H1 2010   0.573   6.693   2.830  1.8931  0.4184  0.3955
  682TIP3    H2 2011   0.675   6.591   2.783  0.9127 -1.2874  1.8664
  683TIP3   OH2 2012   1.227   6.448   1.929  0.1270 -0.0405 -0.1292
  683TIP3    H1 2013   1.205   6.482   2.016 -2.0851  0.1128 -0.6845
  683TIP3    H2 2014   1.159   6.382   1.912  0.8710 -0.4764 -1.5149
  684TIP3   OH2 2015   1.032   0.736   3.157 -0.2226  0.3985 -0.2556
  684TIP3    H1 2016   0.979   0.755   3.079 -0.5505  1.1370  0.1342
  684TIP3    H2 2017   1.024   0.815   3.211  1.6376  0.7189 -0.3737
  685TIP3   OH2 2018   7.060   6.227   0.619  0.0928  0.4128 -0.8467
  685TIP3    H1 2019   7.142   6.177   0.613 -1.0593 -1.8310  0.5318
  685TIP3    H2 2020   7.073   6.301   0.561  2.8481 -0.2178 -1.1915
  686TIP3   OH2 2021   0.724   5.593   0.330  0.0976 -0.5780 -0.0305
  686TIP3    H1 2022   0.815   5.567   0.348  0.3653  0.8132  0.7310
  686TIP3    H2 2023   0.682   5.594   0.416 -0.1671  0.4794 -0.1628
  687TIP3   OH2 2024   4.960   5.277   5.120 -0.7859  0.4410 -0.2898
  687TIP3    H1 2025   4.922   5.237   5.198 -2.3245 -0.5863 -1.5265
  687TIP3    H2 2026   5.052   5.291   5.143 -0.5346 -2.3868  0.7526
  688TIP3   OH2 2027   3.340   2.673   1.203  0.1456 -0.3210 -0.0655
  688TIP3    H1 2028   3.278   2.607   1.235 -1.5137  0.8703 -0.6374
  688TIP3    H2 2029   3.354   2.731   1.277  1.4012 -1.1486  0.3612
  689TIP3   OH2 2030   3.132   4.105   4.726  0.3876 -0.1500 -0.6188
  689TIP3    H1 2031   3.164   4.046   4.658  2.0168  0.5653 -0.5124
  689TIP3    H2 2032   3.187   4.183   4.718 -1.0602  0.9773 -0.1114
  690TIP3   OH2 2033   5.803   3.196   4.573  0.2505  0.0607 -0.3984
  690TIP3    H1 2034   5.878   3.254   4.584  1.1081 -0.3495 -3.1798
  690TIP3    H2 2035   5.756   3.232   4.498 -1.9224 -0.1671  0.7925
  691TIP3   OH2 2036   1.935   0.779   0.644  0.6726  0.0262  0.1668
  691TIP3    H1 2037   1.921   0.691   0.679  1.0929  0.4128  1.3443
  691TIP3    H2 2038   2.030   0.790   0.647  0.9806 -0.6649 -2.9898
  692TIP3   OH2 2039   0.162   1.959   4.801 -1.0808 -0.2430 -0.5022
  692TIP3    H1 2040   0.129   2.036   4.848  1.8682  0.5117  0.4988
  692TIP3    H2 2041   0.219   1.914   4.864 -0.0415 -1.3573 -2.1485
  693TIP3   OH2 2042   5.544   3.191   0.767 -0.1046 -0.6447 -0.0271
  693TIP3    H1 2043   5.606   3.263   0.758 -0.2845 -0.6603 -2.0325
  693TIP3    H2 2044   5.476   3.225   0.825 -0.0921  0.7728 -0.7867
  694TIP3   OH2 2045   0.382   4.933   0.313  0.1992  0.1177 -0.2284
  694TIP3    H1 2046   0.475   4.919   0.329 -0.0212  0.2501  1.3171
  694TIP3    H2 2047   0.376   5.023   0.281  0.5962  0.1324 -0.2601
  695TIP3   OH2 2048   5.859   5.877   3.647  0.1711 -0.3731 -0.1355
  695TIP3    H1 2049   5.855   5.879   3.552  2.4816 -0.1728 -0.2841
  695TIP3    H2 2050   5.885   5.788   3.669 -0.0904 -0.3477  0.3033
  696TIP3   OH2 2051   4.521   4.102   2.583  0.0230  0.4546  0.2398
  696TIP3    H1 2052   4.451   4.127   2.644 -1.6630 -1.1569 -0.9363
  696TIP3    H2 2053   4.531   4.178   2.526 -1.6681  0.3064 -0.3186
  697TIP3   OH2 2054   0.553   2.409   0.359 -0.0500  0.2261 -0.1035
  697TIP3    H1 2055   0.643   2.378   0.344 -0.2465 -0.1872 -0.4473
  697TIP3    H2 2056   0.528   2.449   0.276 -0.3652 -0.1091 -0.1691
  698TIP3   OH2 2057   2.184   1.316   0.098  0.4204  0.2043 -0.2134
  698TIP3    H1 2058   2.238   1.327   0.020 -1.3758 -0.7805 -1.6828
  698TIP3    H2 2059   2.223   1.375   0.163  1.0711  2.2436 -2.3217
  699TIP3   OH2 2060   5.733   0.165   1.045 -0.3266 -0.9141 -0.2034
  699TIP3    H1 2061   5.761   0.183   0.955 -1.6757 -1.1293 -0.6880
  699TIP3    H2 2062   5.801   0.108   1.080  0.3377 -0.6404 -1.0038
  700TIP3   OH2 2063   3.865   6.317   4.865  0.3166  0.3101 -0.2635
  700TIP3    H1 2064   3.784   6.267   4.851  0.6986 -0.4517  0.1869
  700TIP3    H2 2065   3.920   6.259   4.917  0.1784  1.7863  1.6425
  701TIP3   OH2 2066   0.955   3.074   5.287 -0.1327  0.1817  0.2797
  701TIP3    H1 2067   0.929   2.984   5.305  1.5360 -0.3497  0.1575
  701TIP3    H2 2068   0.950   3.082   5.192  1.5059 -0.3850  0.1209
  702TIP3   OH2 2069   0.884   4.244   0.628  0.0051  0.1277  0.0587
  702TIP3    H1 2070   0.888   4.228   0.534  2.0742  1.8769 -0.2276
  702TIP3    H2 2071   0.948   4.183   0.666 -2.9568 -2.8103  0.8400
  703TIP3   OH2 2072   3.315   2.415   0.053  0.1938 -0.3705 -0.0198
  703TIP3    H1 2073   3.376   2.483   0.024 -1.5215  1.0197 -0.5729
  703TIP3    H2 2074   3.264   2.394  -0.025 -1.3755 -0.0138  0.8707
  704TIP3   OH2 2075   2.352   1.995   2.697 -0.5755  0.4676 -0.3186
  704TIP3    H1 2076   2.282   1.930   2.704 -1.2306  1.2175  0.3639
  704TIP3    H2 2077   2.431   1.948   2.723 -1.2284  0.2455  1.3706
  705TIP3   OH2 2078   2.329   3.508   3.460  0.0460  0.1052 -0.5551
  705TIP3    H1 2079   2.279   3.589   3.472  0.0700 -0.1411  1.5890
  705TIP3    H2 2080   2.410   3.522   3.508  0.5067 -0.8126 -1.0386
  706TIP3   OH2 2081   5.379   4.788   1.212  0.4328 -0.5489 -0.6333
  706TIP3    H1 2082   5.294   4.772   1.252  0.5747  0.0400 -0.0750
  706TIP3    H2 2083   5.392   4.714   1.153 -0.5911 -0.4939 -0.9469
  707TIP3   OH2 2084   6.371   4.811   3.951 -0.2313  0.5700 -0.1310
  707TIP3    H1 2085   6.380   4.777   4.040 -3.1379 -1.3985 -0.4519
  707TIP3    H2 2086   6.319   4.890   3.961 -0.7146  0.2489 -0.0807
  708TIP3   OH2 2087   0.172   6.669   1.735  0.3413 -0.2668  0.3386
  708TIP3    H1 2088   0.202   6.681   1.645  1.4587 -2.0763  0.4209
  708TIP3    H2 2089   0.103   6.603   1.729 -0.1674  0.2214  0.7289
  709TIP3   OH2 2090   4.731   3.877   1.208  0.0291  0.0087  0.3395
  709TIP3    H1 2091   4.638   3.890   1.224  0.1544  0.9722  0.3355
  709TIP3    H2 2092   4.751   3.793   1.249 -0.6667  0.1823  1.0546
  710TIP3   OH2 2093   1.238   2.854   0.490 -0.2230 -0.3620 -0.1176
  710TIP3    H1 2094   1.237   2.865   0.395  0.7467  0.1422 -0.0845
  710TIP3    H2 2095   1.236   2.943   0.525  0.8258 -0.4935  0.3012
  711TIP3   OH2 2096   5.476   3.983   2.816 -0.1409  0.5090 -0.2220
  711TIP3    H1 2097   5.445   4.055   2.871 -1.0981 -0.3876  0.4458
  711TIP3    H2 2098   5.571   3.996   2.811 -0.1381  1.0445  1.0016
  712TIP3   OH2 2099   3.146   6.740   4.745 -0.4437  0.2402  0.3060
  712TIP3    H1 2100   3.228   6.738   4.696 -1.2237  1.0962 -1.0974
  712TIP3    H2 2101   3.158   6.674   4.814  1.7171  0.9238  0.6703
  713TIP3   OH2 2102   5.073   3.823   4.827  0.1947 -0.1428 -0.0854
  713TIP3    H1 2103   4.996   3.861   4.784  0.4409 -0.7369 -1.0767
  713TIP3    H2 2104   5.077   3.868   4.912 -0.9066  0.3068 -0.2495
  714TIP3   OH2 2105   3.380   5.375   2.906  0.0818 -0.4101 -0.0699
  714TIP3    H1 2106   3.348   5.404   2.991 -2.0262 -0.1065 -0.9004
  714TIP3    H2 2107   3.451   5.436   2.884  0.1764 -0.0688  1.1335
  715TIP3   OH2 2108   0.831   2.232   0.000 -0.0530  0.0821  0.4323
  715TIP3    H1 2109   0.890   2.227   0.076  0.7609 -0.1193 -0.1972
  715TIP3    H2 2110   0.806   2.142  -0.017  1.1138 -0.0809 -0.5526
  716TIP3   OH2 2111   3.029   2.704   0.430  0.1680 -0.3892  0.3258
  716TIP3    H1 2112   3.088   2.663   0.368 -1.1021 -2.8181  0.6174
  716TIP3    H2 2113   3.086   2.737   0.500  1.5166  1.5783 -1.5833
  717TIP3   OH2 2114   5.119   5.740   1.083  0.8301  0.3771 -0.2287
  717TIP3    H1 2115   5.188   5.754   1.019 -0.8035  0.4310 -2.0718
  717TIP3    H2 2116   5.088   5.828   1.106  0.9327  0.3291  0.1066
  718TIP3   OH2 2117   3.707   6.545   4.224  0.7348 -0.2343  0.0664
  718TIP3    H1 2118   3.614   6.523   4.229  0.1891  1.5470 -1.0318
  718TIP3    H2 2119   3.725   6.548   4.130  1.2402  1.7955  0.1793
  719TIP3   OH2 2120   1.727   0.127   1.358  0.0735 -0.5170  0.0984
  719TIP3    H1 2121   1.715   0.221   1.345  2.4993  0.1159  1.6049
  719TIP3    H2 2122   1.657   0.086   1.308 -1.0382  2.0794 -0.6399
  720TIP3   OH2 2123   0.368   2.594   1.284 -0.4037 -0.1009 -0.1108
  720TIP3    H1 2124   0.358   2.664   1.349 -2.3625 -1.1988  0.8402
  720TIP3    H2 2125   0.280   2.576   1.253  0.1938 -1.3943 -1.1641
  721TIP3   OH2 2126   6.781   0.849   0.320 -0.1780  0.4622 -0.4302
  721TIP3    H1 2127   6.750   0.802   0.398  0.9650  2.2319  1.1599
  721TIP3    H2 2128   6.750   0.796   0.247 -2.9789 -0.2673  1.1465
  722TIP3   OH2 2129   3.156   5.624   1.500 -0.2808 -0.1052  0.6066
  722TIP3    H1 2130   3.237   5.574   1.493 -1.2217 -1.8950  1.6375
  722TIP3    H2 2131   3.181   5.714   1.478  1.9540 -0.6017  0.8590
  723TIP3   OH2 2132   2.261   2.708   0.872  0.3051  0.1223  0.2977
  723TIP3    H1 2133   2.328   2.652   0.910 -0.3769 -0.6973  0.3184
  723TIP3    H2 2134   2.293   2.797   0.885  2.3142 -0.2761 -1.3892
  724TIP3   OH2 2135   2.772   2.807   3.415 -0.3686 -0.1316  0.5314
  724TIP3    H1 2136   2.742   2.879   3.361  1.8168 -0.0297 -0.6565
  724TIP3    H2 2137   2.720   2.732   3.387  0.4523  0.0069 -1.5199
  725TIP3   OH2 2138   3.095   5.109   4.382  0.1379 -0.3025 -0.1595
  725TIP3    H1 2139   3.030   5.166   4.425  1.6020  1.5234 -0.2280
  725TIP3    H2 2140   3.142   5.068   4.455 -0.2811 -0.6723 -0.0939
  726TIP3   OH2 2141   5.257   1.805   0.982  0.5574  0.0150  0.6394
  726TIP3    H1 2142   5.187   1.861   0.948  1.2152 -0.2779 -1.3094
  726TIP3    H2 2143   5.338   1.852   0.961  1.0541 -0.9816  0.2567
  727TIP3   OH2 2144   4.849   4.189   3.566  0.4251  0.9824  0.4068
  727TIP3    H1 2145   4.889   4.106   3.541 -0.1065  1.1534 -1.1127
  727TIP3    H2 2146   4.842   4.185   3.662 -0.6841 -1.2174  0.2961
  728TIP3   OH2 2147   0.574   3.300   4.704 -0.6266  0.1033 -0.0416
  728TIP3    H1 2148   0.515   3.283   4.630  0.3040 -0.1527 -0.7511
  728TIP3    H2 2149   0.649   3.241   4.689  0.1680  0.9697  0.4111
  729TIP3   OH2 2150   5.276   1.216   2.860 -0.4709 -0.0263 -0.2131
  729TIP3    H1 2151   5.222   1.292   2.840 -1.6828 -0.4756  1.1174
  729TIP3    H2 2152   5.323   1.197   2.779 -1.5594  1.0057 -1.1196
  730TIP3   OH2 2153   5.274   6.583   0.228 -0.2442  0.3053 -0.7501
  730TIP3    H1 2154   5.293   6.562   0.320  0.4944 -0.1348 -0.9969
  730TIP3    H2 2155   5.225   6.665   0.232  0.5222  0.7403 -0.0121
  731TIP3   OH2 2156   6.339   6.080   4.686 -0.0589  0.8357  0.1640
  731TIP3    H1 2157   6.359   6.050   4.597 -1.5088 -0.8128  0.3308
  731TIP3    H2 2158   6.254   6.041   4.705 -0.7137  2.8039  1.5560
  732TIP3   OH2 2159   0.518   4.035   4.746  0.6643 -0.1279  0.1808
  732TIP3    H1 2160   0.495   4.025   4.838  0.4137 -0.7113  0.0629
  732TIP3    H2 2161   0.606   4.073   4.747 -0.0798  1.6623  0.6408
  733TIP3   OH2 2162   0.215   6.206   5.131  0.5997  0.5769  0.3859
  733TIP3    H1 2163   0.146   6.165   5.183 -0.0120 -0.2839 -1.0585
  733TIP3    H2 2164   0.297   6.172   5.168  0.1279 -3.0497 -1.4752
  734TIP3   OH2 2165   1.166   4.400   0.298 -0.2080  0.4125  0.1209
  734TIP3    H1 2166   1.123   4.340   0.237 -0.2874  0.4641  0.1263
  734TIP3    H2 2167   1.240   4.350   0.333 -0.4370  0.2230  0.3337
  735TIP3   OH2 2168   2.516   2.532   5.754  0.1643 -0.0421  0.3086
  735TIP3    H1 2169   2.594   2.578   5.785 -0.1435  0.0304  0.9874
  735TIP3    H2 2170   2.478   2.493   5.833 -0.8982  0.5509  0.1134
  736TIP3   OH2 2171   5.444   3.781   5.840  0.3273 -0.0051  0.5604
  736TIP3    H1 2172   5.367   3.729   5.818  0.7956  0.4253 -2.5868
  736TIP3    H2 2173   5.411   3.851   5.897 -1.4515 -0.3266 -0.0186
  737TIP3   OH2 2174   5.077   3.198   1.117 -0.0311 -0.0960  0.5782
  737TIP3    H1 2175   5.003   3.181   1.175  0.1688 -1.2270  0.5367
  737TIP3    H2 2176   5.153   3.165   1.165  0.2907  0.0446  0.1682
  738TIP3   OH2 2177   3.406   1.869   4.997  0.3285  0.1006 -0.3053
  738TIP3    H1 2178   3.488   1.867   5.046 -0.1039 -1.4458  0.4058
  738TIP3    H2 2179   3.380   1.777   4.989 -0.3546  0.4238 -2.2150
  739TIP3   OH2 2180   0.291   2.109   5.693 -0.1117 -0.2095  0.0578
  739TIP3    H1 2181   0.317   2.059   5.616  1.9629 -1.0135  1.1985
  739TIP3    H2 2182   0.290   2.200   5.664  1.5831 -0.4050 -0.7070
  740TIP3   OH2 2183   6.909   3.949   3.487 -0.2147  0.3613  0.5090
  740TIP3    H1 2184   6.958   4.021   3.447 -0.1697  0.1256  0.1271
  740TIP3    H2 2185   6.868   3.987   3.565 -1.7767  1.3069 -0.7117
  741TIP3   OH2 2186   5.533   3.252   1.347  0.5912  0.2202 -0.2548
  741TIP3    H1 2187   5.497   3.163   1.345  0.8330  0.1282 -0.5909
  741TIP3    H2 2188   5.476   3.303   1.290  1.4134 -0.0912 -1.3882
  742TIP3   OH2 2189   6.682   6.676   3.955  0.2761 -0.1378 -0.0591
  742TIP3    H1 2190   6.617   6.684   4.024  1.6240 -1.0384  1.3647
  742TIP3    H2 2191   6.631   6.658   3.876 -1.1983 -0.8099  1.0038
  743TIP3   OH2 2192   2.430   5.225   4.664 -0.2084 -0.8060 -0.1573
  743TIP3    H1 2193   2.349   5.247   4.709  0.2195 -1.5993  1.0434
  743TIP3    H2 2194   2.492   5.205   4.734  1.1641  0.2085 -1.0288
  744TIP3   OH2 2195   1.868   5.561   1.755  0.6698  0.7252  0.0295
  744TIP3    H1 2196   1.904   5.473   1.761  1.0455  0.9483  1.3686
  744TIP3    H2 2197   1.845   5.584   1.845 -0.5197  1.5547 -0.4490
  745TIP3   OH2 2198   3.301   6.724   0.770  0.4577  0.2455  0.0573
  745TIP3    H1 2199   3.220   6.675   0.782  0.7439  0.2586  2.6885
  745TIP3    H2 2200   3.275   6.816   0.779  0.7333  0.2560  0.8023
  746TIP3   OH2 2201   4.302   3.193   2.457  0.0849  0.0930  0.1737
  746TIP3    H1 2202   4.301   3.182   2.362  1.8670 -3.0662  0.3642
  746TIP3    H2 2203   4.227   3.142   2.488  0.0677  0.3065  0.4893
  747TIP3   OH2 2204   3.195   3.190   2.884  0.0958  0.0156 -0.0951
  747TIP3    H1 2205   3.200   3.114   2.826  1.8436 -0.6338  0.8353
  747TIP3    H2 2206   3.267   3.247   2.855  0.0162  0.4049  0.4612
  748TIP3   OH2 2207   2.105   2.029   0.722 -0.3097  0.6843 -0.0123
  748TIP3    H1 2208   2.092   2.055   0.631 -0.7321 -0.7750 -0.3929
  748TIP3    H2 2209   2.115   1.934   0.719 -1.1008  0.5150  1.5458
  749TIP3   OH2 2210   1.886   4.146   1.399 -0.2100  0.3245  0.1213
  749TIP3    H1 2211   1.883   4.083   1.326  2.2232  0.5292 -0.2473
  749TIP3    H2 2212   1.850   4.097   1.473  0.6858 -1.1980 -0.3866
  750TIP3   OH2 2213   2.054   3.418   0.986  0.5927  0.3224 -0.2134
  750TIP3    H1 2214   2.053   3.450   0.896 -0.6126 -0.2905 -0.4288
  750TIP3    H2 2215   2.147   3.401   1.004  1.1438  2.7133 -0.4974
  751TIP3   OH2 2216   0.914   6.506   5.413 -0.0811 -0.0392 -0.5395
  751TIP3    H1 2217   0.841   6.558   5.380  1.3829  0.5301 -3.1942
  751TIP3    H2 2218   0.961   6.565   5.471 -0.6833  0.2276 -0.3146
  752TIP3   OH2 2219   5.395   0.849   5.644  0.2186  0.4088 -0.5368
  752TIP3    H1 2220   5.335   0.797   5.697  0.1174 -0.8454 -1.8379
  752TIP3    H2 2221   5.345   0.871   5.566  0.4230  2.1030 -0.2228
  753TIP3   OH2 2222   0.478   5.454   2.985  0.0063 -0.0780  0.5707
  753TIP3    H1 2223   0.431   5.474   2.904  1.9961 -0.0426 -0.6583
  753TIP3    H2 2224   0.557   5.408   2.955  0.5455 -0.5050  2.5517
  754TIP3   OH2 2225   2.844   6.755   2.501  0.1704  0.2207  0.0825
  754TIP3    H1 2226   2.761   6.736   2.545  1.0582 -0.5181  1.4943
  754TIP3    H2 2227   2.874   6.669   2.470 -0.0119  0.6102 -1.2661
  755TIP3   OH2 2228   0.456   1.770   0.120  0.0364 -0.5846  0.1107
  755TIP3    H1 2229   0.510   1.843   0.152 -1.1422 -0.0127  0.8604
  755TIP3    H2 2230   0.427   1.726   0.199 -1.0273 -0.5571 -0.2494
  756TIP3   OH2 2231   3.733   6.563   0.463  0.1971  0.0798 -0.9242
  756TIP3    H1 2232   3.752   6.543   0.372 -1.0849  2.9187 -1.9288
  756TIP3    H2 2233   3.700   6.653   0.462  0.2454  0.2694  2.3666
  757TIP3   OH2 2234   7.036   4.265   5.358  0.0489 -0.1498 -0.2393
  757TIP3    H1 2235   7.078   4.345   5.389 -1.2058  1.4466 -2.3744
  757TIP3    H2 2236   7.103   4.198   5.368  1.4393  1.3075  0.8439
  758TIP3   OH2 2237   1.280   0.655   4.698 -0.0686  0.3447 -0.3214
  758TIP3    H1 2238   1.267   0.560   4.688  0.2659  0.3849 -1.2178
  758TIP3    H2 2239   1.265   0.671   4.791 -0.2256 -0.5778 -0.1742
  759TIP3   OH2 2240   6.223   4.787   1.477  0.0795 -0.4086 -0.6982
  759TIP3    H1 2241   6.161   4.856   1.500 -0.2859 -0.5559 -1.2137
  759TIP3    H2 2242   6.257   4.812   1.391  0.6730 -0.3772 -0.4621
  760TIP3   OH2 2243   0.978   5.276   0.738  0.5454 -0.7653 -0.0644
  760TIP3    H1 2244   0.934   5.220   0.674  1.5495 -0.6910 -0.8389
  760TIP3    H2 2245   0.913   5.289   0.807 -1.1599  0.4062 -1.7774
  761TIP3   OH2 2246   5.001   2.781   3.953 -0.4734 -0.0156  0.3578
  761TIP3    H1 2247   4.920   2.829   3.939 -0.1440  0.4749  0.0989
  761TIP3    H2 2248   4.997   2.753   4.045 -0.1770  1.4778  0.8463
  762TIP3   OH2 2249   3.758   4.477   4.697 -0.2387 -0.1646 -0.4016
  762TIP3    H1 2250   3.814   4.538   4.649  1.6181 -0.3176  1.4434
  762TIP3    H2 2251   3.671   4.489   4.658  0.1836  3.1128 -0.6205
  763TIP3   OH2 2252   2.168   5.033   1.868  0.0312 -0.2129 -0.5245
  763TIP3    H1 2253   2.079   5.057   1.894  0.1731  0.7515 -0.8814
  763TIP3    H2 2254   2.219   5.114   1.878  0.8065 -0.6755 -0.6051
  764TIP3   OH2 2255   3.064   0.530   5.353 -0.6430  0.1084 -0.1749
  764TIP3    H1 2256   3.024   0.490   5.276 -0.6317  1.6060 -1.0101
  764TIP3    H2 2257   3.111   0.606   5.318  3.5148 -1.8286  0.6312
  765TIP3   OH2 2258   2.859   0.179   1.138 -0.1783  0.9013 -0.6483
  765TIP3    H1 2259   2.946   0.175   1.099 -0.6341 -2.4846 -1.6171
  765TIP3    H2 2260   2.826   0.265   1.115  1.4791  0.8686 -3.5638
  766TIP3   OH2 2261   4.057   0.374   5.153 -0.6669  0.2689  0.2222
  766TIP3    H1 2262   4.119   0.314   5.113 -1.0962  0.3972 -0.6541
  766TIP3    H2 2263   4.066   0.455   5.104 -0.0700  0.9520  1.4101
  767TIP3   OH2 2264   1.708   5.688   4.888  0.5015  0.2004  0.5425
  767TIP3    H1 2265   1.669   5.728   4.967 -1.3626 -0.6888  0.1285
  767TIP3    H2 2266   1.650   5.715   4.817  1.2537 -0.3351 -0.2885
  768TIP3   OH2 2267   4.877   1.246   3.656  0.6643  0.3080 -0.4347
  768TIP3    H1 2268   4.928   1.320   3.626  2.9081 -0.9040  0.1523
  768TIP3    H2 2269   4.844   1.273   3.742  0.6656  0.9590 -0.6358
  769TIP3   OH2 2270   5.579   1.514   3.729  0.3322  0.8223  0.0543
  769TIP3    H1 2271   5.638   1.440   3.739 -0.8737 -0.1950 -0.1083
  769TIP3    H2 2272   5.636   1.591   3.724  1.8220 -0.3351 -2.8000
  770TIP3   OH2 2273   2.735   4.989   5.206  0.1560 -0.0392 -0.0756
  770TIP3    H1 2274   2.752   5.014   5.297 -0.5514 -0.1581  0.0916
  770TIP3    H2 2275   2.821   4.960   5.174  0.7964  1.6589  0.0086
  771TIP3   OH2 2276   1.463   5.081   1.657  0.0145 -0.0667  0.6167
  771TIP3    H1 2277   1.408   5.139   1.604 -0.6621  1.0560  2.4182
  771TIP3    H2 2278   1.413   5.068   1.738  0.9137 -1.8422  0.9395
  772TIP3   OH2 2279   2.222   1.009   4.643 -0.1385 -0.5892  0.5101
  772TIP3    H1 2280   2.297   1.007   4.583 -1.4630  0.6891 -1.3066
  772TIP3    H2 2281   2.261   1.028   4.729  1.7265 -1.3730 -0.1091
  773TIP3   OH2 2282   5.567   2.021   2.922 -0.0220  0.3565 -0.3529
  773TIP3    H1 2283   5.578   2.115   2.932  0.4433  0.2042  0.6536
  773TIP3    H2 2284   5.651   1.983   2.949 -0.2609 -0.3589 -0.5713
  774TIP3   OH2 2285   6.917   0.998   0.118 -0.0640 -1.2349 -0.0592
  774TIP3    H1 2286   6.867   0.944   0.179 -0.1262 -3.0012 -1.5818
  774TIP3    H2 2287   7.007   0.965   0.125  0.1118 -0.7871 -0.2095
  775TIP3   OH2 2288   6.558   4.466   5.528 -0.2374 -0.3257 -0.2986
  775TIP3    H1 2289   6.560   4.472   5.624  1.4559  0.3151 -0.3438
  775TIP3    H2 2290   6.465   4.460   5.507 -0.7223  0.7070  1.3304
  776TIP3   OH2 2291   4.383   0.159   5.219 -0.3252  0.9270  0.3912
  776TIP3    H1 2292   4.360   0.106   5.295  0.1457 -0.8003 -0.6289
  776TIP3    H2 2293   4.308   0.150   5.160  0.9917 -1.1461 -1.0718
  777TIP3   OH2 2294   1.173   2.282   1.901  0.3946 -0.2331  0.3439
  777TIP3    H1 2295   1.207   2.194   1.911  0.7418 -0.0494  0.8433
  777TIP3    H2 2296   1.119   2.296   1.979  0.1479 -0.0905  0.1508
  778TIP3   OH2 2297   1.180   1.378   1.551 -0.6045  0.0846  0.0010
  778TIP3    H1 2298   1.261   1.341   1.587 -0.2928 -0.5878 -1.3249
  778TIP3    H2 2299   1.196   1.472   1.549  0.1017 -0.0293 -0.1113
  779TIP3   OH2 2300   3.373   4.625   5.827  0.1673  0.4980  0.4065
  779TIP3    H1 2301   3.293   4.667   5.796 -0.5967  0.1631  1.8067
  779TIP3    H2 2302   3.344   4.567   5.898  1.5116 -0.4702  0.2229
  780TIP3   OH2 2303   0.323   5.957   4.064  0.6135 -0.0670 -0.2644
  780TIP3    H1 2304   0.337   6.028   4.127 -0.4622  0.2171 -0.3264
  780TIP3    H2 2305   0.363   5.880   4.105  1.2221  0.4302  0.0943
  781TIP3   OH2 2306   0.263   5.574  -0.007 -0.5048  0.0851  0.1018
  781TIP3    H1 2307   0.248   5.611   0.080 -2.3984  2.7570 -1.2350
  781TIP3    H2 2308   0.333   5.627  -0.045 -0.4223 -0.3602 -0.3860
  782TIP3   OH2 2309   0.291   3.531   0.346 -0.5287 -0.0108 -0.5911
  782TIP3    H1 2310   0.298   3.579   0.429  1.0684  0.1477 -0.7867
  782TIP3    H2 2311   0.287   3.600   0.279 -1.4342 -0.1421 -0.6848
  783TIP3   OH2 2312   6.384   6.189   4.283  0.0502  0.2365 -0.6893
  783TIP3    H1 2313   6.385   6.137   4.203 -0.5179 -0.3991 -0.2954
  783TIP3    H2 2314   6.454   6.253   4.271 -0.4580  0.5716 -1.9701
  784TIP3   OH2 2315   0.182   3.465   1.103 -0.8124  0.3111 -0.2416
  784TIP3    H1 2316   0.219   3.535   1.157 -0.2623  0.5519 -0.9187
  784TIP3    H2 2317   0.091   3.491   1.090 -0.8593  0.4236  0.2732
  785TIP3   OH2 2318   2.927   6.397   3.137 -0.2545 -0.0738 -0.0538
  785TIP3    H1 2319   3.010   6.417   3.180 -0.1499 -0.5105 -0.0480
  785TIP3    H2 2320   2.920   6.301   3.141 -0.3705 -0.1042 -0.7569
  786TIP3   OH2 2321   3.432   2.290   1.682  0.2234  0.4876 -0.3806
  786TIP3    H1 2322   3.410   2.357   1.618  0.4464  1.3323  0.4046
  786TIP3    H2 2323   3.441   2.337   1.765 -0.3907 -0.6251  0.3531
  787TIP3   OH2 2324   2.644   2.860   5.825  0.3569  0.0828 -0.3037
  787TIP3    H1 2325   2.568   2.832   5.774  1.0891 -3.0268  0.1464
  787TIP3    H2 2326   2.625   2.952   5.846 -2.4691 -0.0842 -1.5902
  788TIP3   OH2 2327   3.367   5.047   3.880  0.6102 -0.2470  0.0147
  788TIP3    H1 2328   3.433   4.993   3.923 -0.1507  0.2716  1.9802
  788TIP3    H2 2329   3.361   5.126   3.935 -0.9798  0.1169 -0.6057
  789TIP3   OH2 2330   5.139   4.746   5.805 -0.0265 -0.5217  0.1459
  789TIP3    H1 2331   5.194   4.694   5.747  0.6670  2.8190 -2.5234
  789TIP3    H2 2332   5.198   4.777   5.873  0.2562 -0.8417  0.0464
  790TIP3   OH2 2333   3.579   3.083   2.573 -0.4576 -0.0459  0.4213
  790TIP3    H1 2334   3.648   3.016   2.573 -0.3398  0.0756  0.3252
  790TIP3    H2 2335   3.624   3.165   2.591 -0.1808  0.4312 -2.0448
  791TIP3   OH2 2336   4.640   2.487   3.787  0.6595 -0.4561  0.0769
  791TIP3    H1 2337   4.617   2.480   3.694 -1.9421  0.7655  0.5380
  791TIP3    H2 2338   4.726   2.445   3.794  0.1828 -2.0779 -2.5658
  792TIP3   OH2 2339   3.124   2.270   4.789  0.4176 -0.0347  0.3114
  792TIP3    H1 2340   3.116   2.296   4.697  0.6804  2.5236  0.9438
  792TIP3    H2 2341   3.036   2.281   4.825  0.2583 -1.2736  0.3596
  793TIP3   OH2 2342   2.323   1.517   2.801  0.1832  0.0163 -0.0174
  793TIP3    H1 2343   2.272   1.541   2.878  1.4166 -0.2230  0.9089
  793TIP3    H2 2344   2.265   1.460   2.751 -0.0149 -1.3753  1.6921
  794TIP3   OH2 2345   3.814   3.335   0.057 -0.3105 -0.0169 -0.3757
  794TIP3    H1 2346   3.832   3.368  -0.031  0.4472  0.1162 -0.1789
  794TIP3    H2 2347   3.745   3.392   0.090 -0.4048  0.1084 -0.7808
  795TIP3   OH2 2348   0.558   4.810   2.363  0.2448  0.0774  0.5450
  795TIP3    H1 2349   0.463   4.796   2.356  0.3054 -0.0771 -0.0146
  795TIP3    H2 2350   0.594   4.774   2.282  0.7717  0.2570  0.6929
  796TIP3   OH2 2351   2.428   4.537   0.844  0.2678  0.1217 -0.0342
  796TIP3    H1 2352   2.496   4.549   0.777  1.0897  0.6831  0.8794
  796TIP3    H2 2353   2.445   4.449   0.879 -1.1913 -0.8654 -1.6632
  797TIP3   OH2 2354   5.171   1.354   3.660  0.2154  0.4639  0.1613
  797TIP3    H1 2355   5.230   1.301   3.606  0.3806  0.4620  0.3410
  797TIP3    H2 2356   5.217   1.363   3.744  0.2709  1.0443  0.0743
  798TIP3   OH2 2357   0.283   6.082   4.873 -0.1435  0.4062  0.3465
  798TIP3    H1 2358   0.269   6.134   4.952  2.9331  1.0686  0.5945
  798TIP3    H2 2359   0.325   6.143   4.812 -1.5351 -0.3705 -1.4606
  799TIP3   OH2 2360   5.818   5.532   0.955  0.1094 -0.0065 -0.4162
  799TIP3    H1 2361   5.890   5.498   0.902 -0.8696 -2.6377 -0.2119
  799TIP3    H2 2362   5.742   5.529   0.896 -0.6134 -1.2134  0.5349
  800TIP3   OH2 2363   2.043   6.444   4.153 -0.8600 -0.1215 -0.7678
  800TIP3    H1 2364   1.982   6.377   4.121 -0.3412 -2.0902  1.9326
  800TIP3    H2 2365   2.127   6.421   4.114 -0.7251 -1.0136 -0.0027
  801TIP3   OH2 2366   4.979   2.651   3.573 -0.4916  0.2212 -0.0936
  801TIP3    H1 2367   4.886   2.658   3.554  0.0391  0.5399 -3.0558
  801TIP3    H2 2368   5.011   2.741   3.570  0.1866 -0.0340 -0.9184
  802TIP3   OH2 2369   4.042   2.227   3.747 -0.1275  0.1062 -0.5629
  802TIP3    H1 2370   4.098   2.151   3.759 -1.1348 -0.5017  0.5098
  802TIP3    H2 2371   4.098   2.302   3.768  0.2272 -0.5113  0.7933
  803TIP3   OH2 2372   5.009   6.723   2.234 -0.5168 -0.1147 -0.4938
  803TIP3    H1 2373   4.955   6.660   2.282  2.4340 -1.5641  1.1785
  803TIP3    H2 2374   5.009   6.801   2.289  1.2036 -1.0739  0.9839
  804TIP3   OH2 2375   0.876   3.395   3.633 -0.6551 -0.2277 -0.4039
  804TIP3    H1 2376   0.810   3.327   3.618 -0.3430 -0.5714 -0.2302
  804TIP3    H2 2377   0.879   3.406   3.728  0.8939 -1.5860 -0.2632
  805TIP3   OH2 2378   0.524   6.102   1.638 -0.6715 -0.0254  0.4071
  805TIP3    H1 2379   0.444   6.097   1.586  0.2916 -0.7205 -1.0651
  805TIP3    H2 2380   0.580   6.165   1.592  0.8103 -1.7994 -0.3405
  806TIP3   OH2 2381   0.161   3.065   0.722  0.4205 -0.0410 -0.0275
  806TIP3    H1 2382   0.135   3.097   0.808 -3.0031  0.4367 -1.0802
  806TIP3    H2 2383   0.187   2.974   0.738 -0.7064 -0.1499  1.4567
  807TIP3   OH2 2384   1.576   1.059   0.245 -0.1852 -0.0489  0.1780
  807TIP3    H1 2385   1.629   1.139   0.245 -1.2003  0.8182  3.9608
  807TIP3    H2 2386   1.628   0.996   0.295 -1.7340  0.2304  2.3096
  808TIP3   OH2 2387   3.357   4.523   3.595 -0.6699 -0.1929 -0.1031
  808TIP3    H1 2388   3.270   4.545   3.560 -0.6519  0.8912  0.4862
  808TIP3    H2 2389   3.408   4.603   3.586  0.0515 -0.6013  0.2321
  809TIP3   OH2 2390   0.599   5.433   1.278 -0.4273 -0.3317  0.1411
  809TIP3    H1 2391   0.665   5.400   1.339 -0.4054  0.1206  0.3679
  809TIP3    H2 2392   0.557   5.355   1.242  0.5695 -0.6367 -0.3817
  810TIP3   OH2 2393   6.126   0.495   1.525 -0.4841 -0.4284 -0.7046
  810TIP3    H1 2394   6.062   0.431   1.558  0.6194 -0.5783  1.2593
  810TIP3    H2 2395   6.124   0.566   1.588  0.6794 -0.0478 -1.0737
  811TIP3   OH2 2396   2.483   4.910   5.602 -0.3317 -0.6372 -0.0867
  811TIP3    H1 2397   2.560   4.857   5.625 -1.1620 -2.5978 -1.5074
  811TIP3    H2 2398   2.409   4.850   5.611 -1.5243  0.7392 -0.3239
  812TIP3   OH2 2399   2.357   5.158   4.382 -0.5870 -0.2379  0.8206
  812TIP3    H1 2400   2.277   5.177   4.333  0.4686  0.5359 -0.6877
  812TIP3    H2 2401   2.328   5.153   4.473 -2.3440  0.0233  0.3274
  813TIP3   OH2 2402   6.907   3.427   1.309 -0.0015 -0.4820 -0.5928
  813TIP3    H1 2403   6.997   3.434   1.340  0.6557 -0.8817 -2.2706
  813TIP3    H2 2404   6.882   3.516   1.287  0.2503 -0.4512 -0.7656
  814TIP3   OH2 2405   5.994   6.116   1.074  0.2568  0.9574 -0.5110
  814TIP3    H1 2406   5.957   6.200   1.045  0.3130  0.8498 -0.9073
  814TIP3    H2 2407   5.918   6.059   1.086  0.0095  1.6942  1.9541
  815TIP3   OH2 2408   2.168   5.951   4.527  0.3423  0.2774 -0.2264
  815TIP3    H1 2409   2.191   5.986   4.613  0.8947 -0.9529  0.1418
  815TIP3    H2 2410   2.179   5.857   4.535 -1.6209 -0.0737 -1.0435
  816TIP3   OH2 2411   2.440   1.680   5.812 -0.4354 -0.3858  0.5139
  816TIP3    H1 2412   2.379   1.752   5.826 -1.6548 -1.0586 -0.9904
  816TIP3    H2 2413   2.517   1.721   5.772 -0.5106  0.2547  1.0004
  817TIP3   OH2 2414   0.377   5.541   4.769  0.1776 -0.0755  0.3900
  817TIP3    H1 2415   0.285   5.546   4.742  0.5909 -0.6530 -1.2706
  817TIP3    H2 2416   0.420   5.610   4.718  0.9846 -1.1412 -0.4163
  818TIP3   OH2 2417   3.409   1.215   5.146  0.2514 -0.1382  0.0697
  818TIP3    H1 2418   3.365   1.296   5.170 -0.4418 -0.4915  0.0271
  818TIP3    H2 2419   3.474   1.201   5.214  0.6904  0.6890 -0.1710
  819TIP3   OH2 2420   4.786   3.622   2.282  0.2737  0.2769  0.2358
  819TIP3    H1 2421   4.799   3.534   2.315 -0.3590  0.0265 -0.1614
  819TIP3    H2 2422   4.823   3.679   2.349  1.6303 -0.3181  0.0265
  820TIP3   OH2 2423   3.597   3.490   1.608  0.1329  0.3029  0.1400
  820TIP3    H1 2424   3.648   3.425   1.560 -0.7772 -0.0499 -0.3711
  820TIP3    H2 2425   3.506   3.461   1.599 -0.3150  1.7167 -0.2128
  821TIP3   OH2 2426   4.932   2.104   1.856  0.0207  0.4185  0.0358
  821TIP3    H1 2427   4.923   2.047   1.932  0.2622 -0.2325 -0.4143
  821TIP3    H2 2428   5.021   2.087   1.824 -0.7610 -0.8477 -1.5906
  822TIP3   OH2 2429   0.494   2.065   5.194  0.5256 -0.4818  0.1456
  822TIP3    H1 2430   0.506   2.031   5.282 -1.0044  1.3451  1.1399
  822TIP3    H2 2431   0.501   2.160   5.203  0.5637 -0.2499 -1.7463
  823TIP3   OH2 2432   2.635   1.005   4.203 -0.2917  0.2263 -0.2206
  823TIP3    H1 2433   2.681   0.992   4.120  2.0481  1.3499  0.8091
  823TIP3    H2 2434   2.585   0.924   4.216  0.6377 -0.6620 -1.8976
  824TIP3   OH2 2435   0.843   4.326   4.234  0.0399 -0.0897  0.3668
  824TIP3    H1 2436   0.924   4.374   4.252 -0.0926 -0.3870  1.8699
  824TIP3    H2 2437   0.865   4.235   4.253 -0.5255 -0.2309  0.3550
  825TIP3   OH2 2438   5.746   1.120   4.544 -0.0576  0.1440 -0.0853
  825TIP3    H1 2439   5.828   1.161   4.519  0.7921  1.0163  3.5197
  825TIP3    H2 2440   5.755   1.029   4.515  0.8908  0.8646 -2.2589
  826TIP3   OH2 2441   3.539   3.707   2.131 -0.2233 -0.4142 -0.0508
  826TIP3    H1 2442   3.518   3.636   2.072  1.1969 -0.5911 -0.3972
  826TIP3    H2 2443   3.475   3.775   2.111 -0.7623 -1.0877 -0.6604
  827TIP3   OH2 2444   5.277   3.935   1.127 -0.3680  0.3534 -0.0733
  827TIP3    H1 2445   5.232   3.927   1.211 -0.3799  1.7153  0.0694
  827TIP3    H2 2446   5.221   3.887   1.065 -0.7337 -0.0350  0.5460
  828TIP3   OH2 2447   5.274   5.431   4.746  0.0035 -0.1496 -0.2380
  828TIP3    H1 2448   5.367   5.449   4.738 -0.0503 -0.2399 -1.2067
  828TIP3    H2 2449   5.260   5.350   4.696 -0.5185 -0.3833  0.2673
  829TIP3   OH2 2450   6.070   2.566   2.440 -0.3489  0.1153 -0.1525
  829TIP3    H1 2451   6.108   2.508   2.374 -0.3987  1.4361 -1.4151
  829TIP3    H2 2452   6.130   2.641   2.443 -2.1621  1.7083 -1.3468
  830TIP3   OH2 2453   0.576   2.147   2.014 -0.5593  0.1914  1.0280
  830TIP3    H1 2454   0.543   2.085   1.949 -1.0999 -0.4314  1.8772
  830TIP3    H2 2455   0.522   2.132   2.091  0.6005  0.3302  1.9000
  831TIP3   OH2 2456   1.031   4.853   0.107  0.2396 -0.0407  0.3485
  831TIP3    H1 2457   1.031   4.843   0.012 -0.3088 -3.7084  0.6016
  831TIP3    H2 2458   1.114   4.815   0.136 -1.1441 -2.4295  1.4740
  832TIP3   OH2 2459   5.249   1.139   1.623  0.5220 -0.0867 -0.2890
  832TIP3    H1 2460   5.217   1.119   1.535 -1.6330 -2.6046  0.9284
  832TIP3    H2 2461   5.234   1.058   1.672  1.3460  1.3403  2.4809
  833TIP3   OH2 2462   6.540   3.274   5.846  0.4430  0.0231 -0.0872
  833TIP3    H1 2463   6.515   3.182   5.847  0.5215 -0.0008 -0.2778
  833TIP3    H2 2464   6.464   3.320   5.884  0.4577 -0.1318  0.1303
  834TIP3   OH2 2465   1.915   3.455   5.320  0.3824  0.4457 -0.0630
  834TIP3    H1 2466   1.980   3.512   5.360 -2.2645  3.1655  0.6863
  834TIP3    H2 2467   1.870   3.413   5.394 -0.4353  0.6542 -0.4277
  835TIP3   OH2 2468   0.817   3.523   2.764 -0.2605  0.2814  0.2686
  835TIP3    H1 2469   0.883   3.591   2.750  1.1716 -0.3591  3.1263
  835TIP3    H2 2470   0.862   3.441   2.743 -1.1390 -0.0038 -0.6058
  836TIP3   OH2 2471   3.382   4.577   5.233  0.1767  0.5273  0.4889
  836TIP3    H1 2472   3.399   4.555   5.325 -1.1868  0.2209  0.6938
  836TIP3    H2 2473   3.412   4.501   5.184 -0.9056 -0.1556  0.8621
  837TIP3   OH2 2474   2.334   0.305   5.411 -0.0988 -0.1402  0.0735
  837TIP3    H1 2475   2.300   0.215   5.412 -1.5166  0.3783 -0.0124
  837TIP3    H2 2476   2.418   0.299   5.457 -0.6054 -1.3441  0.9021
  838TIP3   OH2 2477   3.850   3.158   0.638  0.3380  0.1395 -0.1461
  838TIP3    H1 2478   3.794   3.147   0.715 -0.2496 -1.9142 -0.8030
  838TIP3    H2 2479   3.939   3.157   0.672  0.0541  0.3072  0.6122
  839TIP3   OH2 2480   1.443   0.690   5.384 -0.1446  0.1228  0.1193
  839TIP3    H1 2481   1.488   0.613   5.350 -0.9795 -0.1600 -0.3676
  839TIP3    H2 2482   1.415   0.665   5.472  0.0406  0.0573  0.1600
  840TIP3   OH2 2483   1.637   5.397   4.863  0.6713 -0.0214 -0.1554
  840TIP3    H1 2484   1.659   5.367   4.775 -0.4081 -0.4633 -0.2777
  840TIP3    H2 2485   1.649   5.492   4.859  1.2485 -0.1034 -0.5861
  841TIP3   OH2 2486   5.059   2.286   0.573 -0.1291 -0.3986 -0.4483
  841TIP3    H1 2487   5.133   2.337   0.606 -0.4841  1.8985 -2.8781
  841TIP3    H2 2488   5.077   2.196   0.601  2.1608  0.5227  1.3249
  842TIP3   OH2 2489   3.675   3.180   4.692 -0.4288  0.4911 -0.1473
  842TIP3    H1 2490   3.680   3.228   4.609  1.2163 -1.7916 -1.4978
  842TIP3    H2 2491   3.715   3.238   4.756 -3.2605  3.0372 -0.4551
  843TIP3   OH2 2492   1.311   3.142   3.666  0.0753 -0.0447 -0.8190
  843TIP3    H1 2493   1.383   3.194   3.701 -1.7625  0.4902  2.5696
  843TIP3    H2 2494   1.307   3.167   3.573  1.6684  2.9856 -0.2045
  844TIP3   OH2 2495   6.686   1.307   4.734 -0.1242  0.0265  0.2024
  844TIP3    H1 2496   6.729   1.313   4.649 -0.2266  0.2873  0.1667
  844TIP3    H2 2497   6.753   1.333   4.797 -0.2578  0.5427  0.1367
  845TIP3   OH2 2498   4.588   0.869   1.703 -0.0298  0.0531  0.3934
  845TIP3    H1 2499   4.566   0.855   1.611  1.2330 -0.7812  0.1944
  845TIP3    H2 2500   4.505   0.862   1.750 -0.9800  2.1461 -0.8315
  846TIP3   OH2 2501   2.209   3.285   5.680 -0.1305  0.2709  0.0093
  846TIP3    H1 2502   2.267   3.279   5.604 -0.7179  1.5259 -0.5614
  846TIP3    H2 2503   2.252   3.351   5.736  0.6322 -1.0964  1.0915
  847TIP3   OH2 2504   0.003   1.024   1.606 -0.7993 -0.3981  0.0361
  847TIP3    H1 2505  -0.010   0.996   1.515 -0.3213 -0.4228 -0.0282
  847TIP3    H2 2506   0.052   0.952   1.646 -1.2252 -0.4971  0.3820
  848TIP3   OH2 2507   2.588   4.168   0.051  0.3197  0.0100  0.3159
  848TIP3    H1 2508   2.517   4.232   0.043  0.2922 -0.0906 -0.3256
  848TIP3    H2 2509   2.641   4.200   0.124  1.3694  1.8365 -1.1531
  849TIP3   OH2 2510   6.608   1.828   0.970  0.5735  0.0014  0.3301
  849TIP3    H1 2511   6.703   1.829   0.962  0.6528 -2.8353 -0.2444
  849TIP3    H2 2512   6.578   1.792   0.886 -0.9608  0.2691  0.7398
  850TIP3   OH2 2513   1.232   1.939   0.783 -0.1937  0.0370 -0.2843
  850TIP3    H1 2514   1.255   1.971   0.871  0.0403  2.8307 -1.2728
  850TIP3    H2 2515   1.283   1.859   0.773 -0.2447 -0.3691  2.1228
  851TIP3   OH2 2516   2.528   5.771   1.301  0.7051 -0.2377 -0.2732
  851TIP3    H1 2517   2.598   5.718   1.263  0.4431  0.0280 -1.1457
  851TIP3    H2 2518   2.447   5.731   1.268  0.5118  1.0622 -1.4689
  852TIP3   OH2 2519   6.679   2.387   0.379  0.1121  0.2483  0.1365
  852TIP3    H1 2520   6.640   2.407   0.294  3.0986 -0.8320 -1.6882
  852TIP3    H2 2521   6.741   2.458   0.394 -0.8702  0.8034  1.8432
  853TIP3   OH2 2522   4.761   5.660   4.279 -0.2733 -0.2968 -0.3973
  853TIP3    H1 2523   4.775   5.699   4.366  1.6174 -2.3130  0.3050
  853TIP3    H2 2524   4.787   5.727   4.217  1.4730  0.0975  0.7143
  854TIP3   OH2 2525   4.430   1.142   5.796 -0.5187 -0.0580 -0.4916
  854TIP3    H1 2526   4.502   1.147   5.733  0.0521 -0.2732  0.1405
  854TIP3    H2 2527   4.382   1.224   5.783  0.7310  0.8087  0.1384
  855TIP3   OH2 2528   1.699   0.906   4.769  0.2275  0.0976  0.0674
  855TIP3    H1 2529   1.781   0.930   4.726  0.0802  0.8112  0.1864
  855TIP3    H2 2530   1.639   0.977   4.750 -0.4778 -0.5873 -0.3072
  856TIP3   OH2 2531   0.699   2.460   1.658  0.0374  0.0391 -0.1707
  856TIP3    H1 2532   0.648   2.379   1.668  2.1633 -1.6270 -1.6716
  856TIP3    H2 2533   0.764   2.455   1.728 -2.1335  2.5491  2.2506
  857TIP3   OH2 2534   5.357   0.107   2.251  0.1991  0.3688  0.0815
  857TIP3    H1 2535   5.388   0.198   2.246 -0.4151  0.6677  1.2723
  857TIP3    H2 2536   5.320   0.099   2.340  2.5782 -1.8052  0.9989
  858TIP3   OH2 2537   5.131   2.005   0.897 -0.3275  0.0428  0.2082
  858TIP3    H1 2538   5.051   2.057   0.900 -0.9837 -0.9425  0.0211
  858TIP3    H2 2539   5.161   2.014   0.806 -0.3464  0.2240  0.2184
  859TIP3   OH2 2540   1.644   3.665   0.662 -0.1432  0.0832  0.1911
  859TIP3    H1 2541   1.730   3.704   0.648  0.4045 -0.8647  0.7983
  859TIP3    H2 2542   1.620   3.631   0.576  1.2006 -1.7588  0.4662
  860TIP3   OH2 2543   4.278   2.355   0.492 -0.6798  0.3859  0.4330
  860TIP3    H1 2544   4.286   2.274   0.440  0.2248 -0.1836  1.4119
  860TIP3    H2 2545   4.368   2.374   0.519 -0.9586  1.4601  0.6230
  861TIP3   OH2 2546   4.806   1.317   1.343  0.0287  0.4011 -0.0411
  861TIP3    H1 2547   4.773   1.336   1.255 -1.2151  1.1586  0.5575
  861TIP3    H2 2548   4.755   1.375   1.400  0.8534 -0.0440  1.1732
  862TIP3   OH2 2549   6.507   3.144   3.519 -0.5829  0.5412  0.1982
  862TIP3    H1 2550   6.441   3.212   3.528 -0.2659  0.6446  2.3450
  862TIP3    H2 2551   6.567   3.177   3.453 -0.2288  2.5686  1.4409
  863TIP3   OH2 2552   1.647   4.160   3.192 -0.2403  0.0335 -0.1865
  863TIP3    H1 2553   1.562   4.133   3.228 -1.1466  0.5867 -1.8058
  863TIP3    H2 2554   1.646   4.256   3.196  0.2759  0.0486 -0.3183
  864TIP3   OH2 2555   4.016   6.171   1.455  0.1545  0.1920  0.0186
  864TIP3    H1 2556   4.028   6.259   1.491 -0.3244 -0.2651  1.3978
  864TIP3    H2 2557   3.991   6.184   1.364 -0.9489  1.5323  0.4834
  865TIP3   OH2 2558   0.507   5.241   1.774  0.0761 -0.0135  0.0994
  865TIP3    H1 2559   0.464   5.316   1.733  0.3482 -0.2897 -0.7070
  865TIP3    H2 2560   0.435   5.189   1.811 -0.1913  0.1221 -0.2320
  866TIP3   OH2 2561   1.768   6.711   5.535  0.1666  0.3885 -0.4093
  866TIP3    H1 2562   1.734   6.780   5.592  0.6464 -0.0130  0.3803
  866TIP3    H2 2563   1.731   6.731   5.449 -0.5901  0.9941  0.0396
  867TIP3   OH2 2564   6.814   5.751   1.616 -0.0992  0.6999  0.2412
  867TIP3    H1 2565   6.792   5.809   1.689  1.0430 -1.0462  2.0699
  867TIP3    H2 2566   6.898   5.784   1.584 -0.7247  1.6257 -0.5175
  868TIP3   OH2 2567   1.769   6.361   3.115 -0.2190  0.0853 -0.5658
  868TIP3    H1 2568   1.702   6.349   3.183 -1.4228 -2.5887 -2.0501
  868TIP3    H2 2569   1.831   6.290   3.131 -1.6347 -1.9403 -3.3421
  869TIP3   OH2 2570   0.107   0.234   3.574  0.0763 -0.3895  0.0966
  869TIP3    H1 2571   0.164   0.229   3.652 -0.9629 -0.5692  0.8661
  869TIP3    H2 2572   0.108   0.327   3.550 -0.4545 -0.1298  1.0029
  870TIP3   OH2 2573   1.328   6.093   5.648 -0.0873 -0.4556 -0.4411
  870TIP3    H1 2574   1.356   6.176   5.687  1.3151  0.7206 -3.6391
  870TIP3    H2 2575   1.234   6.089   5.665  0.1396  0.7964  1.4207
  871TIP3   OH2 2576   5.741   1.973   0.488 -0.6984  0.3915  0.0317
  871TIP3    H1 2577   5.798   2.050   0.499 -0.5715  0.0492  2.2089
  871TIP3    H2 2578   5.758   1.920   0.566 -1.3987 -1.4624 -1.0284
  872TIP3   OH2 2579   4.392   5.137   0.540  0.2436  0.3926  0.1998
  872TIP3    H1 2580   4.446   5.202   0.494 -0.0712 -0.2927 -1.2099
  872TIP3    H2 2581   4.319   5.188   0.576  1.3425  1.1937  1.3806
  873TIP3   OH2 2582   4.379   0.322   1.393 -0.2331 -0.2744  0.2026
  873TIP3    H1 2583   4.391   0.368   1.310 -1.1132 -0.8539 -0.2499
  873TIP3    H2 2584   4.296   0.354   1.427  0.2119  0.1031  0.9716
  874TIP3   OH2 2585   1.750   5.054   5.430 -0.1330 -0.2285 -1.0697
  874TIP3    H1 2586   1.793   4.970   5.444  0.5674  0.3360  0.3860
  874TIP3    H2 2587   1.662   5.042   5.465  0.0123 -0.3249 -0.7344
  875TIP3   OH2 2588   1.802   0.481   1.863 -0.0533 -0.4684 -0.2134
  875TIP3    H1 2589   1.878   0.528   1.827  0.6512 -0.6735  0.9575
  875TIP3    H2 2590   1.772   0.426   1.790  1.4339 -1.0009 -0.4677
  876TIP3   OH2 2591   4.865   2.303   5.505 -0.2106 -0.1988  0.0371
  876TIP3    H1 2592   4.934   2.368   5.516  0.7357 -1.1879  0.0398
  876TIP3    H2 2593   4.908   2.218   5.515 -1.4704 -0.8440  0.3212
  877TIP3   OH2 2594   0.637   2.820   4.549  0.6474 -0.4967  0.3098
  877TIP3    H1 2595   0.556   2.769   4.544  0.1655  0.1593  1.1323
  877TIP3    H2 2596   0.631   2.866   4.633  0.7049  1.4814 -0.7091
  878TIP3   OH2 2597   5.262   5.395   5.029  0.4074  0.0529 -0.2083
  878TIP3    H1 2598   5.316   5.319   5.008  1.4241  0.6469  0.1962
  878TIP3    H2 2599   5.244   5.435   4.944  1.9766  0.7503 -0.2511
  879TIP3   OH2 2600   1.903   4.528   4.168  0.0291  0.1191  0.4726
  879TIP3    H1 2601   1.849   4.595   4.127 -1.5905 -0.2960  1.7846
  879TIP3    H2 2602   1.890   4.450   4.114 -0.4415  0.1104  0.5932
  880TIP3   OH2 2603   0.947   0.187   2.634 -0.1669  0.0114  0.4768
  880TIP3    H1 2604   0.919   0.150   2.550  1.0867 -1.3326  0.6207
  880TIP3    H2 2605   1.039   0.210   2.620 -0.3696  1.2325  1.0237
  881TIP3   OH2 2606   0.331   3.821   5.033  0.1411  0.0884 -0.3186
  881TIP3    H1 2607   0.408   3.765   5.039  0.8110  1.0687  0.7058
  881TIP3    H2 2608   0.365   3.909   5.050 -0.7386  0.9529 -2.6453
  882TIP3   OH2 2609   6.201   0.832   4.250 -0.3026  0.3989  0.4371
  882TIP3    H1 2610   6.224   0.795   4.166 -1.8493 -0.2110  0.2487
  882TIP3    H2 2611   6.140   0.769   4.289 -0.6843  1.3240  1.4022
  883TIP3   OH2 2612   0.402   3.364   4.070  0.1228 -0.3451 -0.4243
  883TIP3    H1 2613   0.314   3.395   4.049 -0.7089 -2.1291  0.1866
  883TIP3    H2 2614   0.388   3.285   4.122  2.1037 -0.3248  0.2306
  884TIP3   OH2 2615   1.735   3.122   3.762 -0.0460 -0.3252  0.3292
  884TIP3    H1 2616   1.675   3.167   3.822 -0.8571  0.5989 -1.1289
  884TIP3    H2 2617   1.816   3.173   3.767 -0.7210  0.9248 -0.7478
  885TIP3   OH2 2618   2.646   6.520   0.825  0.0218  0.1576  0.0550
  885TIP3    H1 2619   2.706   6.461   0.780 -0.6208 -0.8948  0.5411
  885TIP3    H2 2620   2.571   6.465   0.849 -1.8539  1.6948 -1.7965
  886TIP3   OH2 2621   4.471   5.638   1.163 -0.3725  0.3235  0.3237
  886TIP3    H1 2622   4.463   5.562   1.220 -1.7088 -0.4925 -0.8837
  886TIP3    H2 2623   4.512   5.605   1.084  0.1167  1.1175  0.2381
  887TIP3   OH2 2624   6.759   5.450   4.834 -0.2846 -0.3806  0.3228
  887TIP3    H1 2625   6.776   5.403   4.752 -2.1519 -0.2923 -0.1509
  887TIP3    H2 2626   6.714   5.387   4.889  2.0506 -0.8568  1.8500
  888TIP3   OH2 2627   2.550   1.563   1.208  0.4514 -0.5293 -0.5963
  888TIP3    H1 2628   2.547   1.599   1.297  2.1677  0.2928 -0.8364
  888TIP3    H2 2629   2.460   1.571   1.176  0.2377  1.1733  0.2996
  889TIP3   OH2 2630   1.660   6.652   4.388  0.3417 -0.5253 -0.1825
  889TIP3    H1 2631   1.715   6.579   4.359 -0.9116 -0.6562 -2.3684
  889TIP3    H2 2632   1.718   6.704   4.444  1.8341 -2.1394 -0.1441
  890TIP3   OH2 2633   4.780   3.296   0.434 -0.4665  0.2369  0.2316
  890TIP3    H1 2634   4.726   3.360   0.480 -1.4174 -0.9601  0.8673
  890TIP3    H2 2635   4.840   3.348   0.381  0.5460  1.6962  2.6535
  891TIP3   OH2 2636   5.483   6.740   1.911 -0.4812  0.2673  0.0673
  891TIP3    H1 2637   5.411   6.696   1.866  1.0933 -1.0698 -1.2845
  891TIP3    H2 2638   5.515   6.676   1.974  1.8301 -0.6386 -1.9061
  892TIP3   OH2 2639   0.906   4.961   1.924 -0.3433  0.3196  0.7497
  892TIP3    H1 2640   0.813   4.939   1.918 -0.5756  1.1147  1.2460
  892TIP3    H2 2641   0.908   5.056   1.934  0.5085  0.2852  1.0314
  893TIP3   OH2 2642   6.513   2.919   0.715  0.1733 -0.1404 -0.2684
  893TIP3    H1 2643   6.560   2.991   0.758  0.1216 -0.7672  0.8732
  893TIP3    H2 2644   6.583   2.861   0.683  0.2081 -0.7109  0.8018
  894TIP3   OH2 2645   2.276   5.947   3.375 -0.0003 -0.2574  0.0422
  894TIP3    H1 2646   2.219   5.918   3.304  1.5156 -1.5314 -0.7195
  894TIP3    H2 2647   2.266   6.042   3.377 -0.4090 -0.2451 -1.5786
  895TIP3   OH2 2648   1.439   2.926   4.936  1.0339  0.2155  0.2321
  895TIP3    H1 2649   1.504   2.995   4.924  1.1263 -0.0591 -1.0386
  895TIP3    H2 2650   1.355   2.969   4.920  1.0853  0.0709 -0.4713
  896TIP3   OH2 2651   4.964   2.862   2.751 -0.1344  0.0034 -0.2784
  896TIP3    H1 2652   4.897   2.817   2.699 -0.7758 -0.0018  0.5313
  896TIP3    H2 2653   4.995   2.933   2.695  0.8571 -1.3909 -1.5578
  897TIP3   OH2 2654   1.640   4.827   0.661  0.9870 -0.1575 -0.0030
  897TIP3    H1 2655   1.637   4.921   0.644  3.7801 -0.2341 -1.6443
  897TIP3    H2 2656   1.602   4.816   0.748  0.3724  2.4455  0.1157
  898TIP3   OH2 2657   3.714   0.497   1.858  0.3048  0.0508  0.1097
  898TIP3    H1 2658   3.621   0.516   1.844  0.2553 -1.2242 -1.5754
  898TIP3    H2 2659   3.715   0.433   1.929 -0.0924 -0.0004  0.0707
  899TIP3   OH2 2660   6.378   5.540   4.281  0.5034 -0.0373 -0.0577
  899TIP3    H1 2661   6.285   5.535   4.303  0.2096  2.1718 -0.5827
  899TIP3    H2 2662   6.379   5.559   4.188  1.3258  2.7228  0.4161
  900TIP3   OH2 2663   0.375   4.280   3.492 -0.3233  0.1654  0.8890
  900TIP3    H1 2664   0.458   4.252   3.531  1.0183  0.2806 -1.6553
  900TIP3    H2 2665   0.313   4.211   3.514  1.6037 -2.2875 -0.8585
  901TIP3   OH2 2666   3.582   3.259   0.524  0.7641  0.0992 -0.8943
  901TIP3    H1 2667   3.609   3.235   0.612 -0.2022  2.8370  0.2432
  901TIP3    H2 2668   3.655   3.310   0.490  0.7905 -0.2627 -1.3976
  902TIP3   OH2 2669   6.367   3.905   0.559  0.0805  0.0729  0.0632
  902TIP3    H1 2670   6.378   3.812   0.540  0.5958 -0.1317  1.2374
  902TIP3    H2 2671   6.292   3.908   0.618  0.4235  0.3335  0.4900
  903TIP3   OH2 2672   0.854   3.030   5.024 -0.0251 -0.5482  0.0471
  903TIP3    H1 2673   0.769   2.988   5.024 -0.4862  0.3289  1.0418
  903TIP3    H2 2674   0.894   3.005   4.940 -1.8686  0.2456 -1.1317
  904TIP3   OH2 2675   5.749   6.662   3.078 -0.0334  0.0591 -0.3370
  904TIP3    H1 2676   5.734   6.688   3.169 -1.2932 -2.0720  0.1458
  904TIP3    H2 2677   5.712   6.733   3.026 -2.0108 -0.0113  0.8641
  905TIP3   OH2 2678   5.794   2.064   1.686 -0.4135 -0.1913 -0.0128
  905TIP3    H1 2679   5.871   2.057   1.742  0.6546  0.6223 -1.3259
  905TIP3    H2 2680   5.768   1.973   1.670  0.0548 -0.4623  0.7310
  906TIP3   OH2 2681   0.909   5.115   4.113  0.0691  0.5932  0.3229
  906TIP3    H1 2682   0.859   5.174   4.169  1.2182  0.6016  1.3873
  906TIP3    H2 2683   0.952   5.055   4.174  1.6242  0.8062 -0.5151
  907TIP3   OH2 2684   1.112   4.175   3.569  0.1607  0.1297 -0.0566
  907TIP3    H1 2685   1.108   4.259   3.614 -1.5162 -0.1230  0.3370
  907TIP3    H2 2686   1.201   4.170   3.534  0.8173  1.2980  1.3644
  908TIP3   OH2 2687   5.743   5.248   0.854  0.1474 -0.6645  0.2435
  908TIP3    H1 2688   5.772   5.287   0.772 -1.4288 -2.6499 -1.3853
  908TIP3    H2 2689   5.694   5.317   0.898  1.2083  0.5073 -0.3788
  909TIP3   OH2 2690   1.678   2.777   0.390  0.0997  0.1230  0.0067
  909TIP3    H1 2691   1.711   2.749   0.305 -0.1136 -2.9652  0.8342
  909TIP3    H2 2692   1.750   2.760   0.451 -0.2694  0.8846  0.6763
  910TIP3   OH2 2693   4.333   4.763   5.875  0.1570 -0.0429 -0.2023
  910TIP3    H1 2694   4.425   4.751   5.899  0.1664 -0.3303 -0.3715
  910TIP3    H2 2695   4.299   4.674   5.864  0.0573  0.0763 -0.8918
  911TIP3   OH2 2696   6.177   6.779   0.523  0.3379  0.1243  0.2017
  911TIP3    H1 2697   6.153   6.694   0.487  1.7562 -1.0797  1.9662
  911TIP3    H2 2698   6.222   6.824   0.451 -1.1864 -0.2116 -1.0175
  912TIP3   OH2 2699   3.238   4.038   0.387 -0.7718 -0.4436  0.8812
  912TIP3    H1 2700   3.226   4.119   0.337 -1.3607 -0.5524  0.8403
  912TIP3    H2 2701   3.240   3.969   0.321 -1.8997 -0.6250  1.0079
  913TIP3   OH2 2702   0.817   4.969   1.474 -1.0899 -0.4180  0.6434
  913TIP3    H1 2703   0.788   5.048   1.519  1.5156  0.5787  0.6904
  913TIP3    H2 2704   0.818   4.993   1.381 -1.2230 -0.7318  0.5573
  914TIP3   OH2 2705   2.978   6.252   2.348  0.2633  0.1977 -0.1889
  914TIP3    H1 2706   2.971   6.199   2.427  1.4636 -0.2858 -0.3788
  914TIP3    H2 2707   2.981   6.189   2.276 -0.0767  0.5983 -0.5587
  915TIP3   OH2 2708   1.178   0.823   5.843 -0.3810 -0.0798 -0.1765
  915TIP3    H1 2709   1.098   0.782   5.876 -0.6095  0.2066 -0.3795
  915TIP3    H2 2710   1.247   0.785   5.897 -0.6055 -0.6330 -0.2693
  916TIP3   OH2 2711   2.941   2.236   3.935  0.5949 -0.2566 -0.7146
  916TIP3    H1 2712   2.853   2.210   3.961  0.9776 -1.1835 -0.3186
  916TIP3    H2 2713   2.928   2.313   3.878 -0.3297  0.9044  0.9885
  917TIP3   OH2 2714   0.676   6.160   0.700 -0.4017 -0.7106  0.2789
  917TIP3    H1 2715   0.751   6.195   0.653 -0.3296  0.6115  1.3217
  917TIP3    H2 2716   0.710   6.085   0.748 -0.0904 -1.0127 -0.4096
  918TIP3   OH2 2717   6.645   5.335   5.260 -0.6278 -0.8269  0.0950
  918TIP3    H1 2718   6.568   5.286   5.290 -0.7895 -0.3431  0.4951
  918TIP3    H2 2719   6.629   5.352   5.167 -1.3077 -0.1890  0.3181
  919TIP3   OH2 2720   0.605   0.648   2.414 -0.1194 -0.1459  0.2014
  919TIP3    H1 2721   0.591   0.742   2.428 -0.7640  0.0874 -1.7454
  919TIP3    H2 2722   0.528   0.606   2.453 -1.5045  0.4163 -1.7895
  920TIP3   OH2 2723   2.621   2.619   1.793  0.4307 -0.0750  0.4511
  920TIP3    H1 2724   2.619   2.685   1.862 -0.8813  1.5262 -1.0376
  920TIP3    H2 2725   2.561   2.551   1.823 -0.2899  0.7010  0.8041
  921TIP3   OH2 2726   2.062   6.277   5.640  0.2014 -0.8673  0.2672
  921TIP3    H1 2727   2.151   6.300   5.666  0.9418  0.1137 -2.7232
  921TIP3    H2 2728   2.057   6.300   5.547 -3.0340 -1.3622  0.1859
  922TIP3   OH2 2729   5.363   3.200   5.063 -0.2140 -0.0520  0.3356
  922TIP3    H1 2730   5.359   3.240   4.977 -1.2959  1.4210  1.0224
  922TIP3    H2 2731   5.454   3.211   5.091  0.1388 -0.5207 -0.5794
  923TIP3   OH2 2732   5.012   5.005   2.795 -0.5201  0.0345  0.4968
  923TIP3    H1 2733   4.928   5.043   2.770 -0.3647 -0.8628 -1.5978
  923TIP3    H2 2734   5.048   4.971   2.714  1.4087 -0.5393  1.5319
  924TIP3   OH2 2735   5.687   3.925   0.693  0.4343  0.2961 -0.2996
  924TIP3    H1 2736   5.643   3.935   0.777  0.2034 -0.5219 -0.3104
  924TIP3    H2 2737   5.650   3.994   0.638  1.5236  1.6775  0.6169
  925TIP3   OH2 2738   0.457   2.298   1.364  0.4727 -0.8915 -0.1806
  925TIP3    H1 2739   0.421   2.384   1.344  0.7881 -0.8351 -0.5129
  925TIP3    H2 2740   0.473   2.300   1.458  0.8935 -0.4315 -0.2591
  926TIP3   OH2 2741   3.198   6.346   3.999 -0.3172  0.2488  0.6834
  926TIP3    H1 2742   3.136   6.278   4.027 -1.0853 -0.0054 -1.4034
  926TIP3    H2 2743   3.268   6.298   3.955 -1.5216  0.7310 -2.0218
  927TIP3   OH2 2744   5.159   6.176   3.850  0.2163 -0.1822 -0.2541
  927TIP3    H1 2745   5.167   6.084   3.877 -1.3638 -0.5092 -0.7604
  927TIP3    H2 2746   5.064   6.190   3.845  0.3757  1.9989  1.5381
  928TIP3   OH2 2747   3.252   2.808   5.064 -0.9084 -0.0181 -0.1742
  928TIP3    H1 2748   3.158   2.801   5.083 -0.9614 -2.5832 -1.0456
  928TIP3    H2 2749   3.259   2.791   4.971  0.5046 -1.0496  0.0953
  929TIP3   OH2 2750   5.455   4.182   0.269  0.1969 -0.5511  0.0435
  929TIP3    H1 2751   5.442   4.173   0.175  3.6531  1.1668 -0.7687
  929TIP3    H2 2752   5.550   4.189   0.279 -0.0808 -0.2503  3.6385
  930TIP3   OH2 2753   6.542   3.779   3.338  0.5576  0.1233 -0.5598
  930TIP3    H1 2754   6.597   3.820   3.271  2.5402 -1.2994  0.0834
  930TIP3    H2 2755   6.586   3.800   3.421 -0.8072  0.2926  0.1429
  931TIP3   OH2 2756   0.171   6.106   2.516 -0.4879  0.1471 -0.2996
  931TIP3    H1 2757   0.207   6.034   2.465 -0.8411 -0.1338 -0.1531
  931TIP3    H2 2758   0.082   6.118   2.482 -0.5559  0.2750 -0.0802
  932TIP3   OH2 2759   4.655   4.677   3.800 -0.9135  0.2755 -0.0229
  932TIP3    H1 2760   4.638   4.764   3.838  2.0556  1.8992 -1.9876
  932TIP3    H2 2761   4.727   4.642   3.851  0.6114  0.8460 -1.6813
  933TIP3   OH2 2762   1.638   1.737   5.103 -0.0305  0.4147  0.0649
  933TIP3    H1 2763   1.598   1.820   5.076 -1.0366 -0.0485  0.0777
  933TIP3    H2 2764   1.690   1.759   5.180  0.0374  1.1096 -0.1759
  934TIP3   OH2 2765   4.099   1.055   5.646 -0.1411  0.2838 -0.1230
  934TIP3    H1 2766   4.146   0.982   5.686  0.6182  2.0469  2.4097
  934TIP3    H2 2767   4.022   1.068   5.701 -0.1197  1.5576 -0.3635
  935TIP3   OH2 2768   2.858   1.049   5.607  0.0232 -0.4213 -0.2766
  935TIP3    H1 2769   2.864   1.114   5.537  1.7384 -1.1156 -0.8165
  935TIP3    H2 2770   2.930   1.070   5.666 -0.1340 -1.1126  0.1773
  936TIP3   OH2 2771   2.104   5.347   2.564  0.2376  0.7668 -0.6946
  936TIP3    H1 2772   2.161   5.285   2.609 -1.0717 -1.0708 -1.4186
  936TIP3    H2 2773   2.109   5.427   2.617  0.1437 -0.6993  1.6956
  937TIP3   OH2 2774   0.725   1.036   1.570  0.4651 -0.6230 -0.6926
  937TIP3    H1 2775   0.710   1.085   1.489  0.9901 -2.2058 -1.8003
  937TIP3    H2 2776   0.788   0.969   1.545  1.0303 -0.8386  1.1798
  938TIP3   OH2 2777   2.272   1.544   4.421  0.4031 -0.1580 -0.6092
  938TIP3    H1 2778   2.216   1.621   4.430 -0.3211 -0.4678 -2.0160
  938TIP3    H2 2779   2.337   1.569   4.355 -0.1912 -0.9058 -1.5115
  939TIP3   OH2 2780   3.098   1.243   3.409 -0.0431  0.5103  0.4358
  939TIP3    H1 2781   3.077   1.177   3.475 -1.0905  0.7338  0.3530
  939TIP3    H2 2782   3.194   1.245   3.407  0.0699 -2.0696 -0.6364
  940TIP3   OH2 2783   3.183   3.844   5.337 -0.2552 -0.0325 -0.0304
  940TIP3    H1 2784   3.200   3.938   5.331  2.1390 -0.3830  0.3394
  940TIP3    H2 2785   3.137   3.823   5.256  2.7897  0.8206 -2.1513
  941TIP3   OH2 2786   3.310   2.995   0.704  0.2675  0.5079 -0.0699
  941TIP3    H1 2787   3.364   3.023   0.778 -1.6101 -0.1115  1.6014
  941TIP3    H2 2788   3.224   3.032   0.721 -0.5128 -0.6079 -1.3663
  942TIP3   OH2 2789   2.119   4.737   2.452  0.4793  0.0352  0.1550
  942TIP3    H1 2790   2.178   4.684   2.505  1.7429  0.5001 -0.7533
  942TIP3    H2 2791   2.040   4.745   2.506  1.3093 -0.4059  1.4916
  943TIP3   OH2 2792   3.978   1.029   4.267 -0.2107  0.3830  0.1775
  943TIP3    H1 2793   3.996   0.954   4.323  0.7062 -0.0779 -0.7073
  943TIP3    H2 2794   3.883   1.032   4.261 -0.2828 -0.2422  0.8321
  944TIP3   OH2 2795   1.965   0.402   2.756  0.1743  0.0728  0.2272
  944TIP3    H1 2796   2.050   0.363   2.734 -0.0361  0.0411 -0.5704
  944TIP3    H2 2797   1.982   0.496   2.760  0.2355  0.0712  0.0171
  945TIP3   OH2 2798   4.392   2.221   4.389 -0.4616  0.0910  0.5454
  945TIP3    H1 2799   4.440   2.303   4.387  0.1778 -0.2565  0.9861
  945TIP3    H2 2800   4.459   2.153   4.381 -1.0795 -0.3865 -1.0102
  946TIP3   OH2 2801   5.153   6.577   2.051  0.2157 -0.0044  0.2416
  946TIP3    H1 2802   5.124   6.627   1.975  1.6414  1.5586  0.6571
  946TIP3    H2 2803   5.075   6.572   2.107 -0.4019  0.2814 -0.5652
  947TIP3   OH2 2804   1.545   5.464   1.931 -0.1769  0.2642 -0.0713
  947TIP3    H1 2805   1.547   5.440   1.838 -0.4442 -1.2078  0.2722
  947TIP3    H2 2806   1.454   5.449   1.958  0.1829 -0.5962  0.7244
  948TIP3   OH2 2807   6.410   3.944   1.844  0.4575 -0.0251  0.3774
  948TIP3    H1 2808   6.431   3.940   1.937  0.9979  1.0212  0.3119
  948TIP3    H2 2809   6.437   4.031   1.816  2.0238 -0.9338 -1.1727
  949TIP3   OH2 2810   3.473   3.715   4.755 -0.3641  0.0829  0.4334
  949TIP3    H1 2811   3.554   3.765   4.739 -0.1196 -0.9566 -1.9521
  949TIP3    H2 2812   3.407   3.782   4.773  0.7639  1.0212  1.2315
  950TIP3   OH2 2813   1.480   5.361   3.846 -0.0380  0.2299  0.2225
  950TIP3    H1 2814   1.502   5.340   3.936  0.3188  0.4985  0.1985
  950TIP3    H2 2815   1.409   5.425   3.853  0.0080  0.2709  0.3115
  951TIP3   OH2 2816   3.421   6.244   2.676 -0.2182 -0.4037 -0.1723
  951TIP3    H1 2817   3.347   6.237   2.614 -1.1214  1.1597  0.6695
  951TIP3    H2 2818   3.390   6.201   2.755 -0.0578 -0.1564  0.0270
  952TIP3   OH2 2819   6.026   3.416   2.764 -0.0366  0.0273  0.5241
  952TIP3    H1 2820   6.112   3.375   2.755  0.7099  1.2786  1.5528
  952TIP3    H2 2821   5.980   3.362   2.828  0.3277 -0.1296  0.6553
  953TIP3   OH2 2822   5.990   1.026   4.217 -0.5394 -0.3790  0.4008
  953TIP3    H1 2823   6.074   0.979   4.215 -1.2213 -1.6238  0.2377
  953TIP3    H2 2824   5.980   1.060   4.128  0.0000  0.1667  0.5410
  954TIP3   OH2 2825   6.480   0.376   4.887 -0.3137 -0.0080 -0.8396
  954TIP3    H1 2826   6.418   0.306   4.908 -1.5688  0.7822 -1.7784
  954TIP3    H2 2827   6.563   0.331   4.873 -0.5446 -1.0569  0.8546
  955TIP3   OH2 2828   4.649   4.071   5.218 -0.4441 -0.0483 -0.0444
  955TIP3    H1 2829   4.682   4.022   5.293  0.2712 -0.8023 -0.8270
  955TIP3    H2 2830   4.726   4.116   5.183 -0.6696 -0.0894 -0.6055
  956TIP3   OH2 2831   5.858   3.129   5.126  0.3851 -0.5002 -0.0861
  956TIP3    H1 2832   5.776   3.168   5.158  0.2192 -0.5560 -0.4343
  956TIP3    H2 2833   5.906   3.203   5.088  1.5627 -0.0015  2.1996
  957TIP3   OH2 2834   6.472   0.221   4.489 -0.4257 -0.0864 -0.2279
  957TIP3    H1 2835   6.455   0.217   4.583 -0.4171  0.7804 -0.1867
  957TIP3    H2 2836   6.387   0.201   4.449 -0.2214 -1.4162 -0.0609
  958TIP3   OH2 2837   4.211   0.275   3.073  0.0708 -0.1445  0.6009
  958TIP3    H1 2838   4.289   0.226   3.097 -0.6721 -0.9037  1.5268
  958TIP3    H2 2839   4.244   0.358   3.040  1.3995 -1.3503 -1.3658
  959TIP3   OH2 2840   6.920   0.279   5.574  0.0491 -0.2304  0.1106
  959TIP3    H1 2841   6.920   0.217   5.501 -1.3504  0.2716 -0.3391
  959TIP3    H2 2842   6.996   0.335   5.557 -0.7071  0.3884 -1.4282
  960TIP3   OH2 2843   6.315   4.214   0.342  0.0260  0.2688 -0.3041
  960TIP3    H1 2844   6.356   4.203   0.428 -0.2367  2.8532  0.2556
  960TIP3    H2 2845   6.335   4.134   0.294  4.1089  0.5759  0.5722
  961TIP3   OH2 2846   6.465   3.461   0.582  0.0257  0.3598  0.7334
  961TIP3    H1 2847   6.407   3.385   0.580 -0.7627  0.9423 -1.6339
  961TIP3    H2 2848   6.409   3.532   0.614 -1.0274  1.1658 -2.5684
  962TIP3   OH2 2849   3.540   4.144   2.964 -0.5633 -0.3512 -0.0747
  962TIP3    H1 2850   3.530   4.236   2.940 -3.2115  0.1966  2.5955
  962TIP3    H2 2851   3.452   4.115   2.986  0.6903 -2.4374  2.8193
  963TIP3   OH2 2852   7.178   4.295   3.894 -0.1297 -0.6173  0.2194
  963TIP3    H1 2853   7.140   4.209   3.878  0.1939 -0.6534 -0.3853
  963TIP3    H2 2854   7.221   4.287   3.979 -2.1327 -0.3436  1.3072
  964TIP3   OH2 2855   1.481   5.196   4.421  0.1593 -0.2014  0.1301
  964TIP3    H1 2856   1.448   5.108   4.441  1.0829 -0.6707 -0.3909
  964TIP3    H2 2857   1.499   5.195   4.327 -0.4968  0.7808 -0.0271
  965TIP3   OH2 2858   0.590   0.227   2.835 -0.0274 -0.1903 -0.4814
  965TIP3    H1 2859   0.628   0.149   2.797  0.7914  0.0410 -0.1544
  965TIP3    H2 2860   0.594   0.293   2.766 -1.7998 -0.7292 -1.1632
  966TIP3   OH2 2861   3.867   2.890   3.559  0.3481  0.0964  1.1708
  966TIP3    H1 2862   3.807   2.853   3.624  1.8411 -2.5578  1.1976
  966TIP3    H2 2863   3.913   2.814   3.523  3.4050  1.9311  0.8633
  967TIP3   OH2 2864   6.642   0.631   3.564 -0.2032  0.8192 -0.2937
  967TIP3    H1 2865   6.649   0.725   3.579  0.6801  0.6661  0.3274
  967TIP3    H2 2866   6.621   0.595   3.651 -2.1462  0.5859 -0.8203
  968TIP3   OH2 2867   6.307   4.726   5.063 -0.0954  0.7642  0.2765
  968TIP3    H1 2868   6.308   4.796   4.999 -1.9694  0.9866  0.4575
  968TIP3    H2 2869   6.302   4.646   5.011  0.2055  0.8446  0.1201
  969TIP3   OH2 2870   0.310   4.599   2.920 -0.0660 -0.6022 -0.1825
  969TIP3    H1 2871   0.304   4.504   2.911 -3.2147 -0.6416  1.2602
  969TIP3    H2 2872   0.229   4.633   2.882  0.5689  1.4620  0.1566
  970TIP3   OH2 2873   2.465   2.697   3.245 -0.2056  0.1549  0.2840
  970TIP3    H1 2874   2.432   2.618   3.202 -0.3627  0.9146 -1.0429
  970TIP3    H2 2875   2.553   2.709   3.210  0.9828 -0.9800  2.6316
  971TIP3   OH2 2876   3.083   3.541   3.163  0.5857 -0.1659  0.5017
  971TIP3    H1 2877   3.048   3.623   3.197  0.2870  0.3166 -0.9097
  971TIP3    H2 2878   3.100   3.558   3.071  1.2122 -1.4755  0.3478
  972TIP3   OH2 2879   6.009   0.383   3.441 -0.5965  0.2388 -0.0583
  972TIP3    H1 2880   5.952   0.453   3.411 -0.6352  0.4386  0.4570
  972TIP3    H2 2881   6.040   0.340   3.362  0.3651  1.5902 -0.4462
  973TIP3   OH2 2882   3.370   3.750   1.572  0.1901 -0.4543 -0.2127
  973TIP3    H1 2883   3.465   3.746   1.582  0.1797 -3.7561 -0.3224
  973TIP3    H2 2884   3.355   3.733   1.478 -0.5134 -0.4825 -0.1014
  974TIP3   OH2 2885   4.905   1.676   3.413 -0.1362 -0.0730 -0.3240
  974TIP3    H1 2886   4.912   1.660   3.508  1.9340  0.2236 -0.3873
  974TIP3    H2 2887   4.919   1.770   3.404  1.8088 -0.4025 -1.0692
  975TIP3   OH2 2888   6.353   0.912   3.232  0.0440  0.0126  0.2622
  975TIP3    H1 2889   6.345   0.954   3.317  0.6312 -0.0440  0.3479
  975TIP3    H2 2890   6.266   0.875   3.215 -0.6769  1.7817 -0.0901
  976TIP3   OH2 2891   5.591   5.183   4.503  0.2247  0.0437 -0.5867
  976TIP3    H1 2892   5.643   5.219   4.575  0.9914 -0.9332 -0.6173
  976TIP3    H2 2893   5.612   5.237   4.428  1.4757 -0.5349 -0.6715
  977TIP3   OH2 2894   6.782   5.311   4.592  0.2777  0.3380 -0.3010
  977TIP3    H1 2895   6.729   5.276   4.520  1.2901  0.4417 -1.1289
  977TIP3    H2 2896   6.805   5.400   4.563  2.1043 -0.1985 -0.6716
  978TIP3   OH2 2897   0.373   4.902   1.514 -0.0892  0.3121  0.3233
  978TIP3    H1 2898   0.427   4.916   1.437 -0.7117  0.9469  0.0001
  978TIP3    H2 2899   0.303   4.967   1.508 -0.1920  0.3273  1.3816
  979TIP3   OH2 2900   2.268   5.340   1.192 -0.3173 -0.1001 -0.6777
  979TIP3    H1 2901   2.177   5.351   1.165 -0.6099  0.7659  0.5670
  979TIP3    H2 2902   2.263   5.328   1.287  0.5619 -3.8666 -0.9278
  980TIP3   OH2 2903   4.490   4.893   3.447 -0.6203 -0.1160 -0.2974
  980TIP3    H1 2904   4.417   4.950   3.421 -0.2055  0.8336  0.5687
  980TIP3    H2 2905   4.453   4.805   3.446 -1.5738  0.2730 -0.5893
  981TIP3   OH2 2906   3.295   2.532   5.073  0.3521  0.2434 -0.1167
  981TIP3    H1 2907   3.312   2.517   5.166 -0.0128  0.5382 -0.0051
  981TIP3    H2 2908   3.237   2.608   5.070  1.3713  1.0267 -0.6422
  982TIP3   OH2 2909   0.867   1.340   1.863 -0.0727 -0.0153  0.0136
  982TIP3    H1 2910   0.935   1.381   1.918 -0.1736 -0.2458  0.3117
  982TIP3    H2 2911   0.896   1.357   1.773 -0.1822  0.8427  0.1265
  983TIP3   OH2 2912   2.186   2.070   0.972  0.7531 -0.4759  0.2285
  983TIP3    H1 2913   2.168   2.065   0.879  0.3337 -1.9780  0.3605
  983TIP3    H2 2914   2.174   2.162   0.995 -0.6484 -0.3472 -0.8997
  984TIP3   OH2 2915   7.102   1.264   0.662 -0.3921 -0.0012 -0.8378
  984TIP3    H1 2916   7.165   1.276   0.591  1.1269 -0.6131  0.3542
  984TIP3    H2 2917   7.141   1.197   0.718 -1.2137  0.9266  0.9375
  985TIP3   OH2 2918   6.456   2.483   0.662  0.1347  0.2340 -0.5340
  985TIP3    H1 2919   6.411   2.563   0.690  0.6138  0.3010  0.0525
  985TIP3    H2 2920   6.547   2.496   0.688  0.1457 -0.6521 -0.1083
  986TIP3   OH2 2921   6.600   1.177   1.750 -0.1457 -0.5059  0.3301
  986TIP3    H1 2922   6.643   1.143   1.672 -1.6066  1.1284 -1.2790
  986TIP3    H2 2923   6.569   1.264   1.724  0.9844  0.9315  3.3410
  987TIP3   OH2 2924   3.288   1.710   5.436 -0.3133 -0.7933 -0.0145
  987TIP3    H1 2925   3.382   1.707   5.453 -0.0287  1.2376 -0.9675
  987TIP3    H2 2926   3.262   1.798   5.462 -1.5029 -0.5527 -1.8778
  988TIP3   OH2 2927   6.370   1.327   5.085  0.5414 -0.5210 -0.5099
  988TIP3    H1 2928   6.412   1.330   4.999  1.2914 -0.4563 -0.1524
  988TIP3    H2 2929   6.326   1.242   5.088  0.8384 -0.6883 -0.8130
  989TIP3   OH2 2930   2.608   1.769   4.695 -0.4075  0.0772 -0.7566
  989TIP3    H1 2931   2.698   1.801   4.701 -0.6710  0.6732  0.1246
  989TIP3    H2 2932   2.554   1.847   4.701 -1.0002 -0.3117 -0.9745
  990TIP3   OH2 2933   2.188   3.936   0.968  0.5580 -0.3881 -0.2286
  990TIP3    H1 2934   2.156   3.896   0.888  0.5135 -0.6346 -0.0879
  990TIP3    H2 2935   2.274   3.895   0.983  0.1688 -1.0236  0.3457
  991TIP3   OH2 2936   0.423   3.136   4.503  0.6341  0.4310 -0.0866
  991TIP3    H1 2937   0.428   3.040   4.506 -1.6543  0.2702  0.8789
  991TIP3    H2 2938   0.421   3.157   4.410  1.4746 -0.4284 -0.3180
  992TIP3   OH2 2939   0.795   1.062   0.640  0.2190  0.3355 -0.2218
  992TIP3    H1 2940   0.785   0.985   0.585  0.9437  0.2214 -0.2097
  992TIP3    H2 2941   0.778   1.030   0.729 -1.1652  0.5660 -0.3799
  993TIP3   OH2 2942   0.571   0.459   0.190  0.4522  0.3843 -0.0972
  993TIP3    H1 2943   0.493   0.489   0.235  0.7507  1.8396 -0.5056
  993TIP3    H2 2944   0.636   0.446   0.260 -0.3126 -1.5421  0.3306
  994TIP3   OH2 2945   5.033   0.300   0.527  0.0719  0.4924 -0.3032
  994TIP3    H1 2946   5.011   0.265   0.613 -1.4515  1.6060 -0.1961
  994TIP3    H2 2947   4.988   0.243   0.465 -0.2988  0.7324 -0.2591
  995TIP3   OH2 2948   2.680   5.313   5.286  0.2596 -0.5870  0.1302
  995TIP3    H1 2949   2.709   5.235   5.332 -0.5961 -0.6738  0.5451
  995TIP3    H2 2950   2.681   5.382   5.352  0.0621 -0.4675  0.0096
  996TIP3   OH2 2951   0.909   1.580   4.973 -0.5819 -0.5421 -0.1761
  996TIP3    H1 2952   0.894   1.657   5.028 -3.6051 -0.5725 -0.7540
  996TIP3    H2 2953   0.921   1.508   5.035  0.3752  0.0886  0.3822
  997TIP3   OH2 2954   2.386   3.812   1.154  0.6653  0.4982 -0.1499
  997TIP3    H1 2955   2.302   3.855   1.169  1.3382  2.3676 -1.3763
  997TIP3    H2 2956   2.448   3.884   1.145  2.5436 -0.8264  1.2615
  998TIP3   OH2 2957   1.085   2.323   3.366 -0.3436  0.7181  0.0376
  998TIP3    H1 2958   1.101   2.383   3.293  1.7231 -0.3549 -0.4691
  998TIP3    H2 2959   1.074   2.238   3.325  2.0099 -0.1090  0.9460
  999TIP3   OH2 2960   3.737   2.398   3.044  0.2315 -0.0381  0.7412
  999TIP3    H1 2961   3.828   2.428   3.036  0.0545  0.0335 -1.2825
  999TIP3    H2 2962   3.697   2.420   2.961 -1.1166 -1.9200  0.8465
 1000TIP3   OH2 2963   3.451   1.113   2.532  0.6653  0.4217 -0.3269
 1000TIP3    H1 2964   3.357   1.094   2.526  0.7198 -0.0380  0.1741
 1000TIP3    H2 2965   3.480   1.114   2.441  0.1562  0.6729 -0.4936
 1001TIP3   OH2 2966   4.973   2.491   2.228  0.0583  0.5297  0.3152
 1001TIP3    H1 2967   5.046   2.430   2.221  0.6068  1.2562 -0.4632
 1001TIP3    H2 2968   4.931   2.468   2.311 -0.1115 -1.2866 -0.2215
 1002TIP3   OH2 2969   3.282   2.672   4.817  0.5276 -0.0070  0.2033
 1002TIP3    H1 2970   3.287   2.581   4.846 -0.3462 -0.1644 -0.1131
 1002TIP3    H2 2971   3.192   2.683   4.789  0.7293  0.8506 -0.1316
 1003TIP3   OH2 2972   3.804   0.260   3.606  0.2210 -0.4099  0.4165
 1003TIP3    H1 2973   3.880   0.309   3.639  0.4095 -0.2622 -0.2154
 1003TIP3    H2 2974   3.828   0.168   3.618  0.2614 -0.3603  0.7376
 1004TIP3   OH2 2975   6.755   1.715   2.008  0.1646  0.0419 -0.2037
 1004TIP3    H1 2976   6.819   1.778   2.040  0.2023  0.5887 -1.2928
 1004TIP3    H2 2977   6.671   1.760   2.014  0.1272  0.0198 -0.5077
 1005TIP3   OH2 2978   0.752   1.158   0.337  0.1994  0.2888  0.1851
 1005TIP3    H1 2979   0.693   1.090   0.368 -1.0255  0.5124 -1.4521
 1005TIP3    H2 2980   0.810   1.113   0.275 -0.5184  0.6563 -0.7888
 1006TIP3   OH2 2981   4.020   4.067   0.518 -0.0284  0.0198  0.4894
 1006TIP3    H1 2982   4.005   4.082   0.425  0.6601  0.8915  0.5037
 1006TIP3    H2 2983   3.948   4.010   0.545 -1.1051  0.9819 -0.2448
 1007TIP3   OH2 2984   4.999   3.030   0.202 -0.3774 -0.0941  0.6554
 1007TIP3    H1 2985   4.968   2.947   0.238  1.0514 -1.0144 -0.1381
 1007TIP3    H2 2986   5.024   3.010   0.112  1.6839  0.7450  0.9885
 1008TIP3   OH2 2987   2.592   1.303   4.585  0.0018  0.1783  0.1857
 1008TIP3    H1 2988   2.588   1.272   4.676 -1.9233 -0.9985 -0.2547
 1008TIP3    H2 2989   2.686   1.319   4.570  0.8641 -3.0532  1.2752
 1009TIP3   OH2 2990   3.854   6.584   1.663 -0.8835  0.3398  0.1469
 1009TIP3    H1 2991   3.801   6.516   1.621  1.3070 -2.3284  1.4376
 1009TIP3    H2 2992   3.805   6.607   1.741 -1.1088 -0.6682  0.3207
 1010TIP3   OH2 2993   0.988   0.633   0.159 -0.1641  0.0076 -0.1497
 1010TIP3    H1 2994   1.032   0.715   0.178  1.5709 -1.3680  2.3471
 1010TIP3    H2 2995   0.941   0.612   0.239 -0.1338 -1.6731 -0.5321
 1011TIP3   OH2 2996   6.766   1.286   4.466 -0.2584 -0.1331  0.0408
 1011TIP3    H1 2997   6.710   1.222   4.422  0.6948 -0.3046 -0.9654
 1011TIP3    H2 2998   6.834   1.307   4.402  1.6931 -1.0601  1.6812
 1012TIP3   OH2 2999   3.664   4.736   5.363 -0.8343  0.0447  0.5697
 1012TIP3    H1 3000   3.689   4.667   5.302  1.0082  0.6369  0.5917
 1012TIP3    H2 3001   3.603   4.694   5.423 -0.4488 -1.3220  0.0473
 1013TIP3   OH2 3002   0.543   1.662   4.174 -0.6869 -0.3269  0.0500
 1013TIP3    H1 3003   0.536   1.757   4.166 -1.8291 -0.4372 -0.4637
 1013TIP3    H2 3004   0.625   1.640   4.129 -0.9566  0.3084 -0.7651
 1014TIP3   OH2 3005   1.963   1.177   0.399  0.0781 -0.6574  0.7070
 1014TIP3    H1 3006   1.889   1.117   0.408 -0.7846  0.3120  0.2809
 1014TIP3    H2 3007   2.040   1.121   0.408 -0.6922 -1.6313  1.5769
 1015TIP3   OH2 3008   0.465   3.753   2.460 -0.1447 -0.7132 -0.7182
 1015TIP3    H1 3009   0.529   3.731   2.527  0.8745  1.9774 -0.6910
 1015TIP3    H2 3010   0.516   3.772   2.382 -1.0512 -0.2869 -1.2291
 1016TIP3   OH2 3011   3.367   2.306   4.930 -0.5006 -0.4678  0.0422
 1016TIP3    H1 3012   3.287   2.278   4.886 -0.9574  1.0006 -0.1215
 1016TIP3    H2 3013   3.338   2.372   4.993  0.6259  0.4673 -0.3899
 1017TIP3   OH2 3014   6.079   3.241   5.372 -0.5628  0.2972  0.1202
 1017TIP3    H1 3015   6.028   3.283   5.302  1.3731  2.0561 -0.3323
 1017TIP3    H2 3016   6.054   3.149   5.367 -1.2383  0.5230 -2.2654
 1018TIP3   OH2 3017   5.893   2.905   3.911 -0.2696 -0.0470  0.4986
 1018TIP3    H1 3018   5.881   2.810   3.902 -1.1974 -0.0485  1.5461
 1018TIP3    H2 3019   5.933   2.917   3.997 -0.1481  0.5138  0.3713
 1019TIP3   OH2 3020   3.125   6.489   0.451  0.8195 -0.4903  0.2367
 1019TIP3    H1 3021   3.127   6.406   0.403  0.7221  0.0880 -0.8037
 1019TIP3    H2 3022   3.033   6.516   0.448  0.9504 -0.0474  0.0212
 1020TIP3   OH2 3023   3.520   1.182   1.342 -0.0664  0.0213 -0.1190
 1020TIP3    H1 3024   3.604   1.166   1.386  1.0058  1.1410 -1.6568
 1020TIP3    H2 3025   3.466   1.224   1.409  0.4696 -0.9747  0.9881
 1021TIP3   OH2 3026   1.040   5.317   3.392  0.1768  0.4479 -0.1290
 1021TIP3    H1 3027   1.063   5.354   3.477  0.6272  0.9615 -0.4643
 1021TIP3    H2 3028   1.042   5.392   3.332  0.0007  0.0713 -0.6130
 1022TIP3   OH2 3029   2.064   6.233   1.130  0.1047 -0.1328 -0.0226
 1022TIP3    H1 3030   2.022   6.226   1.216  0.2753  0.4401  0.1099
 1022TIP3    H2 3031   2.010   6.295   1.082  1.2823  1.3104  0.4559
 1023TIP3   OH2 3032   0.270   2.120   3.065 -0.4212 -0.0660  0.0122
 1023TIP3    H1 3033   0.275   2.204   3.110 -1.9831 -0.4162  0.9102
 1023TIP3    H2 3034   0.232   2.140   2.980 -0.7117  0.1561  0.1934
 1024TIP3   OH2 3035   0.035   6.031   4.078 -0.1099  0.3490 -0.5296
 1024TIP3    H1 3036  -0.041   6.084   4.057 -0.1287  2.1025  3.1689
 1024TIP3    H2 3037   0.108   6.093   4.079  0.4234 -0.2543  0.8059
 1025TIP3   OH2 3038   4.002   2.037   2.739 -0.1545 -0.0085 -0.6264
 1025TIP3    H1 3039   3.943   2.111   2.753  0.5031  0.3744  0.2704
 1025TIP3    H2 3040   4.057   2.036   2.818  0.8548 -0.5027 -1.3197
 1026TIP3   OH2 3041   1.564   5.495   4.208 -0.0452  0.7166  0.0834
 1026TIP3    H1 3042   1.570   5.402   4.189 -1.9377  0.6489 -0.3236
 1026TIP3    H2 3043   1.480   5.506   4.253  0.1127  2.2270  0.0690
 1027TIP3   OH2 3044   6.477   1.302   2.462 -0.7840 -0.1964  0.5641
 1027TIP3    H1 3045   6.391   1.309   2.502 -0.6497 -0.7241  0.9557
 1027TIP3    H2 3046   6.524   1.239   2.517 -0.1951 -0.0118  0.2767
 1028TIP3   OH2 3047   5.955   3.772   4.398  0.1710  0.8453  0.1835
 1028TIP3    H1 3048   6.015   3.815   4.337  0.0979 -0.4845 -0.8587
 1028TIP3    H2 3049   5.906   3.710   4.344 -0.2056 -0.0474  1.5075
 1029TIP3   OH2 3050   0.976   1.427   0.187  0.5150  0.9063  0.0121
 1029TIP3    H1 3051   1.000   1.508   0.141 -1.3067  1.5243  0.0765
 1029TIP3    H2 3052   0.882   1.435   0.201  0.1975 -1.4805 -0.4352
 1030TIP3   OH2 3053   5.512   3.944   0.921  0.1460  0.6801 -0.0110
 1030TIP3    H1 3054   5.550   4.029   0.945 -3.0485  2.1343  0.4526
 1030TIP3    H2 3055   5.460   3.919   0.997 -0.2945 -0.8887 -0.7922
 1031TIP3   OH2 3056   7.025   4.886   5.493 -0.0048 -0.4004  0.2639
 1031TIP3    H1 3057   6.960   4.935   5.543 -0.3296  0.2139 -0.7321
 1031TIP3    H2 3058   6.982   4.866   5.411  1.2135  0.4433 -0.6155
 1032TIP3   OH2 3059   2.505   1.750   0.399  0.3116 -0.0753 -0.1538
 1032TIP3    H1 3060   2.467   1.664   0.378  0.3814 -0.0346 -0.4600
 1032TIP3    H2 3061   2.430   1.809   0.405  0.3478  0.1049 -1.2432
 1033TIP3   OH2 3062   6.188   2.048   0.148  0.3278  0.3187  0.0209
 1033TIP3    H1 3063   6.203   2.088   0.063  1.1040  2.2818  1.0186
 1033TIP3    H2 3064   6.101   2.009   0.142  1.5437 -2.3884 -2.6388
 1034TIP3   OH2 3065   0.883   5.551   4.017 -0.3471  0.6879 -0.7158
 1034TIP3    H1 3066   0.827   5.493   3.965 -0.2631  0.5154 -0.6139
 1034TIP3    H2 3067   0.867   5.525   4.108 -0.2321  0.7571 -0.6761
 1035TIP3   OH2 3068   7.102   2.205   4.469 -0.1292  0.2234 -0.2685
 1035TIP3    H1 3069   7.153   2.194   4.550  0.1763  0.3798 -0.4394
 1035TIP3    H2 3070   7.166   2.234   4.404 -0.4683  0.5910 -0.4416
 1036TIP3   OH2 3071   2.817   4.119   5.726  0.3636  0.0498 -0.0041
 1036TIP3    H1 3072   2.772   4.034   5.732  0.9197 -0.2620 -0.2370
 1036TIP3    H2 3073   2.853   4.121   5.637  1.5824 -0.0845  0.4801
 1037TIP3   OH2 3074   2.440   1.392   4.107 -0.4771 -0.2578  0.4621
 1037TIP3    H1 3075   2.361   1.358   4.149 -0.6106  2.6224  2.8959
 1037TIP3    H2 3076   2.504   1.396   4.178  0.7904  0.5382 -0.6992
 1038TIP3   OH2 3077   1.915   6.344   0.735  0.7258 -0.0700  0.1376
 1038TIP3    H1 3078   1.832   6.387   0.713  2.1886  3.1229  0.2073
 1038TIP3    H2 3079   1.912   6.332   0.829 -1.0617 -3.4878 -0.2184
 1039TIP3   OH2 3080   3.943   1.527   3.964 -0.3241  0.1526  0.0507
 1039TIP3    H1 3081   4.019   1.470   3.954 -0.7593 -0.6643  1.2764
 1039TIP3    H2 3082   3.916   1.547   3.874  1.8921  1.2502 -0.4394
 1040TIP3   OH2 3083   4.066   0.528   0.408  0.2107  0.0333  0.1033
 1040TIP3    H1 3084   4.078   0.463   0.339  2.4885 -0.3349  0.7485
 1040TIP3    H2 3085   4.048   0.476   0.487  0.0718  0.3014  0.2488
 1041TIP3   OH2 3086   4.838   2.836   0.397  0.1559  0.1232  0.1844
 1041TIP3    H1 3087   4.777   2.778   0.442  0.8498  1.2600  2.7287
 1041TIP3    H2 3088   4.918   2.784   0.388 -0.5416 -0.7350 -1.5038
 1042TIP3   OH2 3089   1.131   3.062   1.306 -0.1571  0.1014  0.2604
 1042TIP3    H1 3090   1.210   3.047   1.357 -0.8663  1.1100  1.7440
 1042TIP3    H2 3091   1.159   3.056   1.215  1.7412  1.0185  0.7351
 1043TIP3   OH2 3092   6.835   0.871   0.792 -0.1779 -0.1462 -1.1854
 1043TIP3    H1 3093   6.871   0.810   0.727 -0.5180  0.7721 -2.2768
 1043TIP3    H2 3094   6.777   0.928   0.741  0.6155  1.4920 -0.3287
 1044TIP3   OH2 3095   1.058   6.211   4.040 -0.3094 -0.1765 -0.2671
 1044TIP3    H1 3096   0.965   6.222   4.057 -0.1869  1.4997 -0.5242
 1044TIP3    H2 3097   1.090   6.299   4.021  1.4435 -0.6214  0.3628
 1045TIP3   OH2 3098   0.338   3.298   1.241 -0.2863 -0.0308  0.5772
 1045TIP3    H1 3099   0.281   3.348   1.184  0.5372  0.6770  0.3409
 1045TIP3    H2 3100   0.398   3.363   1.278  0.0175 -0.6654  1.2398
 1046TIP3   OH2 3101   4.025   1.691   4.163  0.2723  0.1074  0.4368
 1046TIP3    H1 3102   3.996   1.665   4.076  1.8495  0.0845 -0.1171
 1046TIP3    H2 3103   3.944   1.701   4.214 -0.5772 -1.9655 -0.4220
 1047TIP3   OH2 3104   1.011   6.145   1.633 -0.1524 -0.2713  0.1215
 1047TIP3    H1 3105   0.932   6.198   1.648  0.8881  0.9969  1.4310
 1047TIP3    H2 3106   1.049   6.181   1.553  0.3347  0.7492  0.7881
 1048TIP3   OH2 3107   2.348   3.280   5.026 -0.2449 -0.2250 -0.2700
 1048TIP3    H1 3108   2.420   3.330   4.986  1.2917 -0.9042  1.4889
 1048TIP3    H2 3109   2.325   3.329   5.104 -0.5366 -0.8898  0.0711
 1049TIP3   OH2 3110   5.047   4.955   5.217  0.1384  0.0306  0.3989
 1049TIP3    H1 3111   4.959   4.979   5.188 -0.8325 -1.0548  2.2666
 1049TIP3    H2 3112   5.080   5.033   5.261  0.8428  1.0119 -1.7177
 1050TIP3   OH2 3113   3.292   1.994   0.027 -0.3877 -0.4252 -0.3497
 1050TIP3    H1 3114   3.249   2.075  -0.002 -0.9950 -0.8583 -0.6933
 1050TIP3    H2 3115   3.376   1.993  -0.019  0.4412  0.9143  1.0710
 1051TIP3   OH2 3116   4.196   0.595   0.099 -0.4790 -0.2626 -0.3323
 1051TIP3    H1 3117   4.290   0.589   0.085 -0.2071 -0.1372  1.2351
 1051TIP3    H2 3118   4.165   0.505   0.099 -0.1435 -0.3771  0.4526
 1052TIP3   OH2 3119   5.554   1.729   5.111 -0.2935  0.1173 -0.3755
 1052TIP3    H1 3120   5.501   1.669   5.059  0.2158 -0.7049  0.0419
 1052TIP3    H2 3121   5.644   1.715   5.080 -0.0565  0.0184  0.3432
 1053TIP3   OH2 3122   2.574   1.867   2.865  0.2493 -0.3747 -0.5184
 1053TIP3    H1 3123   2.655   1.888   2.912  0.0212 -1.8244  0.6111
 1053TIP3    H2 3124   2.517   1.830   2.932 -1.1788  0.1574 -1.4032
 1054TIP3   OH2 3125   0.174   0.180   0.171  0.3088  0.4014 -0.1146
 1054TIP3    H1 3126   0.214   0.147   0.091  1.6621  0.5004  0.4904
 1054TIP3    H2 3127   0.080   0.171   0.157  0.5303  0.4145 -1.6969
 1055TIP3   OH2 3128   4.151   1.884   0.569  0.2578 -0.3646  0.0402
 1055TIP3    H1 3129   4.137   1.792   0.592  0.5365 -0.3234  0.3914
 1055TIP3    H2 3130   4.223   1.912   0.626  0.4409 -0.0407 -0.3457
 1056TIP3   OH2 3131   5.321   3.565   0.376 -0.2755  0.0816  0.1499
 1056TIP3    H1 3132   5.406   3.537   0.342  0.4460  1.0074  1.1260
 1056TIP3    H2 3133   5.315   3.526   0.463 -1.4602 -1.0556 -0.3989
 1057TIP3   OH2 3134   0.367   3.753   3.663 -0.6622  0.0620  0.3852
 1057TIP3    H1 3135   0.350   3.766   3.756  1.3119 -0.2745  0.8299
 1057TIP3    H2 3136   0.460   3.732   3.658 -0.5987  0.6253 -1.7254
 1058TIP3   OH2 3137   3.269   6.133   5.620 -0.0772  0.2369 -0.2526
 1058TIP3    H1 3138   3.204   6.064   5.633  0.2500  0.2866  2.0466
 1058TIP3    H2 3139   3.353   6.090   5.636  0.4761  0.3312 -2.5408
 1059TIP3   OH2 3140   1.764   2.813   4.943 -0.1448  0.6324  0.5633
 1059TIP3    H1 3141   1.683   2.863   4.931 -0.5925 -0.1141  0.4225
 1059TIP3    H2 3142   1.791   2.789   4.855 -0.9529 -0.9591  0.7217
 1060TIP3   OH2 3143   2.694   3.351   1.882 -0.0692 -0.0208  0.4044
 1060TIP3    H1 3144   2.666   3.275   1.932 -0.5149 -0.6938 -0.8382
 1060TIP3    H2 3145   2.759   3.393   1.938  0.3326 -1.4136  1.0312
 1061TIP3   OH2 3146   0.245   4.476   4.365  0.5223 -0.3022 -0.6454
 1061TIP3    H1 3147   0.151   4.461   4.352  0.6123 -1.1232 -0.3770
 1061TIP3    H2 3148   0.250   4.565   4.400 -0.3442 -1.0304  1.4491
 1062TIP3   OH2 3149   1.951   3.095   0.258  0.6126  0.3525 -0.0125
 1062TIP3    H1 3150   1.969   3.059   0.171 -0.4161 -0.9915  0.3095
 1062TIP3    H2 3151   1.890   3.168   0.241  0.1410 -0.1214 -0.3981
 1063TIP3   OH2 3152   2.348   6.232   2.298  0.5887  0.0838 -0.2489
 1063TIP3    H1 3153   2.367   6.203   2.387  0.8718  1.4922  0.1749
 1063TIP3    H2 3154   2.266   6.188   2.275  0.4095 -0.1430  0.7752
 1064TIP3   OH2 3155   4.154   1.923   1.725 -0.0530 -0.6496  0.3763
 1064TIP3    H1 3156   4.156   2.018   1.713 -1.8503 -0.7644 -1.4197
 1064TIP3    H2 3157   4.230   1.892   1.676 -0.8537 -0.2654 -1.1762
 1065TIP3   OH2 3158   3.368   0.114   4.335  0.2361  0.8426  0.7326
 1065TIP3    H1 3159   3.449   0.115   4.284  0.3598  0.5520  0.9262
 1065TIP3    H2 3160   3.386   0.171   4.410  0.5690  0.0517  1.2564
 1066TIP3   OH2 3161   7.140   4.418   5.148  0.2273 -0.0619  0.6888
 1066TIP3    H1 3162   7.077   4.357   5.187  0.0702 -0.7551 -0.5885
 1066TIP3    H2 3163   7.124   4.501   5.193 -0.8233 -0.5109  1.1773
 1067TIP3   OH2 3164   3.099   4.513   2.367 -0.2218  0.1732  0.0699
 1067TIP3    H1 3165   3.164   4.540   2.432  0.0628  1.0846 -0.5835
 1067TIP3    H2 3166   3.150   4.470   2.298 -0.6917 -2.5375  1.2820
 1068TIP3   OH2 3167   6.827   4.567   5.738  0.2867 -0.3319 -0.1284
 1068TIP3    H1 3168   6.807   4.546   5.646  0.8761 -0.1279 -0.3070
 1068TIP3    H2 3169   6.779   4.648   5.754 -3.3973 -2.5032  1.0670
 1069TIP3   OH2 3170   3.649   3.975   3.160  0.5471 -0.2338 -0.0623
 1069TIP3    H1 3171   3.591   4.021   3.099 -0.5290 -1.4614  0.0072
 1069TIP3    H2 3172   3.736   4.007   3.138  0.0649  0.1756 -1.5083
 1070TIP3   OH2 3173   0.521   0.125   4.494  0.3909 -0.4082  0.0467
 1070TIP3    H1 3174   0.544   0.053   4.552  1.1626  0.0898  0.3734
 1070TIP3    H2 3175   0.426   0.136   4.505  0.3818 -0.9385  0.4856
 1071TIP3   OH2 3176   6.057   5.853   0.976  0.3744  0.5199  0.3548
 1071TIP3    H1 3177   5.966   5.822   0.968  0.8087 -0.5429 -0.7345
 1071TIP3    H2 3178   6.049   5.939   1.018 -1.0162 -0.2052  1.6836
 1072TIP3   OH2 3179   3.360   0.376   5.359 -0.3075 -0.3283  0.0492
 1072TIP3    H1 3180   3.432   0.352   5.418  0.6692 -2.0502 -1.7217
 1072TIP3    H2 3181   3.357   0.471   5.363  1.9780 -0.2024  0.3175
 1073TIP3   OH2 3182   1.926   0.984   2.123  0.1798 -0.7074  0.4404
 1073TIP3    H1 3183   1.929   0.903   2.072  0.9490 -0.6182  0.3213
 1073TIP3    H2 3184   1.982   1.044   2.074 -2.2177  0.6780 -0.7561
 1074TIP3   OH2 3185   5.060   6.432   5.809 -0.4446  0.1095  0.4203
 1074TIP3    H1 3186   5.023   6.353   5.770 -3.4065  0.9826  1.2084
 1074TIP3    H2 3187   5.061   6.496   5.738  0.7829 -0.2310  0.1015
 1075TIP3   OH2 3188   0.134   3.880   5.818 -0.1161  0.1435  0.3864
 1075TIP3    H1 3189   0.226   3.878   5.790  0.0511 -1.7183  0.9422
 1075TIP3    H2 3190   0.085   3.868   5.737  0.0867  1.7972 -0.0041
 1076TIP3   OH2 3191   4.973   6.247   5.248 -0.0356 -0.4712 -0.5485
 1076TIP3    H1 3192   4.979   6.311   5.177  2.2542 -1.7523 -1.6005
 1076TIP3    H2 3193   4.886   6.207   5.236 -0.1625  0.1438 -1.9001
 1077TIP3   OH2 3194   5.593   5.367   4.988  0.7628 -0.3022 -0.2371
 1077TIP3    H1 3195   5.674   5.329   4.955  0.3915 -1.9135  0.6311
 1077TIP3    H2 3196   5.524   5.310   4.954 -0.1319  1.5325 -1.6831
 1078TIP3   OH2 3197   1.232   5.723   2.151 -0.0865  0.3418 -0.3994
 1078TIP3    H1 3198   1.227   5.809   2.110 -1.5682 -0.7719 -2.7895
 1078TIP3    H2 3199   1.141   5.697   2.164  0.2118 -1.6981 -1.8231
 1079TIP3   OH2 3200   5.687   6.371   2.247 -0.0418  0.3079  0.0771
 1079TIP3    H1 3201   5.633   6.293   2.261  1.5261 -1.3683 -2.2578
 1079TIP3    H2 3202   5.754   6.367   2.315 -1.3308  0.9856  1.4213
 1080TIP3   OH2 3203   6.766   3.203   5.122 -0.3276 -0.1738  0.4409
 1080TIP3    H1 3204   6.734   3.181   5.035  0.4709  0.5270 -0.0506
 1080TIP3    H2 3205   6.843   3.148   5.134 -2.3854 -2.9482  2.2176
 1081TIP3   OH2 3206   5.477   2.453   0.212 -0.3903  0.4496 -0.1432
 1081TIP3    H1 3207   5.490   2.530   0.156  0.0321  1.1491  0.8765
 1081TIP3    H2 3208   5.442   2.489   0.294 -0.0334 -0.4305  0.4075
 1082TIP3   OH2 3209   4.807   6.390   3.663  0.1956 -0.1086  0.9365
 1082TIP3    H1 3210   4.757   6.468   3.643  1.0252  0.9606  2.7552
 1082TIP3    H2 3211   4.875   6.387   3.595  1.1344  1.7000  1.7235
 1083TIP3   OH2 3212   6.609   0.213   3.502 -0.3997 -0.4965  0.5620
 1083TIP3    H1 3213   6.647   0.126   3.515  0.1588 -0.3409  0.0244
 1083TIP3    H2 3214   6.613   0.254   3.589  2.5222  0.2358  0.1757
 1084TIP3   OH2 3215   5.717   1.961   0.048 -0.2742 -0.4357 -0.1214
 1084TIP3    H1 3216   5.709   1.902  -0.027  1.2998  0.6516 -1.2010
 1084TIP3    H2 3217   5.670   2.040   0.021 -0.7030 -0.4610  0.5276
 1085TIP3   OH2 3218   1.204   2.357   1.235 -0.0994 -0.1011  0.0372
 1085TIP3    H1 3219   1.194   2.406   1.153  0.4564 -0.5175 -0.2851
 1085TIP3    H2 3220   1.291   2.382   1.268 -0.2764 -0.0132  0.4504
 1086TIP3   OH2 3221   2.122   0.113   3.050 -0.3462 -0.2707 -0.0689
 1086TIP3    H1 3222   2.036   0.073   3.065 -1.1681  0.4986 -2.2917
 1086TIP3    H2 3223   2.135   0.171   3.125 -0.3884 -2.5295  1.7931
 1087TIP3   OH2 3224   3.761   5.135   5.799  0.2802  0.2857  0.7534
 1087TIP3    H1 3225   3.790   5.091   5.719 -1.1953  2.0973 -0.8761
 1087TIP3    H2 3226   3.769   5.228   5.780  1.4632  0.8205  3.3820
 1088TIP3   OH2 3227   5.165   2.507   0.718  0.0132 -0.2573 -0.2302
 1088TIP3    H1 3228   5.110   2.567   0.669 -0.4959 -1.0937 -0.7068
 1088TIP3    H2 3229   5.200   2.559   0.790  0.2892  0.8388 -1.1211
 1089TIP3   OH2 3230   4.948   3.502   3.308  0.8142  0.2906 -0.1099
 1089TIP3    H1 3231   4.913   3.456   3.384  1.7844 -2.1754 -1.0621
 1089TIP3    H2 3232   5.003   3.571   3.345  0.1578  0.0507  1.3993
 1090TIP3   OH2 3233   5.472   1.558   2.773  0.5917  0.1356 -0.5138
 1090TIP3    H1 3234   5.396   1.524   2.727  0.4955  1.3771 -1.3338
 1090TIP3    H2 3235   5.526   1.597   2.705  1.5416  0.0400  0.1643
 1091TIP3   OH2 3236   7.057   2.459   3.323  0.4478 -0.1218  0.2506
 1091TIP3    H1 3237   7.083   2.472   3.415 -1.1272 -1.3684  0.9133
 1091TIP3    H2 3238   6.986   2.520   3.309  0.2043 -0.4428  0.0807
 1092TIP3   OH2 3239   1.487   5.742   1.014  0.1752 -0.7737  0.6083
 1092TIP3    H1 3240   1.536   5.786   1.083  0.8428 -1.0538  0.3240
 1092TIP3    H2 3241   1.513   5.650   1.021  2.1940 -0.4651 -1.5438
 1093TIP3   OH2 3242   4.207   4.793   1.274 -0.1981  0.1540 -0.3406
 1093TIP3    H1 3243   4.164   4.865   1.319  0.6519 -0.7981  2.1978
 1093TIP3    H2 3244   4.300   4.814   1.278 -0.0542 -0.2854 -1.1164
 1094TIP3   OH2 3245   2.696   5.843   4.682  0.3025  0.2384 -0.3231
 1094TIP3    H1 3246   2.785   5.878   4.685  0.4624 -0.1193 -0.8840
 1094TIP3    H2 3247   2.673   5.831   4.774  0.2423  1.7955 -0.1020
 1095TIP3   OH2 3248   2.359   6.152   0.750  0.7958  0.4976  0.1244
 1095TIP3    H1 3249   2.277   6.158   0.800  0.7164  1.2592 -0.0835
 1095TIP3    H2 3250   2.348   6.074   0.696  1.0376 -0.5621  1.5464
 1096TIP3   OH2 3251   1.549   0.076   0.250  0.3490  0.4723  0.3606
 1096TIP3    H1 3252   1.471   0.116   0.212  0.4892  1.7479  1.3231
 1096TIP3    H2 3253   1.550  -0.013   0.216  0.1764  1.3453 -2.1702
 1097TIP3   OH2 3254   0.948   6.762   2.336 -0.2108 -0.1681 -0.5599
 1097TIP3    H1 3255   0.910   6.849   2.323 -1.6884 -0.8903 -1.4710
 1097TIP3    H2 3256   0.872   6.705   2.350  0.6550 -1.4547 -0.8844
 1098TIP3   OH2 3257   5.391   1.149   2.630  0.0375 -0.2302  0.4012
 1098TIP3    H1 3258   5.326   1.178   2.566  1.7792  1.0005 -0.9149
 1098TIP3    H2 3259   5.381   1.054   2.633 -1.1909 -0.1447 -0.4610
 1099TIP3   OH2 3260   1.097   3.507   4.244  0.1419  0.2013  0.4117
 1099TIP3    H1 3261   1.175   3.556   4.270 -0.4730  2.2453 -1.3190
 1099TIP3    H2 3262   1.025   3.569   4.250 -0.7727 -0.5893 -1.3683
 1100TIP3   OH2 3263   2.951   3.807   3.688 -0.5559 -0.1212  0.6422
 1100TIP3    H1 3264   2.918   3.895   3.669  0.5922  0.0976 -0.5104
 1100TIP3    H2 3265   2.915   3.786   3.774 -0.6425  1.5931  1.0730
 1101TIP3   OH2 3266   1.294   1.139   4.183  0.4587 -0.1401 -1.0793
 1101TIP3    H1 3267   1.376   1.090   4.184  0.9086  0.5807  0.1459
 1101TIP3    H2 3268   1.316   1.223   4.224 -1.5653 -1.1071  2.3489
 1102TIP3   OH2 3269   7.145   3.255   1.158 -0.1519  1.0877 -0.4442
 1102TIP3    H1 3270   7.121   3.208   1.238  1.4127 -1.1449 -1.2029
 1102TIP3    H2 3271   7.181   3.338   1.189 -2.3243  1.5857  0.9804
 1103TIP3   OH2 3272   0.348   4.154   1.533  0.8312  0.2675  0.2347
 1103TIP3    H1 3273   0.310   4.213   1.598  0.8833  0.8474 -0.2538
 1103TIP3    H2 3274   0.380   4.080   1.584  1.6044  1.0784  0.9800
 1104TIP3   OH2 3275   0.887   0.990   0.133 -0.6282  0.1317  0.2167
 1104TIP3    H1 3276   0.962   0.938   0.163 -0.8221 -0.2485  0.0493
 1104TIP3    H2 3277   0.834   0.929   0.083 -1.6646  0.0913  1.3179
 1105TIP3   OH2 3278   5.996   3.379   5.133 -0.0687  0.8181 -0.3722
 1105TIP3    H1 3279   6.059   3.410   5.068  2.7985 -1.9312  0.8251
 1105TIP3    H2 3280   5.979   3.456   5.188  2.0495  1.7653 -0.9381
 1106TIP3   OH2 3281   7.090   3.096   0.704  0.7357  0.1679 -0.0766
 1106TIP3    H1 3282   7.039   3.149   0.643 -2.1918 -1.8783  0.3992
 1106TIP3    H2 3283   7.176   3.087   0.661  1.3202  4.7180 -0.3521
 1107TIP3   OH2 3284   0.794   0.151   5.209  0.3400 -0.3808 -0.3126
 1107TIP3    H1 3285   0.711   0.119   5.173  1.4704 -2.8369 -0.9683
 1107TIP3    H2 3286   0.789   0.130   5.303  0.1097 -0.2409 -0.2931
 1108TIP3   OH2 3287   2.685  -0.009   1.211  0.3713  0.6187  0.0931
 1108TIP3    H1 3288   2.752   0.051   1.180 -0.4529  1.2179 -0.5682
 1108TIP3    H2 3289   2.603   0.041   1.208 -0.1446 -0.1406  0.7363
 1109TIP3   OH2 3290   1.345   4.507   2.618  0.0284  0.1991 -0.3163
 1109TIP3    H1 3291   1.415   4.551   2.569  0.4098 -0.4015 -0.3124
 1109TIP3    H2 3292   1.296   4.579   2.658  1.4462  0.6105  0.7899
 1110TIP3   OH2 3293   2.393   5.373   5.285  0.1178  0.5464  0.6456
 1110TIP3    H1 3294   2.487   5.361   5.303  0.1727  1.4424  0.9744
 1110TIP3    H2 3295   2.352   5.371   5.372 -0.4407 -1.9139  0.3976
 1111TIP3   OH2 3296   6.084   2.602   0.507  0.2764 -0.3379 -0.2979
 1111TIP3    H1 3297   6.078   2.530   0.570  0.5983  2.5307  3.3218
 1111TIP3    H2 3298   5.994   2.618   0.480 -0.0500 -0.8258  0.4528
 1112TIP3   OH2 3299   0.018   1.726   3.598 -0.7238  0.2832  0.0344
 1112TIP3    H1 3300  -0.008   1.636   3.618  0.1165  0.1020  0.3526
 1112TIP3    H2 3301   0.033   1.767   3.683 -1.5872  0.8832 -0.0904
 1113TIP3   OH2 3302   6.287   1.008   1.149  0.6173 -0.4459 -0.3075
 1113TIP3    H1 3303   6.320   0.926   1.187 -1.7165 -1.0618  0.5389
 1113TIP3    H2 3304   6.249   1.055   1.223 -0.2234  0.2981 -1.1890
 1114TIP3   OH2 3305   2.619   3.624   5.284  0.8347  0.1782 -0.3382
 1114TIP3    H1 3306   2.611   3.599   5.192 -2.8261  0.3579 -0.2238
 1114TIP3    H2 3307   2.597   3.717   5.285 -1.3124 -0.2829  0.8602
 1115TIP3   OH2 3308   4.524   5.898   4.555 -0.1606 -0.0766 -0.3838
 1115TIP3    H1 3309   4.451   5.879   4.497  0.4005 -0.0159 -1.1276
 1115TIP3    H2 3310   4.577   5.819   4.553 -0.2158 -0.1307  0.1735
 1116TIP3   OH2 3311   1.760   3.803   1.202 -0.6749 -0.7044  0.5531
 1116TIP3    H1 3312   1.787   3.737   1.265  0.2594 -1.4685 -0.6203
 1116TIP3    H2 3313   1.834   3.864   1.197  0.3805 -2.0365 -1.6262
 1117TIP3   OH2 3314   6.368   4.887   3.025 -0.1251 -0.1694  0.2170
 1117TIP3    H1 3315   6.337   4.954   3.086  1.2130  0.2640  0.4406
 1117TIP3    H2 3316   6.404   4.937   2.952 -1.6227 -0.6826 -0.9250
 1118TIP3   OH2 3317   0.284   5.584   3.843  0.4806  0.1720 -0.8294
 1118TIP3    H1 3318   0.350   5.650   3.826  1.0731  0.1028  0.9560
 1118TIP3    H2 3319   0.320   5.503   3.806  0.3743  0.5707 -1.8070
 1119TIP3   OH2 3320   3.886   2.637   0.940 -0.4064  0.7500 -0.6199
 1119TIP3    H1 3321   3.807   2.624   0.994 -0.7381  0.7993 -1.0875
 1119TIP3    H2 3322   3.899   2.552   0.897  0.6326  0.2894  0.5445
 1120TIP3   OH2 3323   6.054   5.273   5.587  0.1683 -0.5485 -0.3760
 1120TIP3    H1 3324   6.053   5.177   5.578  3.2493 -0.5969 -1.3251
 1120TIP3    H2 3325   6.046   5.306   5.498  1.0036 -0.0097 -0.2631
 1121TIP3   OH2 3326   1.678   6.202   4.332 -0.7093  0.0650 -0.0658
 1121TIP3    H1 3327   1.683   6.113   4.297 -0.7826  0.0020  0.0760
 1121TIP3    H2 3328   1.712   6.258   4.263  1.2576 -0.2549  0.5973
 1122TIP3   OH2 3329   3.280   3.193   1.365 -0.1034 -0.5371  0.2100
 1122TIP3    H1 3330   3.260   3.188   1.272 -0.0651 -0.0169  0.1700
 1122TIP3    H2 3331   3.328   3.113   1.385  0.5534 -0.2985 -0.3795
 1123TIP3   OH2 3332   0.239   2.838   0.214 -0.0688  0.5885  0.3135
 1123TIP3    H1 3333   0.297   2.860   0.141 -2.5034  0.9963 -1.6336
 1123TIP3    H2 3334   0.234   2.743   0.212  0.5791  0.5455  0.5443
 1124TIP3   OH2 3335   2.570   2.732   1.527 -0.4431  0.1318  0.5203
 1124TIP3    H1 3336   2.601   2.709   1.615 -0.3002 -0.4508  0.3226
 1124TIP3    H2 3337   2.482   2.696   1.522  0.2433 -1.5237 -0.2331
 1125TIP3   OH2 3338   4.266   5.872   2.659  0.4931 -0.5446  0.4600
 1125TIP3    H1 3339   4.324   5.836   2.591  1.5148 -0.7133  1.3891
 1125TIP3    H2 3340   4.194   5.910   2.610  0.6868 -1.5490 -0.6840
 1126TIP3   OH2 3341   3.759   4.740   0.688  0.1682  0.0073 -0.4490
 1126TIP3    H1 3342   3.765   4.763   0.595  0.7015 -1.9455 -0.9497
 1126TIP3    H2 3343   3.667   4.752   0.710 -0.5779 -2.2407 -2.0556
 1127TIP3   OH2 3344   0.829   1.854   5.373 -0.1823  0.3670  0.0677
 1127TIP3    H1 3345   0.825   1.810   5.458 -1.1324  0.2127 -0.0479
 1127TIP3    H2 3346   0.826   1.947   5.394  0.3019  0.3459  0.2362
 1128TIP3   OH2 3347   4.925   1.216   2.936  0.7739 -0.0952 -0.7420
 1128TIP3    H1 3348   4.989   1.287   2.935  1.5408 -0.7569 -0.1218
 1128TIP3    H2 3349   4.937   1.170   2.853  1.2025 -0.3010 -0.5665
 1129TIP3   OH2 3350   6.288   1.889   5.376 -0.5841 -0.8636  0.9262
 1129TIP3    H1 3351   6.233   1.933   5.311  2.3966 -1.9585 -2.6682
 1129TIP3    H2 3352   6.266   1.796   5.368  0.8902 -1.1856  0.2543
 1130TIP3   OH2 3353   2.397   2.681   4.744  0.2629  0.3963 -0.3727
 1130TIP3    H1 3354   2.369   2.590   4.733  0.8284  0.2995 -1.2160
 1130TIP3    H2 3355   2.319   2.728   4.773 -0.2739 -0.1994 -0.8160
 1131TIP3   OH2 3356   3.893   2.935   3.920 -0.2809 -0.1285  0.2471
 1131TIP3    H1 3357   3.959   2.961   3.856  0.7862 -1.0690  0.9184
 1131TIP3    H2 3358   3.831   3.007   3.922  2.1084  2.0648  1.4782
 1132TIP3   OH2 3359   4.306   5.768   0.914 -0.0723 -0.3458  0.1096
 1132TIP3    H1 3360   4.261   5.699   0.866  1.4999 -0.8005 -0.8020
 1132TIP3    H2 3361   4.298   5.743   1.006 -0.1944 -1.3316 -0.1577
 1133TIP3   OH2 3362   6.804   0.899   4.685 -0.5793  0.0511 -0.6097
 1133TIP3    H1 3363   6.773   0.832   4.624  0.1853 -0.8366 -0.0679
 1133TIP3    H2 3364   6.876   0.943   4.639 -2.1980  1.7401 -1.6537
 1134TIP3   OH2 3365   5.461   1.570   3.381  0.0117  0.5449 -0.2991
 1134TIP3    H1 3366   5.456   1.606   3.293  0.2003  0.7048 -0.2453
 1134TIP3    H2 3367   5.396   1.618   3.431 -0.0929  0.4565 -0.3511
 1135TIP3   OH2 3368   4.924   6.056   3.029 -0.5660 -0.0446  0.1853
 1135TIP3    H1 3369   5.014   6.080   3.006 -0.8507  0.7214 -0.1644
 1135TIP3    H2 3370   4.892   6.131   3.080 -1.6640  0.6195 -1.3928
 1136TIP3   OH2 3371   1.010   1.858   3.998 -0.2770 -0.1396 -0.2311
 1136TIP3    H1 3372   1.012   1.899   3.912  2.7288  1.1680  0.3328
 1136TIP3    H2 3373   0.944   1.907   4.047 -0.1723  0.8149 -1.0298
 1137TIP3   OH2 3374   1.890   1.441   3.902  0.3776  0.3497 -0.3322
 1137TIP3    H1 3375   1.924   1.354   3.880 -1.1029 -0.6207  1.0709
 1137TIP3    H2 3376   1.795   1.430   3.905  0.2264  1.7603  0.8850
 1138TIP3   OH2 3377   0.884   0.553   5.589  0.3776 -0.0845  0.0566
 1138TIP3    H1 3378   0.866   0.462   5.612 -1.3247 -0.3260 -1.9381
 1138TIP3    H2 3379   0.801   0.586   5.555  0.8709  2.3373  0.9784
 1139TIP3   OH2 3380   2.840   4.810   1.165 -0.0257  0.2936 -0.0603
 1139TIP3    H1 3381   2.875   4.808   1.254  0.3025 -1.8843 -0.2000
 1139TIP3    H2 3382   2.866   4.727   1.127 -0.2205  1.1556 -2.1953
 1140TIP3   OH2 3383   1.892   5.787   1.536 -0.2671 -0.2685  0.5322
 1140TIP3    H1 3384   1.880   5.798   1.630 -1.2175  2.8696  0.1551
 1140TIP3    H2 3385   1.987   5.783   1.524 -0.0869  0.5290  1.5553
 1141TIP3   OH2 3386   1.783   0.395   0.126  0.3255 -0.4342 -0.0463
 1141TIP3    H1 3387   1.717   0.388   0.057  0.9346 -1.3916 -0.5612
 1141TIP3    H2 3388   1.838   0.469   0.100 -2.5553  2.8166  2.2318
 1142TIP3   OH2 3389   0.431   1.804   3.274 -0.5193  0.5491  0.4028
 1142TIP3    H1 3390   0.398   1.850   3.352  0.0268  0.5694  0.6324
 1142TIP3    H2 3391   0.371   1.731   3.262 -0.0553 -0.0240  1.4342
 1143TIP3   OH2 3392   1.472   1.481   2.235 -0.4904  0.5477 -0.4589
 1143TIP3    H1 3393   1.529   1.514   2.166  2.0325 -2.6067 -0.1003
 1143TIP3    H2 3394   1.425   1.407   2.195  1.2602 -1.5568  1.1147
 1144TIP3   OH2 3395   3.242   0.398   5.048 -0.1738  0.1596 -0.3766
 1144TIP3    H1 3396   3.259   0.469   5.111 -0.1604  0.7717 -1.0518
 1144TIP3    H2 3397   3.266   0.318   5.095 -0.5531  0.5639  0.5332
 1145TIP3   OH2 3398   7.056   6.051   1.401 -0.5536  0.0992  0.4375
 1145TIP3    H1 3399   7.108   6.083   1.327 -1.0480  0.5237  0.2626
 1145TIP3    H2 3400   7.011   6.129   1.433  1.0301  0.2919  2.3381
 1146TIP3   OH2 3401   0.318   4.428   4.032 -0.5469  0.5253  0.2468
 1146TIP3    H1 3402   0.332   4.459   3.943  1.5319 -0.0655  0.3155
 1146TIP3    H2 3403   0.403   4.393   4.059 -1.4080 -0.2898  2.0802
 1147TIP3   OH2 3404   5.573   2.623   3.718 -0.3759  0.4593  0.0322
 1147TIP3    H1 3405   5.597   2.674   3.641 -0.1907 -0.2970 -0.4212
 1147TIP3    H2 3406   5.533   2.686   3.777 -0.9574  0.9649 -0.8823
 1148TIP3   OH2 3407   6.177   5.577   0.972 -0.1117  0.5081 -0.0446
 1148TIP3    H1 3408   6.136   5.640   1.031 -0.5286  0.1038  0.0980
 1148TIP3    H2 3409   6.261   5.617   0.950 -1.0294  1.8680 -1.2314
 1149TIP3   OH2 3410   1.897   1.841   4.270 -0.5611  0.4863  0.5373
 1149TIP3    H1 3411   1.844   1.769   4.305 -1.5749  0.7244 -0.4326
 1149TIP3    H2 3412   1.917   1.815   4.180  0.7422  0.5425  0.7954
 1150TIP3   OH2 3413   3.031   0.142   0.732 -0.2881 -0.1333 -0.3331
 1150TIP3    H1 3414   2.951   0.144   0.783 -2.1093 -0.9282 -2.9136
 1150TIP3    H2 3415   3.087   0.078   0.776 -1.4347 -0.2350  1.0182
 1151TIP3   OH2 3416   1.998   4.360   5.745  0.7744 -0.2287 -0.1081
 1151TIP3    H1 3417   2.022   4.382   5.835  0.4404 -0.7788  0.1253
 1151TIP3    H2 3418   2.081   4.342   5.701  1.0087  0.8528 -0.1435
 1152TIP3   OH2 3419   6.181   6.275   0.445  0.0350 -0.1372  0.4941
 1152TIP3    H1 3420   6.260   6.283   0.391  0.0567  1.8958  0.7188
 1152TIP3    H2 3421   6.140   6.194   0.417  2.0927 -1.1392  0.2238
 1153TIP3   OH2 3422   6.054   6.522   5.745  0.0533 -0.0847  0.7785
 1153TIP3    H1 3423   5.964   6.499   5.770  0.1851  0.5809  1.9385
 1153TIP3    H2 3424   6.108   6.479   5.811  0.6517 -1.0299 -0.2948
 1154TIP3   OH2 3425   1.316   6.490   4.903 -0.1646 -0.3023 -0.0972
 1154TIP3    H1 3426   1.231   6.505   4.863  0.0332  1.2687  0.0063
 1154TIP3    H2 3427   1.367   6.569   4.883  1.1751 -1.0896  0.0759
 1155TIP3   OH2 3428   1.590   2.267   3.248  0.0423 -0.5319  0.6310
 1155TIP3    H1 3429   1.623   2.214   3.176 -0.0490 -0.1600  0.3093
 1155TIP3    H2 3430   1.495   2.268   3.236 -0.2038 -2.3074  2.0435
 1156TIP3   OH2 3431   0.588   4.305   4.087 -0.0843  0.0966  0.0987
 1156TIP3    H1 3432   0.667   4.344   4.124  0.8238  0.7962 -2.4140
 1156TIP3    H2 3433   0.599   4.211   4.101 -0.2103  0.3677  2.3057
 1157TIP3   OH2 3434   4.634   2.122   5.149  0.0387 -0.1182  0.2439
 1157TIP3    H1 3435   4.547   2.106   5.113 -0.7099  0.6939  1.6213
 1157TIP3    H2 3436   4.665   2.036   5.177 -0.3708 -0.3912 -0.1389
 1158TIP3   OH2 3437   4.924   0.802   5.738  0.1782  0.1957 -0.3859
 1158TIP3    H1 3438   4.867   0.755   5.678  0.2212  1.7678 -1.7281
 1158TIP3    H2 3439   5.009   0.759   5.730  0.0129 -0.0297 -0.9334
 1159TIP3   OH2 3440   2.604   3.745   4.090  0.2246  0.1812 -0.6302
 1159TIP3    H1 3441   2.537   3.772   4.153  0.5545 -1.6423  0.5611
 1159TIP3    H2 3442   2.668   3.698   4.142  2.0689  1.1891 -1.8812
 1160TIP3   OH2 3443   2.405   5.778   5.751  0.2461 -0.0373 -0.0776
 1160TIP3    H1 3444   2.387   5.720   5.677 -0.7746 -0.7364  0.6977
 1160TIP3    H2 3445   2.414   5.719   5.826  0.0691  0.7476  0.5716
 1161TIP3   OH2 3446   1.329   1.670   5.015 -0.1064  0.2168  0.2446
 1161TIP3    H1 3447   1.279   1.599   5.056 -1.0771  1.6166  1.6051
 1161TIP3    H2 3448   1.265   1.713   4.957  0.4586  0.0386 -0.5273
 1162TIP3   OH2 3449   3.503   2.191   4.694  0.2771 -0.2916  0.0528
 1162TIP3    H1 3450   3.499   2.204   4.600  0.8280  0.2154  0.0972
 1162TIP3    H2 3451   3.465   2.271   4.731 -0.9975 -0.9535  0.2570
 1163TIP3   OH2 3452   6.049   1.468   0.195  0.4830  0.1165  0.1377
 1163TIP3    H1 3453   6.062   1.541   0.255  2.3499  0.8812 -1.1099
 1163TIP3    H2 3454   6.061   1.390   0.249  1.1222  0.7778  0.9751
 1164TIP3   OH2 3455   4.787   6.322   4.345  0.1955  0.5394 -0.1501
 1164TIP3    H1 3456   4.786   6.228   4.326 -2.2926  0.1128  1.4466
 1164TIP3    H2 3457   4.696   6.342   4.369  1.1856  2.7044  2.3782
 1165TIP3   OH2 3458   6.834   6.691   4.337 -0.1997 -0.1747  1.3729
 1165TIP3    H1 3459   6.827   6.703   4.432  0.9881  1.5939  1.2989
 1165TIP3    H2 3460   6.900   6.622   4.326 -1.0562 -1.0768  1.8297
 1166TIP3   OH2 3461   0.513   6.037   3.778  0.5529 -0.0610  0.1398
 1166TIP3    H1 3462   0.572   6.013   3.706  0.6999  1.7990 -0.4244
 1166TIP3    H2 3463   0.436   6.072   3.735 -0.3055 -0.9633  0.9038
 1167TIP3   OH2 3464   0.100   0.353   4.089 -0.3288  0.1564  0.1160
 1167TIP3    H1 3465   0.140   0.275   4.129 -0.7999 -0.3906 -0.4665
 1167TIP3    H2 3466   0.073   0.406   4.164  0.0374 -0.2130  0.5220
 1168TIP3   OH2 3467   3.643   6.023   4.305  0.6256  0.2621 -0.2281
 1168TIP3    H1 3468   3.699   5.990   4.376 -0.7774 -0.0438  0.7888
 1168TIP3    H2 3469   3.573   5.958   4.299  0.3513  0.6530 -1.4369
 1169TIP3   OH2 3470   0.919   2.995   5.834  0.0012  0.0151  0.3166
 1169TIP3    H1 3471   0.853   3.014   5.767  2.4165 -1.2577 -2.7124
 1169TIP3    H2 3472   0.978   3.070   5.831  0.8799 -0.6667 -0.0676
 1170TIP3   OH2 3473   6.711   0.419   2.407  0.5297 -0.3348  0.0220
 1170TIP3    H1 3474   6.785   0.369   2.375  0.3238 -1.7861  1.6703
 1170TIP3    H2 3475   6.650   0.353   2.441 -1.0117  0.8848 -0.2613
 1171TIP3   OH2 3476   5.774   0.542   2.343  0.1824  0.5841  0.3643
 1171TIP3    H1 3477   5.702   0.530   2.404 -0.3294 -0.9029 -0.4841
 1171TIP3    H2 3478   5.772   0.635   2.320 -0.2154  0.9534  1.8471
 1172TIP3   OH2 3479   5.221   0.460   5.489 -0.5199  0.1484 -0.4506
 1172TIP3    H1 3480   5.279   0.496   5.556  1.8970 -1.9361 -1.2512
 1172TIP3    H2 3481   5.157   0.408   5.538 -0.4480  0.8150  0.3646
 1173TIP3   OH2 3482   1.342   5.078   2.964  0.0459 -0.2531  0.6628
 1173TIP3    H1 3483   1.406   5.104   3.030  1.1878 -0.9310 -0.1379
 1173TIP3    H2 3484   1.347   5.146   2.897 -0.1965 -0.2313  0.6639
 1174TIP3   OH2 3485   2.975   5.353   1.500  0.5350  0.1909 -0.5061
 1174TIP3    H1 3486   3.061   5.337   1.462 -0.5597  1.5947 -3.9847
 1174TIP3    H2 3487   2.970   5.448   1.509 -0.8573  0.1933 -1.0272
 1175TIP3   OH2 3488   3.767   6.064   3.691 -0.1334 -0.7356  0.8941
 1175TIP3    H1 3489   3.780   6.068   3.596  0.5041  1.1360  1.0195
 1175TIP3    H2 3490   3.683   6.019   3.702  0.2969 -1.9552 -0.4893
 1176TIP3   OH2 3491   1.091   2.442   3.644 -0.5827 -0.3271  0.6473
 1176TIP3    H1 3492   1.156   2.386   3.687  1.0088  1.2553  0.3974
 1176TIP3    H2 3493   1.065   2.393   3.566  1.4400 -0.3785 -0.0486
 1177TIP3   OH2 3494   4.205   2.662   0.647 -0.4540  0.0416 -0.4880
 1177TIP3    H1 3495   4.176   2.576   0.679 -0.9901 -0.2908 -1.8252
 1177TIP3    H2 3496   4.194   2.658   0.552 -1.6306  2.0040 -0.4900
 1178TIP3   OH2 3497   4.807   4.875   3.263  0.1668  0.0221 -0.1973
 1178TIP3    H1 3498   4.845   4.816   3.327  1.0955  0.1434 -0.6261
 1178TIP3    H2 3499   4.880   4.902   3.208 -0.5627  0.1128 -1.1585
 1179TIP3   OH2 3500   4.428   5.556   2.966 -0.8624  0.4169 -0.4792
 1179TIP3    H1 3501   4.390   5.574   2.880  2.0891  1.5285 -1.6935
 1179TIP3    H2 3502   4.515   5.519   2.946  0.4790  1.9939  1.9830
 1180TIP3   OH2 3503   4.398   4.032   1.610  0.3588  0.4324 -0.4887
 1180TIP3    H1 3504   4.458   4.048   1.683 -0.4611  3.9039 -0.3830
 1180TIP3    H2 3505   4.317   4.003   1.651  0.4260  0.7006 -0.1592
 1181TIP3   OH2 3506   2.732   3.102   4.177 -0.0426  0.1956  0.2210
 1181TIP3    H1 3507   2.674   3.142   4.112 -0.5218  0.0112  0.5305
 1181TIP3    H2 3508   2.733   3.009   4.155  1.0721  0.3670 -0.4966
 1182TIP3   OH2 3509   4.887   1.031   1.666  0.2295  0.1383 -0.4544
 1182TIP3    H1 3510   4.967   0.978   1.670 -0.4257 -0.9173 -0.9752
 1182TIP3    H2 3511   4.891   1.073   1.580 -0.2614 -0.7114 -0.8980
 1183TIP3   OH2 3512   5.617   3.036   2.192  0.2621 -0.0065 -0.0220
 1183TIP3    H1 3513   5.637   3.017   2.283  0.4595  0.0731 -0.0487
 1183TIP3    H2 3514   5.698   3.015   2.144  0.3035  0.3706 -0.1216
 1184TIP3   OH2 3515   3.583   2.508   3.833 -0.1381  0.3801  0.0901
 1184TIP3    H1 3516   3.514   2.482   3.894  0.8085 -0.6772  0.7617
 1184TIP3    H2 3517   3.663   2.470   3.870  0.2626 -1.8084 -2.6186
 1185TIP3   OH2 3518   7.119   3.002   2.986  0.5286  0.1506  0.4184
 1185TIP3    H1 3519   7.122   3.097   2.976 -0.0301  0.0614 -0.8148
 1185TIP3    H2 3520   7.063   2.972   2.914  2.0627 -1.2665 -0.2396
 1186TIP3   OH2 3521   6.441   3.554   4.751 -0.4831  0.3815  0.3147
 1186TIP3    H1 3522   6.392   3.472   4.754 -1.1582  0.7734  0.0294
 1186TIP3    H2 3523   6.488   3.556   4.834  0.9105 -1.1196 -0.3588
 1187TIP3   OH2 3524   4.540   5.734   0.660 -0.5920  0.7954  0.2625
 1187TIP3    H1 3525   4.460   5.682   0.658 -0.1227  0.0328  0.8669
 1187TIP3    H2 3526   4.539   5.784   0.579 -1.6005  0.6704  0.1922
 1188TIP3   OH2 3527   6.416   1.234   0.569  0.4723  0.3540  0.2898
 1188TIP3    H1 3528   6.328   1.270   0.561  0.7123  0.7222 -0.8410
 1188TIP3    H2 3529   6.434   1.195   0.484  1.5376  0.5949  0.3889
 1189TIP3   OH2 3530   3.486   0.615   1.765 -0.1109 -0.2813 -0.5303
 1189TIP3    H1 3531   3.526   0.604   1.678  1.7411  0.5324  0.1646
 1189TIP3    H2 3532   3.424   0.543   1.772 -2.1012  0.9817 -3.4554
 1190TIP3   OH2 3533   3.033   6.265   4.527  0.3248  0.0697 -0.2950
 1190TIP3    H1 3534   2.997   6.182   4.496  2.5068 -0.3575 -1.9334
 1190TIP3    H2 3535   3.088   6.241   4.602 -1.2444  0.4818  1.0521
 1191TIP3   OH2 3536   6.074   2.648   5.713  0.3171 -0.1347 -0.2983
 1191TIP3    H1 3537   6.056   2.608   5.798  1.6171 -1.1442 -0.4661
 1191TIP3    H2 3538   6.014   2.722   5.708  2.2452  1.8931  2.8740
 1192TIP3   OH2 3539   0.153   6.325   1.045  0.7081 -0.2513  0.5892
 1192TIP3    H1 3540   0.217   6.393   1.024 -0.5119  0.4365 -1.1613
 1192TIP3    H2 3541   0.074   6.352   0.997 -0.2971 -2.0583  1.1664
 1193TIP3   OH2 3542   0.675   5.134   3.018  0.5267 -0.3562 -0.2337
 1193TIP3    H1 3543   0.682   5.053   3.069 -1.1981 -0.0838  0.5205
 1193TIP3    H2 3544   0.747   5.189   3.049 -0.0434 -0.4833  1.4469
 1194TIP3   OH2 3545   3.820   4.291   3.341  0.0937  0.0441 -0.5081
 1194TIP3    H1 3546   3.752   4.279   3.407  0.2855 -0.5437 -0.4159
 1194TIP3    H2 3547   3.902   4.284   3.389  0.2262  0.5110 -0.6599
 1195TIP3   OH2 3548   6.446   5.227   3.608 -0.2934 -0.1258 -0.3055
 1195TIP3    H1 3549   6.378   5.291   3.631 -1.6367 -1.8107  0.6911
 1195TIP3    H2 3550   6.402   5.168   3.546  0.5468 -0.7509 -0.3168
 1196TIP3   OH2 3551   1.790   2.404   4.294 -0.3579  0.5912  0.8448
 1196TIP3    H1 3552   1.797   2.410   4.389 -3.0868 -2.5933  1.4302
 1196TIP3    H2 3553   1.821   2.316   4.273  0.1267  1.2161 -1.2231
 1197TIP3   OH2 3554   1.555   0.135   2.545 -0.2437  0.2267  0.0534
 1197TIP3    H1 3555   1.505   0.155   2.466  0.7794 -0.8505 -0.9085
 1197TIP3    H2 3556   1.555   0.217   2.595 -0.5496  1.0560 -1.2616
 1198TIP3   OH2 3557   4.290   0.596   3.808 -0.1062 -0.0784 -0.6224
 1198TIP3    H1 3558   4.354   0.525   3.811 -0.8064 -0.6955  1.2634
 1198TIP3    H2 3559   4.310   0.650   3.884 -1.5550 -0.0652 -0.2123
 1199TIP3   OH2 3560   0.347   0.445   0.955  0.5587  0.8143 -0.0680
 1199TIP3    H1 3561   0.264   0.493   0.957  0.4179  0.5466  0.8207
 1199TIP3    H2 3562   0.356   0.408   1.042  1.5195  0.6651 -0.2139
 1200TIP3   OH2 3563   5.121   1.432   3.416  0.1515  0.7063  0.2690
 1200TIP3    H1 3564   5.147   1.523   3.434  4.2173 -0.1310 -0.4015
 1200TIP3    H2 3565   5.121   1.390   3.502  2.1099  0.5609  0.2327
 1201TIP3   OH2 3566   3.434   0.898   0.824 -0.1724  0.2587  0.3808
 1201TIP3    H1 3567   3.482   0.951   0.888  0.5414 -1.7601  1.5939
 1201TIP3    H2 3568   3.496   0.884   0.753  0.1285 -0.1220  0.7161
 1202TIP3   OH2 3569   4.648   1.531   3.708  0.2592 -0.7242 -0.1133
 1202TIP3    H1 3570   4.716   1.593   3.683 -2.0852  2.0196 -0.1966
 1202TIP3    H2 3571   4.628   1.483   3.628  2.7456 -2.4273  0.1681
 1203TIP3   OH2 3572   1.869   3.775   4.231  0.1438  0.0954  0.0697
 1203TIP3    H1 3573   1.796   3.764   4.171  0.4327 -1.0009 -0.1148
 1203TIP3    H2 3574   1.829   3.792   4.316 -0.2785  1.1196 -0.3205
 1204TIP3   OH2 3575   4.939   1.948   2.444 -0.2917 -0.8805  0.4531
 1204TIP3    H1 3576   4.846   1.924   2.444 -0.6792  0.5412 -0.0322
 1204TIP3    H2 3577   4.941   2.036   2.481  0.5676  0.1160 -1.7949
 1205TIP3   OH2 3578   1.412   3.566   4.979 -0.0721 -0.3501 -0.0206
 1205TIP3    H1 3579   1.469   3.491   4.963  1.2636  0.4882  0.6976
 1205TIP3    H2 3580   1.393   3.563   5.072  0.5654  0.5779  0.1547
 1206TIP3   OH2 3581   6.869   4.482   0.645  0.8516  0.0244  0.4124
 1206TIP3    H1 3582   6.902   4.432   0.571  2.0027 -0.3701  1.1738
 1206TIP3    H2 3583   6.838   4.564   0.607  3.3577  0.7264 -0.2715
 1207TIP3   OH2 3584   0.855   1.689   5.597  0.1930 -0.9058  0.4439
 1207TIP3    H1 3585   0.830   1.720   5.684  0.6197  1.2432 -0.1523
 1207TIP3    H2 3586   0.951   1.684   5.600  0.5949  2.8185 -0.9129
 1208TIP3   OH2 3587   3.114   2.385   1.532  0.2471 -0.7169 -0.3897
 1208TIP3    H1 3588   3.186   2.428   1.486 -0.2769  0.8598  0.2193
 1208TIP3    H2 3589   3.151   2.365   1.618  0.4719 -1.4700 -0.6525
 1209TIP3   OH2 3590   5.211   2.911   3.811 -0.3979 -0.1423  0.2904
 1209TIP3    H1 3591   5.292   2.860   3.817  0.3260  1.0361  0.9504
 1209TIP3    H2 3592   5.148   2.862   3.863 -0.0714 -0.9742 -0.0669
 1210TIP3   OH2 3593   3.227   0.490   2.193  0.5022 -0.5633 -0.3765
 1210TIP3    H1 3594   3.176   0.461   2.117 -0.5133  1.8679 -0.7215
 1210TIP3    H2 3595   3.250   0.581   2.172  2.2127 -0.5679  1.2413
 1211TIP3   OH2 3596   2.181   4.045   3.381  0.5682  0.3090  0.0887
 1211TIP3    H1 3597   2.252   4.055   3.318  1.2977  0.0727  0.8605
 1211TIP3    H2 3598   2.124   4.121   3.365  1.5475  1.0822  0.1653
 1212TIP3   OH2 3599   1.007   3.784   1.816 -0.2494  0.1649 -0.2082
 1212TIP3    H1 3600   1.052   3.767   1.899  0.0196 -2.4242 -0.7963
 1212TIP3    H2 3601   1.017   3.878   1.802  0.4039  0.5395  2.2688
 1213TIP3   OH2 3602   2.683   6.700   0.614  0.5352 -0.5227  0.3014
 1213TIP3    H1 3603   2.669   6.617   0.659  1.2825  0.1016  1.7332
 1213TIP3    H2 3604   2.602   6.749   0.627  0.3015 -0.8013 -0.0773
 1214TIP3   OH2 3605   5.498   0.691   5.120 -0.5324  0.0346 -0.2737
 1214TIP3    H1 3606   5.531   0.619   5.067  1.0365  0.5834 -0.1001
 1214TIP3    H2 3607   5.575   0.745   5.138 -1.6519  1.7837 -0.4341
 1215TIP3   OH2 3608   3.929   3.419   3.991  0.3504  0.5238  0.1949
 1215TIP3    H1 3609   3.979   3.478   3.934  0.0498 -2.2485 -3.2643
 1215TIP3    H2 3610   3.840   3.423   3.959  0.0190 -0.6838  0.8790
 1216TIP3   OH2 3611   0.912   5.225   3.058 -0.8636  0.4904 -0.3980
 1216TIP3    H1 3612   0.933   5.220   2.965  0.0958  0.0741 -0.1648
 1216TIP3    H2 3613   0.960   5.153   3.098 -2.0239  0.0629  0.2953
 1217TIP3   OH2 3614   5.098   1.813   5.330  0.5206 -0.7732  0.4590
 1217TIP3    H1 3615   5.118   1.720   5.320  1.1651 -0.6424  0.4856
 1217TIP3    H2 3616   5.091   1.826   5.425  0.4989 -0.7783  0.4585
 1218TIP3   OH2 3617   5.964   6.502   2.045  0.0957 -0.4418  0.3592
 1218TIP3    H1 3618   5.868   6.501   2.042  0.1189 -0.0363 -0.5985
 1218TIP3    H2 3619   5.985   6.587   2.083  0.0762 -0.7374  1.0540
 1219TIP3   OH2 3620   1.479   3.100   5.355  0.2482  0.0972  0.0648
 1219TIP3    H1 3621   1.566   3.068   5.377  0.0869  0.1043  0.7208
 1219TIP3    H2 3622   1.495   3.182   5.308  0.6305 -0.5259 -0.9234
 1220TIP3   OH2 3623   2.156   1.274   1.054  0.2967 -0.3605  0.4717
 1220TIP3    H1 3624   2.104   1.323   1.118 -0.0669 -1.1802  0.8159
 1220TIP3    H2 3625   2.241   1.264   1.095  0.6148  0.6279  0.0803
 1221TIP3   OH2 3626   1.032   2.050   3.296 -0.0132 -0.0964  0.4325
 1221TIP3    H1 3627   1.097   2.015   3.357 -0.5039  0.1789  1.1261
 1221TIP3    H2 3628   1.079   2.059   3.214  0.0866 -2.6122  0.1274
 1222TIP3   OH2 3629   2.797   0.665   0.713 -0.2094 -0.1400  0.0326
 1222TIP3    H1 3630   2.875   0.635   0.759  0.4705 -0.1320 -1.0828
 1222TIP3    H2 3631   2.806   0.629   0.625 -1.2614  0.2064 -0.2292
 1223TIP3   OH2 3632   0.156   5.074   3.388 -0.0907  0.0103 -0.2105
 1223TIP3    H1 3633   0.130   5.119   3.468  1.0011  0.6330 -0.1892
 1223TIP3    H2 3634   0.157   5.143   3.321  0.5013 -0.1937 -0.4189
 1224TIP3   OH2 3635   6.367   4.521   5.248 -0.0172  0.2192 -0.1802
 1224TIP3    H1 3636   6.346   4.572   5.170  0.4003 -2.3373 -2.1095
 1224TIP3    H2 3637   6.460   4.502   5.241 -0.0441 -0.3468  0.7560
 1225TIP3   OH2 3638   5.085   1.174   1.020 -0.0853 -0.0910  0.0877
 1225TIP3    H1 3639   5.084   1.084   1.051 -1.3111  0.6468  2.4480
 1225TIP3    H2 3640   5.042   1.171   0.934 -0.7370 -1.6333  0.4401
 1226TIP3   OH2 3641   2.534   3.966   3.648  0.0886 -0.0488  0.1074
 1226TIP3    H1 3642   2.604   3.928   3.595  0.0331  0.2544 -0.1808
 1226TIP3    H2 3643   2.548   3.929   3.736  0.1015 -0.6564 -0.1409
 1227TIP3   OH2 3644   5.324   0.825   0.281  0.4659 -0.4465 -0.2437
 1227TIP3    H1 3645   5.266   0.766   0.233  0.8532  1.0548 -2.7537
 1227TIP3    H2 3646   5.391   0.849   0.217  0.8835  1.8976  0.9711
 1228TIP3   OH2 3647   5.507   2.567   3.298  0.3294  0.2899 -0.5276
 1228TIP3    H1 3648   5.506   2.554   3.393  1.1123 -0.2053 -0.5805
 1228TIP3    H2 3649   5.453   2.644   3.284  0.1111  0.2977  0.3145
 1229TIP3   OH2 3650   2.437   6.525   1.632  0.1364  0.2823  0.3619
 1229TIP3    H1 3651   2.465   6.459   1.569 -1.6730  0.2034 -0.4158
 1229TIP3    H2 3652   2.435   6.607   1.583 -0.0712  0.4561  0.6547
 1230TIP3   OH2 3653   1.846   2.319   5.344 -0.5544 -0.0571 -0.5557
 1230TIP3    H1 3654   1.889   2.291   5.425 -1.6468 -0.3082 -0.0469
 1230TIP3    H2 3655   1.891   2.270   5.275 -1.5669 -2.1802  0.1860
 1231TIP3   OH2 3656   5.301   2.900   2.966  0.0920 -0.0681  0.0162
 1231TIP3    H1 3657   5.211   2.911   2.997 -1.1971 -2.8743 -2.3354
 1231TIP3    H2 3658   5.340   2.839   3.029  0.4627  1.2196  1.0896
 1232TIP3   OH2 3659   0.307   5.363   5.799  0.4332 -0.5156  0.7724
 1232TIP3    H1 3660   0.274   5.448   5.769 -0.3433 -1.0094  0.2077
 1232TIP3    H2 3661   0.394   5.356   5.759  0.3828 -0.1219  0.5828
 1233TIP3   OH2 3662   2.315   5.820   2.310  0.5004  0.1623 -0.2608
 1233TIP3    H1 3663   2.227   5.799   2.340  0.4403 -0.2524 -0.7162
 1233TIP3    H2 3664   2.367   5.825   2.390  0.3889 -1.1273 -0.0860
 1234TIP3   OH2 3665   1.543   1.664   3.380 -0.0338  0.4875  0.1760
 1234TIP3    H1 3666   1.511   1.588   3.430 -2.0534  0.6466 -0.7709
 1234TIP3    H2 3667   1.637   1.663   3.394 -0.3476 -0.1777  2.9837
 1235TIP3   OH2 3668   5.329   6.513   0.518  0.2972 -0.1556  0.1311
 1235TIP3    H1 3669   5.321   6.548   0.606  2.2831  0.4418  0.1088
 1235TIP3    H2 3670   5.412   6.465   0.518  0.1629 -0.4394 -1.3243
 1236TIP3   OH2 3671   7.070   5.497   1.562 -0.1411 -0.0727 -0.5920
 1236TIP3    H1 3672   7.063   5.455   1.476 -1.1061  0.6589 -0.8799
 1236TIP3    H2 3673   7.011   5.447   1.618 -1.9614  1.3648 -1.1426
 1237TIP3   OH2 3674   4.978   5.652   2.881  0.1394  0.0868  0.3256
 1237TIP3    H1 3675   4.981   5.738   2.838 -0.8593  1.1159  2.1869
 1237TIP3    H2 3676   5.068   5.619   2.875  0.8985  1.9311  0.8118
 1238TIP3   OH2 3677   0.679   0.239   3.298 -0.4750 -0.5318  0.0233
 1238TIP3    H1 3678   0.629   0.247   3.379 -1.1798  0.3923 -0.4663
 1238TIP3    H2 3679   0.620   0.193   3.238 -0.7581  0.5371 -0.5503
 1239TIP3   OH2 3680   4.569   1.276   3.198  0.4260 -0.2731 -0.0695
 1239TIP3    H1 3681   4.475   1.289   3.183  0.1403 -1.5077  0.5260
 1239TIP3    H2 3682   4.604   1.365   3.209 -1.0001  0.1392  1.5645
 1240TIP3   OH2 3683   5.339   5.023   5.760  0.4122 -0.1141 -0.0695
 1240TIP3    H1 3684   5.397   5.086   5.802  0.1693 -0.2206  0.4314
 1240TIP3    H2 3685   5.330   4.952   5.824 -0.2277 -0.1201 -0.1563
 1241TIP3   OH2 3686   4.851   5.303   3.253 -0.3636  0.0626 -0.0465
 1241TIP3    H1 3687   4.922   5.343   3.203 -0.5652  0.1406 -0.2720
 1241TIP3    H2 3688   4.854   5.346   3.339 -1.7333  1.9334 -0.8504
 1242TIP3   OH2 3689   1.902   1.801   1.096 -0.7912 -0.3889 -0.7516
 1242TIP3    H1 3690   1.892   1.829   1.005 -2.3235  1.8054  0.0084
 1242TIP3    H2 3691   1.996   1.795   1.109 -0.4750  1.3477 -1.9309
 1243TIP3   OH2 3692   4.945   5.545   0.315  0.4410  0.1679 -0.3082
 1243TIP3    H1 3693   5.028   5.500   0.330  0.4417  0.2036 -0.2073
 1243TIP3    H2 3694   4.970   5.634   0.290  0.5111 -0.3400 -2.2540
 1244TIP3   OH2 3695   0.766   3.686   3.188 -0.1105  0.0174 -0.8472
 1244TIP3    H1 3696   0.705   3.691   3.114  0.9828  0.3598 -1.7519
 1244TIP3    H2 3697   0.733   3.614   3.241  0.0070 -1.3377 -2.5409
 1245TIP3   OH2 3698   3.782   6.097   4.110 -0.2540 -0.2096  0.0094
 1245TIP3    H1 3699   3.734   6.071   4.189 -1.7102 -2.3831 -1.4615
 1245TIP3    H2 3700   3.788   6.016   4.058  1.6948  0.8821 -1.5861
 1246TIP3   OH2 3701   1.695   4.743   3.368  0.4803  0.4782  0.5359
 1246TIP3    H1 3702   1.729   4.659   3.337  0.9103  0.9736 -0.3620
 1246TIP3    H2 3703   1.674   4.728   3.460  0.0048 -0.7851  0.2411
 1247TIP3   OH2 3704   3.945   0.738   5.068 -0.1003  0.4703  0.5884
 1247TIP3    H1 3705   3.910   0.826   5.083 -0.2575  0.1272  2.4079
 1247TIP3    H2 3706   4.018   0.730   5.130 -1.2409 -1.3181  1.7925
 1248TIP3   OH2 3707   4.121   0.983   2.854  0.0103 -0.0834 -0.1267
 1248TIP3    H1 3708   4.054   1.048   2.875 -0.7913 -1.3048  1.3259
 1248TIP3    H2 3709   4.164   0.965   2.938  2.3835  0.8503 -1.0695
 1249TIP3   OH2 3710   5.830   0.864   4.527  0.1150  0.6933  0.2607
 1249TIP3    H1 3711   5.921   0.839   4.540 -0.5019 -1.2478  1.2570
 1249TIP3    H2 3712   5.805   0.821   4.445  0.1295  1.4137 -0.1352
 1250TIP3   OH2 3713   0.253   5.217   0.349  0.2312  0.6451 -0.1796
 1250TIP3    H1 3714   0.277   5.203   0.440 -3.2193 -1.4642  0.6089
 1250TIP3    H2 3715   0.215   5.305   0.346  0.1370  0.6285  0.5014
 1251TIP3   OH2 3716   3.108   5.643   4.449  0.0403  0.0831 -0.4265
 1251TIP3    H1 3717   3.020   5.678   4.464  0.0812  0.1831 -0.4176
 1251TIP3    H2 3718   3.109   5.560   4.496 -0.4711 -0.5426 -1.4978
 1252TIP3   OH2 3719   4.098   1.756   5.160 -0.8512  0.5567 -0.3720
 1252TIP3    H1 3720   4.053   1.712   5.087 -1.0580  0.7331 -0.3516
 1252TIP3    H2 3721   4.084   1.698   5.235 -1.6881  0.9799 -0.1952
 1253TIP3   OH2 3722   2.016   4.537   1.786  0.0472 -0.1130  0.1678
 1253TIP3    H1 3723   2.042   4.458   1.740 -0.1606  0.2554 -0.6009
 1253TIP3    H2 3724   2.089   4.556   1.844  0.7836 -0.0152 -0.7666
 1254TIP3   OH2 3725   3.710   1.088   4.274  0.0272 -0.0834  0.5066
 1254TIP3    H1 3726   3.616   1.085   4.293 -0.6120 -2.6888 -2.1997
 1254TIP3    H2 3727   3.718   1.151   4.202  0.3721  0.1448  0.7422
 1255TIP3   OH2 3728   5.578   1.781   1.826 -0.0114  0.1551  0.2939
 1255TIP3    H1 3729   5.529   1.700   1.841  0.6940 -0.6988 -1.6315
 1255TIP3    H2 3730   5.573   1.794   1.731  2.4705  0.6525  0.1651
 1256TIP3   OH2 3731   3.463   5.751   3.075  0.4586  0.2088 -0.1565
 1256TIP3    H1 3732   3.469   5.823   3.138  0.9404  0.9066 -0.9841
 1256TIP3    H2 3733   3.518   5.682   3.112  1.5127  0.9705 -0.2716
 1257TIP3   OH2 3734   5.789   3.983   4.404 -0.4031 -0.3504 -0.3366
 1257TIP3    H1 3735   5.706   3.953   4.367  0.6171 -2.3802 -1.1082
 1257TIP3    H2 3736   5.841   3.904   4.414  0.8645  0.6514  1.7176
 1258TIP3   OH2 3737   5.604   5.694   4.489 -0.0431 -0.2489 -0.1756
 1258TIP3    H1 3738   5.531   5.715   4.548  0.6961  0.4641  0.5007
 1258TIP3    H2 3739   5.650   5.777   4.477  1.2236 -0.8777  0.1787
 1259TIP3   OH2 3740   2.797   2.722   0.551 -0.4537 -0.6875 -0.3626
 1259TIP3    H1 3741   2.789   2.817   0.540  0.6393 -0.5919 -0.4696
 1259TIP3    H2 3742   2.880   2.700   0.509  0.2097 -1.4213  1.2506
 1260TIP3   OH2 3743   0.900   2.338   0.584  0.0363  0.8273 -0.1105
 1260TIP3    H1 3744   0.992   2.357   0.603 -0.0065  0.8313  0.0936
 1260TIP3    H2 3745   0.860   2.325   0.670  0.0373 -0.0830 -0.2410
 1261TIP3   OH2 3746   2.911   4.221   1.706 -0.0328 -0.6215 -0.1274
 1261TIP3    H1 3747   2.932   4.243   1.615  1.4144 -2.2072 -0.2199
 1261TIP3    H2 3748   2.960   4.285   1.758 -1.2880  0.6324 -0.4274
 1262TIP3   OH2 3749   1.032   4.651   3.570  0.4348  0.2673  0.3117
 1262TIP3    H1 3750   1.103   4.657   3.506 -0.5305 -1.6625 -1.0431
 1262TIP3    H2 3751   0.981   4.731   3.556  1.4695  0.9512  0.2732
 1263TIP3   OH2 3752   2.628   6.782   5.030  0.5524 -0.8591  0.0121
 1263TIP3    H1 3753   2.585   6.696   5.023  0.9486 -1.2273  1.6884
 1263TIP3    H2 3754   2.640   6.795   5.124  2.0470  0.2779 -0.3069
 1264TIP3   OH2 3755   1.979   5.235   2.841 -0.9269 -0.2687  0.3104
 1264TIP3    H1 3756   2.067   5.245   2.803 -1.2914  0.2345 -0.4156
 1264TIP3    H2 3757   1.993   5.244   2.935  0.2386 -3.1284  0.5143
 1265TIP3   OH2 3758   6.127   4.798   2.354 -0.1263 -0.0760 -0.1135
 1265TIP3    H1 3759   6.133   4.779   2.261 -1.4326  1.1120 -0.4689
 1265TIP3    H2 3760   6.214   4.776   2.388  0.1330 -1.2608 -1.4495
 1266TIP3   OH2 3761   4.545   2.516   3.522 -0.5199  0.0683 -0.0230
 1266TIP3    H1 3762   4.586   2.469   3.449 -0.6513 -0.6868  0.3842
 1266TIP3    H2 3763   4.481   2.573   3.480  1.0703  1.4599 -0.6999
 1267TIP3   OH2 3764   6.748   3.916   3.961  0.3131 -0.5210 -0.3427
 1267TIP3    H1 3765   6.788   3.881   4.041 -1.1658  0.8949  1.0914
 1267TIP3    H2 3766   6.668   3.958   3.991 -1.1171 -1.3033 -2.8156
 1268TIP3   OH2 3767   0.965   4.325   1.253 -0.2626  0.4596 -0.3112
 1268TIP3    H1 3768   0.974   4.318   1.158  0.9119  3.0624 -0.4723
 1268TIP3    H2 3769   1.028   4.261   1.287 -2.5366 -2.4347 -1.1368
 1269TIP3   OH2 3770   1.867   0.413   3.569 -0.0506 -0.4224 -0.1299
 1269TIP3    H1 3771   1.830   0.461   3.495 -0.0484 -1.5083 -0.8585
 1269TIP3    H2 3772   1.800   0.347   3.591 -0.2112  0.1048  1.0816
 1270TIP3   OH2 3773   4.466   1.046   0.411  0.3681 -0.2534 -0.2260
 1270TIP3    H1 3774   4.387   0.991   0.408 -1.0504  1.7002 -0.1870
 1270TIP3    H2 3775   4.518   1.018   0.336 -0.3830 -1.5176 -0.3000
 1271TIP3   OH2 3776   7.001   6.338   4.558  0.0966 -0.1766  0.3890
 1271TIP3    H1 3777   7.031   6.404   4.495  0.7931 -0.7631  0.0964
 1271TIP3    H2 3778   6.993   6.386   4.641  0.1991  0.3611  0.0971
 1272TIP3   OH2 3779   0.789   1.663   2.739  0.2701  0.3487 -0.3360
 1272TIP3    H1 3780   0.706   1.616   2.744 -0.1650  1.1974  0.7049
 1272TIP3    H2 3781   0.847   1.615   2.798 -0.4118  1.5256  1.3708
 1273TIP3   OH2 3782   1.076   5.589   4.592 -0.0965  0.1936  0.1696
 1273TIP3    H1 3783   0.985   5.562   4.605 -0.6067  1.8948  0.3291
 1273TIP3    H2 3784   1.112   5.522   4.534 -1.8030  0.0948 -0.8677
 1274TIP3   OH2 3785   6.648   3.869   3.607 -0.2748 -0.2868 -0.5788
 1274TIP3    H1 3786   6.703   3.946   3.616 -0.3254 -0.3845  0.9660
 1274TIP3    H2 3787   6.709   3.795   3.616 -0.5080 -0.4003  0.1291
 1275TIP3   OH2 3788   5.946   1.913   4.227 -0.1756  0.4563  0.0275
 1275TIP3    H1 3789   6.021   1.894   4.171 -0.0368  1.4929 -0.1414
 1275TIP3    H2 3790   5.891   1.834   4.219  0.2296  0.2467 -0.9169
 1276TIP3   OH2 3791   3.507   1.192   5.572 -0.0275  0.3367 -0.4665
 1276TIP3    H1 3792   3.596   1.205   5.539 -0.2550 -0.2635 -1.3559
 1276TIP3    H2 3793   3.488   1.099   5.557 -1.3878  0.7885 -1.8406
 1277TIP3   OH2 3794   4.655   4.483   4.416  0.4268  0.3943 -0.1234
 1277TIP3    H1 3795   4.601   4.422   4.365 -0.5635  1.2682 -0.1626
 1277TIP3    H2 3796   4.720   4.427   4.459 -0.4808 -0.6952 -0.1142
 1278TIP3   OH2 3797   4.228   2.513   1.312  0.4730 -0.0716 -0.4735
 1278TIP3    H1 3798   4.291   2.559   1.256 -0.0815 -0.0756 -1.1156
 1278TIP3    H2 3799   4.273   2.432   1.337  0.4656 -0.4069 -1.5012
 1279TIP3   OH2 3800   0.778   5.059   1.225 -0.2649  0.4274 -0.5298
 1279TIP3    H1 3801   0.688   5.074   1.256 -0.1438  0.2265 -0.0833
 1279TIP3    H2 3802   0.766   5.012   1.142 -0.5948  1.2397 -0.9490
 1280TIP3   OH2 3803   2.672   5.581   1.140 -0.3373  0.2209 -0.3794
 1280TIP3    H1 3804   2.625   5.504   1.106 -0.5744 -0.0933  0.6157
 1280TIP3    H2 3805   2.763   5.566   1.114 -0.6835  0.6145 -1.9388
 1281TIP3   OH2 3806   2.629   2.111   5.195 -0.1402  0.4491  0.2512
 1281TIP3    H1 3807   2.663   2.067   5.118  1.4254  1.3562  0.3821
 1281TIP3    H2 3808   2.646   2.204   5.180 -0.1757  0.6861  1.5061
 1282TIP3   OH2 3809   6.117   0.712   3.736  0.0599 -0.0572  0.3052
 1282TIP3    H1 3810   6.139   0.663   3.657 -0.9275  1.0086 -0.6843
 1282TIP3    H2 3811   6.144   0.656   3.808  2.7850 -0.2711 -0.7631
 1283TIP3   OH2 3812   1.851   4.695   1.221 -0.0056 -0.5240  0.1863
 1283TIP3    H1 3813   1.865   4.771   1.277  0.8057  0.0207 -0.7311
 1283TIP3    H2 3814   1.857   4.620   1.281 -2.4143  0.1646  1.3789
 1284TIP3   OH2 3815   6.701   0.721   5.677  0.3446 -0.4284 -0.2690
 1284TIP3    H1 3816   6.667   0.784   5.740 -1.6571 -0.9720 -0.7419
 1284TIP3    H2 3817   6.734   0.649   5.731  0.6862  0.0787  0.2039
 1285TIP3   OH2 3818   7.055   4.941   3.518 -0.1904 -0.1485  0.1901
 1285TIP3    H1 3819   7.095   5.000   3.582  1.7302  0.5555 -1.5622
 1285TIP3    H2 3820   7.036   4.997   3.442 -1.0424 -1.2307 -0.4262
 1286TIP3   OH2 3821   1.747   6.669   3.816 -0.1699 -0.2668 -0.2188
 1286TIP3    H1 3822   1.771   6.690   3.907  0.6954  0.0608 -0.5102
 1286TIP3    H2 3823   1.753   6.573   3.812 -2.3233 -0.4868  0.6209
 1287TIP3   OH2 3824   3.116   5.088   3.413  0.1418  0.3734 -0.2170
 1287TIP3    H1 3825   3.167   5.095   3.494 -1.8473  0.6905  1.1012
 1287TIP3    H2 3826   3.046   5.026   3.435  0.0367 -0.1872 -1.9952
 1288TIP3   OH2 3827   6.577   3.670   1.016 -0.0751  0.0170 -0.9941
 1288TIP3    H1 3828   6.555   3.620   1.095  0.5028  0.5518 -0.4836
 1288TIP3    H2 3829   6.585   3.760   1.046  0.7603  0.1371 -1.5457
 1289TIP3   OH2 3830   1.180   6.692   5.248  0.0510 -0.0279  0.1342
 1289TIP3    H1 3831   1.123   6.686   5.171  1.7292 -0.0206 -1.1574
 1289TIP3    H2 3832   1.257   6.639   5.226  2.2356  2.8466  0.2543
 1290TIP3   OH2 3833   5.063   5.894   3.670  0.0247 -0.0682 -0.1489
 1290TIP3    H1 3834   5.109   5.872   3.751  1.2264 -1.1577 -1.0734
 1290TIP3    H2 3835   4.993   5.953   3.697  1.2069  0.6469  1.4937
 1291TIP3   OH2 3836   3.558   1.349   2.356 -0.2764  0.5775  0.0634
 1291TIP3    H1 3837   3.494   1.307   2.298 -1.4204 -0.2669  1.8310
 1291TIP3    H2 3838   3.505   1.392   2.424  0.9902 -0.2589  1.6709
 1292TIP3   OH2 3839   4.004   3.074   5.731  0.4338  0.0184 -0.5777
 1292TIP3    H1 3840   4.091   3.113   5.740 -0.7255  2.4641  0.9413
 1292TIP3    H2 3841   3.943   3.148   5.738 -1.8415 -1.7876 -0.0317
 1293TIP3   OH2 3842   6.450   4.198   3.078  0.0129  0.6769  0.7116
 1293TIP3    H1 3843   6.510   4.129   3.050  0.4817  1.3686 -0.0150
 1293TIP3    H2 3844   6.367   4.176   3.037  0.7106  1.7368 -1.4367
 1294TIP3   OH2 3845   1.835   0.545   3.915 -0.3537 -0.4428 -0.3687
 1294TIP3    H1 3846   1.782   0.568   3.839  0.3028 -0.6813 -0.9050
 1294TIP3    H2 3847   1.777   0.493   3.970 -0.5097 -1.1831 -1.2161
 1295TIP3   OH2 3848   1.679   5.468   0.745  0.0339  0.2936 -0.0976
 1295TIP3    H1 3849   1.584   5.479   0.752 -0.1803 -1.1942 -0.3392
 1295TIP3    H2 3850   1.693   5.445   0.653  0.6606  0.7791 -0.1250
 1296TIP3   OH2 3851   5.454   0.082   0.915  0.1030 -0.1540 -0.1291
 1296TIP3    H1 3852   5.388   0.122   0.858  0.4965 -1.0727 -1.2734
 1296TIP3    H2 3853   5.522   0.148   0.923 -1.0362  0.9223  1.3013
 1297TIP3   OH2 3854   0.205   2.545   0.156 -0.7524 -0.4011 -0.0245
 1297TIP3    H1 3855   0.192   2.483   0.227 -0.4566  0.2125  0.5710
 1297TIP3    H2 3856   0.298   2.536   0.132 -0.4842  0.4281  0.6600
 1298TIP3   OH2 3857   5.863   4.550   1.599 -0.5869 -0.0891  0.1187
 1298TIP3    H1 3858   5.943   4.526   1.553  0.4778  2.1871  0.6944
 1298TIP3    H2 3859   5.829   4.466   1.632  0.4626 -1.3436 -1.7793
 1299TIP3   OH2 3860   1.098   4.906   1.550  0.4055  0.5512  0.3048
 1299TIP3    H1 3861   1.123   4.870   1.635  0.7338  3.7325  1.6875
 1299TIP3    H2 3862   1.009   4.940   1.563  0.3650  0.8860 -0.7014
 1300TIP3   OH2 3863   4.991   0.647   1.898 -0.0204  0.3090 -0.0408
 1300TIP3    H1 3864   4.971   0.594   1.821  2.5402  0.2040 -0.7207
 1300TIP3    H2 3865   5.051   0.593   1.950  0.1101  1.2774  0.8566
 1301TIP3   OH2 3866   0.642   4.934   2.038 -0.0961  0.1516 -0.3287
 1301TIP3    H1 3867   0.554   4.920   2.073  1.0863 -1.7752  2.2898
 1301TIP3    H2 3868   0.663   4.853   1.992  0.8056 -0.0333  0.3653
 1302TIP3   OH2 3869   7.155   5.525   4.349  0.3704  0.0001  0.0649
 1302TIP3    H1 3870   7.060   5.524   4.357  0.4204  0.7473  0.9477
 1302TIP3    H2 3871   7.175   5.603   4.298  0.5281  0.2063  0.4303
 1303TIP3   OH2 3872   1.912   2.146   4.714  0.1463  0.4420  0.4700
 1303TIP3    H1 3873   1.994   2.178   4.751 -0.4245  1.5984  0.8012
 1303TIP3    H2 3874   1.933   2.060   4.678  2.1455  1.7359 -1.7304
 1304TIP3   OH2 3875   6.932   4.647   1.530  0.6040  0.3498  0.4549
 1304TIP3    H1 3876   6.953   4.729   1.574 -1.1917  0.6875  0.7351
 1304TIP3    H2 3877   7.018   4.606   1.515  1.3875  1.0684  2.5893
 1305TIP3   OH2 3878   0.889   4.015   5.585  0.1911  0.2424 -0.5901
 1305TIP3    H1 3879   0.958   3.965   5.540  1.4503  2.1192 -0.8744
 1305TIP3    H2 3880   0.828   4.038   5.515  0.4234  0.3798 -0.7536
 1306TIP3   OH2 3881   1.270   2.863   2.125 -0.0450 -0.0194 -0.3455
 1306TIP3    H1 3882   1.207   2.859   2.054 -0.2586  1.0306 -0.2422
 1306TIP3    H2 3883   1.352   2.892   2.084 -0.2827  1.0224 -0.1193
 1307TIP3   OH2 3884   6.803   2.353   2.037  0.2367 -0.8505  0.3098
 1307TIP3    H1 3885   6.889   2.337   1.998  0.6433  0.1546  0.7596
 1307TIP3    H2 3886   6.743   2.300   1.985  1.0798 -1.3128 -0.2171
 1308TIP3   OH2 3887   3.536   3.307   4.997  0.5360 -0.4571  0.0707
 1308TIP3    H1 3888   3.615   3.311   4.943 -0.7509 -0.0330 -1.8975
 1308TIP3    H2 3889   3.508   3.216   4.991  0.3556 -0.3952 -0.0172
 1309TIP3   OH2 3890   6.323   0.074   2.651  0.1232 -0.0229 -0.1343
 1309TIP3    H1 3891   6.241   0.085   2.700  1.6336 -0.3571  2.6731
 1309TIP3    H2 3892   6.331  -0.020   2.638  0.7737 -0.1390  0.9927
 1310TIP3   OH2 3893   1.971   6.558   5.694  0.6580 -0.2890 -0.1146
 1310TIP3    H1 3894   2.036   6.628   5.698  0.9986 -0.5514 -0.7714
 1310TIP3    H2 3895   1.888   6.602   5.680  0.4691  0.1482  2.1180
 1311TIP3   OH2 3896   6.821   1.652   0.722 -0.7027  0.7102  0.2618
 1311TIP3    H1 3897   6.769   1.574   0.703 -0.5728  0.6536  0.1319
 1311TIP3    H2 3898   6.784   1.719   0.665  0.3180  0.2901 -0.9465
 1312TIP3   OH2 3899   3.864   6.460   5.493  0.1706 -0.3028  0.4190
 1312TIP3    H1 3900   3.868   6.553   5.470  1.0079 -0.3422  0.3981
 1312TIP3    H2 3901   3.891   6.457   5.585 -1.4442 -0.3533  0.9358
 1313TIP3   OH2 3902   1.149   2.991   1.044 -0.1939 -0.8370  0.7717
 1313TIP3    H1 3903   1.071   2.948   1.079 -0.8236 -0.4204 -0.0824
 1313TIP3    H2 3904   1.144   2.977   0.950 -0.5905  1.3551  0.4189
 1314TIP3   OH2 3905   0.448   1.857   0.828  0.0287  0.0654  0.3940
 1314TIP3    H1 3906   0.531   1.898   0.806  0.4079 -1.1660 -0.5268
 1314TIP3    H2 3907   0.418   1.904   0.906  0.8653  1.4856 -0.1156
 1315TIP3   OH2 3908   6.971   3.308   3.005  0.6345 -0.6245 -0.2022
 1315TIP3    H1 3909   7.012   3.375   3.060 -0.1821  0.2749 -0.6624
 1315TIP3    H2 3910   6.974   3.344   2.917 -1.5963 -0.2486 -0.1886
 1316TIP3   OH2 3911   3.911   2.050   1.590  0.4085  0.0990  0.1153
 1316TIP3    H1 3912   3.996   2.086   1.616  0.3903  0.0729  0.2101
 1316TIP3    H2 3913   3.903   1.969   1.639  0.5355 -0.1355 -0.2424
 1317TIP3   OH2 3914   5.992   4.459   2.271 -0.2764 -0.0841  0.0805
 1317TIP3    H1 3915   5.907   4.453   2.313 -0.8954  0.6549 -1.0131
 1317TIP3    H2 3916   6.004   4.374   2.228 -0.0192 -0.5298  0.9986
 1318TIP3   OH2 3917   4.188   2.457   5.506 -0.3967 -0.0880  0.0927
 1318TIP3    H1 3918   4.140   2.379   5.479 -0.9125 -0.5976  2.3015
 1318TIP3    H2 3919   4.280   2.430   5.504 -0.4679 -0.3009 -0.5018
 1319TIP3   OH2 3920   5.227   1.610   1.204  0.4202 -0.1280  0.0017
 1319TIP3    H1 3921   5.175   1.540   1.165  1.5408 -0.1891 -1.4823
 1319TIP3    H2 3922   5.230   1.678   1.137  1.1448  0.4177  0.5723
 1320TIP3   OH2 3923   4.410   1.797   2.545  0.5383 -0.2315  0.0766
 1320TIP3    H1 3924   4.353   1.818   2.620  1.4447  2.7266  0.0793
 1320TIP3    H2 3925   4.351   1.802   2.469 -0.0643 -1.6931  0.4152
 1321TIP3   OH2 3926   3.426   1.315   1.577 -0.3180  0.2666  0.7283
 1321TIP3    H1 3927   3.383   1.375   1.517 -0.2783 -0.3970  0.0120
 1321TIP3    H2 3928   3.366   1.241   1.584  0.5023 -0.5063 -0.0023
 1322TIP3   OH2 3929   0.038   3.747   2.676 -0.1162 -0.4886  0.0662
 1322TIP3    H1 3930   0.023   3.752   2.770  0.0333  0.7304  0.0418
 1322TIP3    H2 3931  -0.041   3.783   2.636  0.5163  0.6723 -0.2053
 1323TIP3   OH2 3932   3.376   2.906   3.771  0.7033  0.3288 -0.2200
 1323TIP3    H1 3933   3.414   2.885   3.686  1.9507 -1.5037  0.6919
 1323TIP3    H2 3934   3.450   2.900   3.832 -0.5570 -0.8626  1.2997
 1324TIP3   OH2 3935   0.236   3.715   0.151 -0.5636  0.3367 -0.1416
 1324TIP3    H1 3936   0.152   3.762   0.159 -1.1695 -0.5377 -1.1051
 1324TIP3    H2 3937   0.244   3.697   0.057 -0.4858 -1.6832  0.2104
 1325TIP3   OH2 3938   0.494   4.896   3.406 -0.1673 -0.1126  0.6762
 1325TIP3    H1 3939   0.404   4.869   3.390 -0.1270  0.5038 -0.7214
 1325TIP3    H2 3940   0.494   4.928   3.497 -1.1786 -0.7446  0.9179
 1326TIP3   OH2 3941   0.088   4.976   3.795  0.5053 -0.0335 -0.2517
 1326TIP3    H1 3942   0.140   4.943   3.868 -0.0419 -0.8121 -0.1996
 1326TIP3    H2 3943   0.088   4.904   3.731 -0.1170  0.1236 -0.4379
 1327TIP3   OH2 3944   2.382   3.720   0.297  0.3154 -0.6400  0.1396
 1327TIP3    H1 3945   2.319   3.753   0.232 -0.2883 -2.1183 -0.0635
 1327TIP3    H2 3946   2.468   3.737   0.258  0.0209  0.2078 -0.1726
 1328TIP3   OH2 3947   1.180   5.739   3.276 -0.0333  0.1626 -0.5564
 1328TIP3    H1 3948   1.140   5.674   3.218  0.4402 -0.2411 -0.4416
 1328TIP3    H2 3949   1.123   5.816   3.269  1.3338  1.0823 -3.5800
 1329TIP3   OH2 3950   3.050   1.436   4.207  0.0863 -0.2389  0.2206
 1329TIP3    H1 3951   2.981   1.388   4.252 -1.7373  1.3213 -0.8047
 1329TIP3    H2 3952   3.026   1.432   4.114 -0.8024  3.4818  0.1644
 1330TIP3   OH2 3953   2.692   6.335   2.094  0.2528  0.2146 -0.0734
 1330TIP3    H1 3954   2.711   6.282   2.172  0.4223  1.4467  0.7509
 1330TIP3    H2 3955   2.617   6.389   2.120  0.4868  0.8354 -0.6757
 1331TIP3   OH2 3956   0.589   1.153   0.025  0.0586 -0.1948 -0.5534
 1331TIP3    H1 3957   0.570   1.243   0.051  1.0989 -0.2287  0.3630
 1331TIP3    H2 3958   0.544   1.099   0.090 -0.5981 -0.3537 -1.1258
 1332TIP3   OH2 3959   5.864   6.347   2.818  0.1114  0.3166  0.2112
 1332TIP3    H1 3960   5.856   6.361   2.912 -0.7113 -1.3504  0.4236
 1332TIP3    H2 3961   5.794   6.285   2.797  1.3681 -0.6915 -1.1907
 1333TIP3   OH2 3962   6.010   5.335   5.302 -0.1719 -0.7167 -0.0344
 1333TIP3    H1 3963   6.063   5.255   5.312  0.4119 -0.3681 -0.3044
 1333TIP3    H2 3964   5.958   5.319   5.223 -0.5318 -1.0904  0.2719
 1334TIP3   OH2 3965   2.559   3.292   0.598 -0.0283  0.1041 -0.1097
 1334TIP3    H1 3966   2.538   3.322   0.509 -0.5369 -1.1102 -0.4060
 1334TIP3    H2 3967   2.516   3.207   0.606 -0.5946  0.5203  1.5676
 1335TIP3   OH2 3968   4.770   2.873   2.970  0.5012  0.2378 -0.5416
 1335TIP3    H1 3969   4.729   2.810   2.910  1.0959  0.4459 -1.1878
 1335TIP3    H2 3970   4.852   2.897   2.927  0.3046  1.4328 -0.2951
 1336TIP3   OH2 3971   6.152   1.421   3.006  0.1957 -0.0753 -0.0523
 1336TIP3    H1 3972   6.133   1.489   3.071  1.4182 -0.0427  0.2971
 1336TIP3    H2 3973   6.215   1.462   2.946 -0.3678 -0.3488 -0.8468
 1337TIP3   OH2 3974   2.563   4.882   0.289  0.3526 -0.3344  0.1913
 1337TIP3    H1 3975   2.583   4.797   0.330 -2.4284 -0.9433  0.4994
 1337TIP3    H2 3976   2.554   4.862   0.196  0.4009 -0.2466  0.1683
 1338TIP3   OH2 3977   0.423   2.675   5.021  0.5591 -0.2505 -0.2706
 1338TIP3    H1 3978   0.465   2.618   4.957  1.9106  0.7527 -0.2993
 1338TIP3    H2 3979   0.354   2.719   4.971 -0.7952 -2.1186 -0.1520
 1339TIP3   OH2 3980   2.525   3.425   1.498 -0.0622  0.2558  0.0802
 1339TIP3    H1 3981   2.585   3.352   1.516 -0.2959 -0.2219 -0.9880
 1339TIP3    H2 3982   2.544   3.488   1.567  0.1085 -0.8312  1.0747
 1340TIP3   OH2 3983   3.944   1.240   0.656 -0.6122 -0.6924  0.1410
 1340TIP3    H1 3984   3.937   1.320   0.708 -1.6912 -1.2998  0.9560
 1340TIP3    H2 3985   3.857   1.201   0.659 -0.5074 -1.1192 -1.5397
 1341TIP3   OH2 3986   6.534   0.263   2.226 -0.5330 -0.2435  0.0717
 1341TIP3    H1 3987   6.537   0.171   2.252  0.9817 -0.3511 -0.3780
 1341TIP3    H2 3988   6.611   0.274   2.170 -1.4560  0.9697 -1.0022
 1342TIP3   OH2 3989   6.352   0.084   1.380  0.1358  0.5447 -0.0381
 1342TIP3    H1 3990   6.290   0.100   1.452 -1.1964 -4.4490  0.2836
 1342TIP3    H2 3991   6.302   0.105   1.301  0.2790  2.3876  0.3094
 1343TIP3   OH2 3992   1.516   3.824   0.832 -0.1934  0.1152  0.3594
 1343TIP3    H1 3993   1.567   3.772   0.771  0.6546 -0.8192  1.8140
 1343TIP3    H2 3994   1.581   3.876   0.880 -0.5194 -1.2421  2.3830
 1344TIP3   OH2 3995   3.014   6.468   5.055  0.4489 -0.1854  0.2230
 1344TIP3    H1 3996   2.997   6.434   5.142  1.5739 -2.6804 -0.4315
 1344TIP3    H2 3997   2.931   6.457   5.008 -0.1864  1.2623  0.9736
 1345TIP3   OH2 3998   3.797   5.301   2.712  0.5091 -0.6814  0.1468
 1345TIP3    H1 3999   3.798   5.275   2.620  3.0634  0.6663 -0.3201
 1345TIP3    H2 4000   3.757   5.227   2.758 -2.2380 -0.7760 -2.1292
 1346TIP3   OH2 4001   5.496   4.450   5.528  0.5683  0.0551  0.0959
 1346TIP3    H1 4002   5.527   4.359   5.525  1.7897  0.3518  2.0483
 1346TIP3    H2 4003   5.575   4.502   5.514  0.1195  0.8248  0.3796
 1347TIP3   OH2 4004   5.486  -0.004   5.763 -0.4308 -0.5000  0.1530
 1347TIP3    H1 4005   5.415  -0.004   5.828  0.3104  1.5908  1.0439
 1347TIP3    H2 4006   5.485   0.084   5.726  0.5222 -1.0149 -1.1742
 1348TIP3   OH2 4007   1.559   0.939   2.781  0.5501 -0.0563  0.5510
 1348TIP3    H1 4008   1.527   0.869   2.838 -0.1461 -0.9717 -0.9046
 1348TIP3    H2 4009   1.655   0.930   2.784  0.4827 -0.7379  0.7999
 1349TIP3   OH2 4010   5.352   4.287   1.958 -0.8311  0.1525 -0.0997
 1349TIP3    H1 4011   5.310   4.371   1.975 -0.3141  0.2480  0.7173
 1349TIP3    H2 4012   5.391   4.261   2.041  2.9056  1.2477 -1.3084
 1350TIP3   OH2 4013   5.259   0.141   0.682 -0.7772  0.0186  0.4868
 1350TIP3    H1 4014   5.250   0.047   0.669  0.7252  0.0621 -1.2731
 1350TIP3    H2 4015   5.170   0.173   0.694 -1.5031 -1.3815 -0.8743
 1351TIP3   OH2 4016   4.322   6.758   3.432 -0.1010 -0.2251 -0.6195
 1351TIP3    H1 4017   4.248   6.713   3.474 -1.1685  1.3057 -0.7755
 1351TIP3    H2 4018   4.283   6.802   3.357  0.2593  3.2033  1.0201
 1352TIP3   OH2 4019   0.402   5.871   4.751  0.0760  0.1090  0.5985
 1352TIP3    H1 4020   0.433   5.928   4.682  0.2230  0.0189  0.5882
 1352TIP3    H2 4021   0.340   5.924   4.801  0.6949  0.4954  0.9819
 1353TIP3   OH2 4022   6.589   6.220   3.806 -0.3385  0.1251 -0.4748
 1353TIP3    H1 4023   6.651   6.247   3.875 -4.2371  2.3111  2.5748
 1353TIP3    H2 4024   6.574   6.299   3.755 -2.8913  0.6719  0.9426
 1354TIP3   OH2 4025   6.760   0.129   5.153  0.3184  0.2308  0.3526
 1354TIP3    H1 4026   6.756   0.137   5.058  1.0242 -0.5964  0.2359
 1354TIP3    H2 4027   6.740   0.216   5.186 -0.1247  0.4749 -0.5517
 1355TIP3   OH2 4028   4.959   0.828   4.975  0.8339  0.6076  0.0808
 1355TIP3    H1 4029   5.038   0.794   4.933  0.2668 -1.6754  0.7034
 1355TIP3    H2 4030   4.967   0.800   5.066 -0.8405  0.0018  0.0729
 1356TIP3   OH2 4031   1.302   0.204   2.798  0.0496 -0.4882  0.7614
 1356TIP3    H1 4032   1.311   0.109   2.797 -0.8763 -0.6267 -1.7181
 1356TIP3    H2 4033   1.274   0.226   2.709 -0.9813  1.9770  1.6141
 1357TIP3   OH2 4034   1.970   3.248   3.675 -0.4942  0.1534  0.5035
 1357TIP3    H1 4035   1.918   3.308   3.621 -0.8982  0.6061  1.3688
 1357TIP3    H2 4036   2.039   3.303   3.711  0.7409 -0.4943 -0.8052
 1358TIP3   OH2 4037   7.042   0.308   0.271  0.8001 -0.0750  0.0164
 1358TIP3    H1 4038   7.123   0.355   0.289  1.1373  0.0318 -1.6271
 1358TIP3    H2 4039   7.065   0.245   0.202 -0.5533  0.1429 -0.6790
 1359TIP3   OH2 4040   5.974   2.327   2.216  0.1275  0.1194  0.4387
 1359TIP3    H1 4041   5.958   2.252   2.159  2.3681  1.4435 -2.1768
 1359TIP3    H2 4042   5.887   2.351   2.249 -0.8146 -2.7593  0.3710
 1360TIP3   OH2 4043   0.410   5.028   5.096 -0.5033 -0.2742 -0.1575
 1360TIP3    H1 4044   0.418   5.089   5.023  1.2985  0.4107  0.5356
 1360TIP3    H2 4045   0.460   4.951   5.069  1.9595  0.7795  1.0476
 1361TIP3   OH2 4046   3.167   4.132   3.317  0.5098 -0.1601 -0.4998
 1361TIP3    H1 4047   3.173   4.138   3.413  0.1520  0.4089 -0.5082
 1361TIP3    H2 4048   3.079   4.099   3.301 -0.0936  1.4182 -0.6692
 1362TIP3   OH2 4049   0.845   5.977   2.385 -0.1554  0.1479 -0.5250
 1362TIP3    H1 4050   0.762   5.929   2.387  0.3741 -0.7943 -0.4156
 1362TIP3    H2 4051   0.909   5.914   2.418  0.4093  1.2590  0.5605
 1363TIP3   OH2 4052   0.419   5.369   3.736 -0.4180 -0.0254 -0.1368
 1363TIP3    H1 4053   0.447   5.397   3.649 -0.6744 -0.6550 -0.4356
 1363TIP3    H2 4054   0.421   5.273   3.732 -0.1419 -0.0611  0.6519
 1364TIP3   OH2 4055   3.175   4.723   4.323  0.2234  0.5885  0.3349
 1364TIP3    H1 4056   3.208   4.638   4.295  0.3659  0.3175  1.2918
 1364TIP3    H2 4057   3.175   4.776   4.243  0.9804 -0.0422 -0.1007
 1365TIP3   OH2 4058   3.828   0.050   3.094  0.6221  0.4495  0.6752
 1365TIP3    H1 4059   3.750   0.036   3.041  1.5111 -0.2525 -0.4792
 1365TIP3    H2 4060   3.795   0.091   3.174 -1.1130 -1.1331  0.8373
 1366TIP3   OH2 4061   3.376   1.356   1.173 -0.4224  0.5035 -0.1275
 1366TIP3    H1 4062   3.409   1.304   1.246 -1.4282  0.2765  0.1738
 1366TIP3    H2 4063   3.321   1.296   1.123 -0.2248  0.8196 -0.7371
 1367TIP3   OH2 4064   0.669   4.791   4.103 -0.4274 -0.1255 -0.6425
 1367TIP3    H1 4065   0.687   4.750   4.019  1.5060 -1.7412  0.4738
 1367TIP3    H2 4066   0.601   4.736   4.143  1.0700 -1.4460  0.2069
 1368TIP3   OH2 4067   5.805   2.579   2.953 -0.2847 -0.3907  0.4882
 1368TIP3    H1 4068   5.804   2.671   2.979 -0.3895 -0.3998  0.5185
 1368TIP3    H2 4069   5.776   2.531   3.030 -0.0063 -0.4688  0.5448
 1369TIP3   OH2 4070   5.268   2.279   0.851 -0.0777  0.5561 -0.0462
 1369TIP3    H1 4071   5.301   2.307   0.936  0.6727  2.0070 -0.7734
 1369TIP3    H2 4072   5.194   2.336   0.833  0.5543  1.1231 -0.9093
 1370TIP3   OH2 4073   0.625   3.576   4.641 -0.2067  0.0221 -0.3583
 1370TIP3    H1 4074   0.672   3.627   4.707 -1.6924  1.0300 -0.0241
 1370TIP3    H2 4075   0.603   3.494   4.685 -1.1090  0.6478  0.3968
 1371TIP3   OH2 4076   4.555   5.526   0.232  0.1169 -0.0508 -0.2941
 1371TIP3    H1 4077   4.607   5.561   0.304 -2.4543  1.0290  1.2026
 1371TIP3    H2 4078   4.581   5.578   0.156  2.1870 -0.5514  0.0341
 1372TIP3   OH2 4079   2.761   2.751   2.187  0.2346  0.2354 -0.1232
 1372TIP3    H1 4080   2.776   2.702   2.106 -0.8758 -0.5396  0.1206
 1372TIP3    H2 4081   2.782   2.690   2.257  2.5420  1.3236  0.2345
 1373TIP3   OH2 4082   7.144   1.072   2.973 -0.3801  0.1240  0.3036
 1373TIP3    H1 4083   7.208   1.138   3.001 -0.8243 -0.5520  3.2808
 1373TIP3    H2 4084   7.167   1.054   2.882  1.1705  2.7159  0.0609
 1374TIP3   OH2 4085   2.384   2.208   1.226 -0.2168  0.2440  0.1072
 1374TIP3    H1 4086   2.443   2.153   1.175 -0.6083  0.9519 -1.1283
 1374TIP3    H2 4087   2.306   2.154   1.240 -0.3144  0.2273 -0.4919
 1375TIP3   OH2 4088   5.105   2.377   4.167  0.3645 -0.3549  0.1621
 1375TIP3    H1 4089   5.069   2.344   4.249  0.3581  1.1048  0.7832
 1375TIP3    H2 4090   5.185   2.327   4.154 -1.4699 -3.2550 -0.9410
 1376TIP3   OH2 4091   6.309   3.710   3.581  0.0283 -0.3440 -0.0058
 1376TIP3    H1 4092   6.325   3.796   3.619  0.0351 -0.8405  1.1553
 1376TIP3    H2 4093   6.224   3.683   3.617 -0.2831 -0.5520 -0.8706
 1377TIP3   OH2 4094   5.823   1.879   2.939 -0.4905 -0.4238 -0.6747
 1377TIP3    H1 4095   5.866   1.946   2.887 -1.0664 -0.8896 -1.7909
 1377TIP3    H2 4096   5.831   1.799   2.887  0.2110 -1.2427  0.6426
 1378TIP3   OH2 4097   3.491   5.398   5.578  0.3760  0.1802 -0.3236
 1378TIP3    H1 4098   3.460   5.308   5.594  2.9184 -0.9301 -1.1147
 1378TIP3    H2 4099   3.495   5.437   5.665 -0.6140 -0.5037  0.0533
 1379TIP3   OH2 4100   3.075   4.101   2.266  0.3153  0.2731 -0.5669
 1379TIP3    H1 4101   3.016   4.047   2.319 -0.7984 -0.7110 -2.7070
 1379TIP3    H2 4102   3.098   4.046   2.192  2.3167  1.3942 -0.8465
 1380TIP3   OH2 4103   5.969   2.106   2.845  0.4960  0.0001 -0.2495
 1380TIP3    H1 4104   5.984   2.116   2.751 -0.9822  0.9319 -0.4259
 1380TIP3    H2 4105   5.962   2.196   2.878 -1.1093 -0.3108  0.3465
 1381TIP3   OH2 4106   2.562   1.027   0.115 -0.4387 -0.1567  0.3467
 1381TIP3    H1 4107   2.546   1.071   0.198  0.6819  1.2896 -0.1466
 1381TIP3    H2 4108   2.613   0.949   0.139 -1.6116 -0.7048  1.1490
 1382TIP3   OH2 4109   3.237   5.485   3.116  0.0686  0.7373  0.3178
 1382TIP3    H1 4110   3.148   5.493   3.082 -0.0693  1.0470  0.7560
 1382TIP3    H2 4111   3.231   5.510   3.208  0.3505 -0.6157  0.7288
 1383TIP3   OH2 4112   1.521   5.152   2.682 -0.2441  0.4621 -0.2559
 1383TIP3    H1 4113   1.528   5.246   2.667 -0.6969  0.4955 -0.2472
 1383TIP3    H2 4114   1.591   5.132   2.745  0.6893  0.5785 -1.2188
 1384TIP3   OH2 4115   2.949   3.438   0.332  0.7885 -0.2190 -0.0827
 1384TIP3    H1 4116   2.894   3.360   0.330  1.1007 -0.4865  1.0218
 1384TIP3    H2 4117   2.976   3.446   0.423  0.5283  1.3557 -0.1109
 1385TIP3   OH2 4118   5.758   6.771   1.890  0.5333  0.3607 -0.6664
 1385TIP3    H1 4119   5.804   6.702   1.841 -0.1295 -2.7627  2.6303
 1385TIP3    H2 4120   5.668   6.767   1.859  0.6449  0.2045 -0.9763
 1386TIP3   OH2 4121   3.736   2.239   4.266  0.2736 -0.0831  0.0977
 1386TIP3    H1 4122   3.768   2.200   4.185  0.0714  0.6138 -0.3180
 1386TIP3    H2 4123   3.744   2.333   4.253 -2.2875  0.1453 -0.1756
 1387TIP3   OH2 4124   0.443   3.083   5.590  0.9193  0.0588 -0.0192
 1387TIP3    H1 4125   0.381   3.156   5.595 -1.5684 -1.8788 -0.9839
 1387TIP3    H2 4126   0.484   3.093   5.504  1.8785  1.2352  0.5436
 1388TIP3   OH2 4127   6.642   6.755   2.829 -0.0541  0.1717  0.7573
 1388TIP3    H1 4128   6.641   6.774   2.736 -1.0362 -0.4804  0.6163
 1388TIP3    H2 4129   6.664   6.662   2.834  0.4824  0.3180  1.2070
 1389TIP3   OH2 4130   5.654   6.709   5.077 -0.4495 -0.0264  0.4276
 1389TIP3    H1 4131   5.634   6.798   5.106 -0.4666  0.4062 -0.8420
 1389TIP3    H2 4132   5.741   6.715   5.038 -1.5100  0.0658 -2.0986
 1390TIP3   OH2 4133   2.130   6.263   5.372 -0.0134 -0.3954  0.3879
 1390TIP3    H1 4134   2.218   6.302   5.380  1.0721 -2.2778 -1.4141
 1390TIP3    H2 4135   2.075   6.335   5.343  1.4368  0.3877 -0.5828
 1391TIP3   OH2 4136   6.320   3.609   1.702  0.1350 -0.0866  0.8315
 1391TIP3    H1 4137   6.397   3.589   1.757  0.1238  0.7242  1.1492
 1391TIP3    H2 4138   6.254   3.639   1.764 -0.1666  0.0055  0.4655
 1392TIP3   OH2 4139   0.270   4.200   0.129 -0.1967 -0.3604  0.2853
 1392TIP3    H1 4140   0.309   4.165   0.049 -0.3140  0.0426  0.0488
 1392TIP3    H2 4141   0.239   4.123   0.176 -0.0087 -0.6101  0.0064
 1393TIP3   OH2 4142   1.033   2.273   0.171 -0.7522 -0.0790  0.3137
 1393TIP3    H1 4143   1.095   2.255   0.241 -2.4969 -1.3842  1.6250
 1393TIP3    H2 4144   1.058   2.360   0.139  0.9774 -0.0555  1.5699
 1394TIP3   OH2 4145  -0.005   1.481   4.129  0.2020 -0.2232 -0.0854
 1394TIP3    H1 4146   0.077   1.508   4.170  0.6627  0.1648 -1.2388
 1394TIP3    H2 4147   0.001   1.385   4.125  0.8013 -0.1762 -0.5490
 1395TIP3   OH2 4148   4.882   0.161   0.327  0.1816 -0.1672 -0.6422
 1395TIP3    H1 4149   4.887   0.196   0.237 -1.8581  2.0342 -0.0247
 1395TIP3    H2 4150   4.827   0.083   0.319 -2.9629  1.8590 -1.0483
 1396TIP3   OH2 4151   4.616   3.833   0.487  0.3478 -0.1256 -0.3015
 1396TIP3    H1 4152   4.573   3.871   0.564 -0.2694 -0.8684 -0.2744
 1396TIP3    H2 4153   4.576   3.747   0.477  0.4969 -0.0789 -1.4031
 1397TIP3   OH2 4154   3.522   2.259   4.417  0.7140 -0.1855  1.0022
 1397TIP3    H1 4155   3.460   2.202   4.373 -0.4612 -0.0811  2.4410
 1397TIP3    H2 4156   3.599   2.260   4.360 -1.0432  0.7333 -1.5326
 1398TIP3   OH2 4157   4.859   0.283   0.077  0.3282  0.2083 -0.3038
 1398TIP3    H1 4158   4.920   0.329   0.020 -0.1619  0.4431 -0.6414
 1398TIP3    H2 4159   4.775   0.328   0.065 -0.4074 -1.3219 -1.3503
 1399TIP3   OH2 4160   2.458   5.817   0.015 -0.1549  0.5879 -0.3784
 1399TIP3    H1 4161   2.502   5.734   0.037  0.3879  1.3972  1.8971
 1399TIP3    H2 4162   2.529   5.877  -0.006 -0.5443  0.5330 -1.9359
 1400TIP3   OH2 4163   3.685   1.144   0.704 -0.4960  0.1984 -0.4194
 1400TIP3    H1 4164   3.614   1.091   0.667  0.5146 -0.7453 -1.0484
 1400TIP3    H2 4165   3.692   1.116   0.795 -0.4594 -0.2288 -0.5516
 1401TIP3   OH2 4166   3.705   1.899   4.505  0.3039  0.3423 -0.1122
 1401TIP3    H1 4167   3.749   1.984   4.510  0.0193  0.5500 -0.9809
 1401TIP3    H2 4168   3.664   1.888   4.590  1.9658  0.1849  0.7045
 1402TIP3   OH2 4169   2.324   5.506   1.754  0.4530  0.4307 -0.3665
 1402TIP3    H1 4170   2.260   5.564   1.794 -0.5299 -0.9136  0.0862
 1402TIP3    H2 4171   2.355   5.554   1.677  0.8302  2.1722  0.8348
 1403TIP3   OH2 4172   3.478   4.550   4.289 -0.5307 -0.0897  0.5650
 1403TIP3    H1 4173   3.394   4.508   4.270  0.0947 -1.7442  1.2511
 1403TIP3    H2 4174   3.455   4.636   4.323 -1.9000 -0.0889 -0.2845
 1404TIP3   OH2 4175   2.786   2.966   0.158 -0.1309  0.2990 -0.6029
 1404TIP3    H1 4176   2.719   2.911   0.199 -0.9293  1.8512  0.2697
 1404TIP3    H2 4177   2.743   2.999   0.079  0.7840 -1.2655 -1.8081
 1405TIP3   OH2 4178   1.960   2.844   2.941 -0.2972 -0.5118  0.3871
 1405TIP3    H1 4179   1.924   2.807   3.021 -0.0583  0.1403  0.8085
 1405TIP3    H2 4180   2.030   2.902   2.971 -1.2051  0.9290 -0.1739
 1406TIP3   OH2 4181   4.918   0.544   1.444 -0.0816 -0.3870 -0.0382
 1406TIP3    H1 4182   4.903   0.450   1.444  0.6490 -0.5433  1.6733
 1406TIP3    H2 4183   4.951   0.563   1.532  3.0646  0.9267 -1.3380
 1407TIP3   OH2 4184   5.038   0.631   0.631 -0.2294 -0.4052 -0.0045
 1407TIP3    H1 4185   5.042   0.602   0.540  0.4314 -1.2317  0.2721
 1407TIP3    H2 4186   4.948   0.611   0.659  0.4454 -3.2814  0.4839
 1408TIP3   OH2 4187   5.998   4.749   4.984  0.5603 -0.1216  0.0149
 1408TIP3    H1 4188   6.093   4.746   4.995  0.6195  1.4163  0.2784
 1408TIP3    H2 4189   5.965   4.677   5.036  1.5110  0.3155  1.2696
 1409TIP3   OH2 4190   0.639   6.069   0.355 -0.2372  0.1204 -0.3788
 1409TIP3    H1 4191   0.566   6.097   0.300 -3.3775 -1.8818  2.3721
 1409TIP3    H2 4192   0.672   6.150   0.393 -1.9598  1.0357 -0.7062
 1410TIP3   OH2 4193   5.943   0.710   0.283 -0.1924 -0.5402 -0.1207
 1410TIP3    H1 4194   5.932   0.804   0.275 -2.2331 -0.7194  0.0823
 1410TIP3    H2 4195   5.911   0.675   0.200  0.8472 -1.0569 -0.3203
 1411TIP3   OH2 4196   1.951   0.733   5.170  0.4550  0.0006 -0.2959
 1411TIP3    H1 4197   2.046   0.722   5.169  0.4041 -0.4423 -0.7163
 1411TIP3    H2 4198   1.937   0.821   5.205  0.9673 -0.4083  0.9842
 1412TIP3   OH2 4199   0.615   6.155   4.181 -0.0232  0.1921 -0.1520
 1412TIP3    H1 4200   0.634   6.140   4.274  0.5279  0.8601 -0.1469
 1412TIP3    H2 4201   0.526   6.191   4.180 -0.0871  0.0421  0.1037
 1413TIP3   OH2 4202   4.843   3.661   0.320  0.0944  0.7097 -0.2198
 1413TIP3    H1 4203   4.891   3.727   0.270  2.0898  1.0916  2.0486
 1413TIP3    H2 4204   4.816   3.706   0.400 -2.0423 -0.1801 -0.3721
 1414TIP3   OH2 4205   4.280   5.786   5.202 -0.6946  0.1620  0.3682
 1414TIP3    H1 4206   4.251   5.817   5.116  0.8300  0.2337 -0.1550
 1414TIP3    H2 4207   4.330   5.859   5.239  1.7095 -1.0276 -0.2649
 1415TIP3   OH2 4208   5.231   4.967   1.563 -0.3040  0.0748 -0.0048
 1415TIP3    H1 4209   5.283   5.018   1.626 -0.9218  1.5596 -0.6328
 1415TIP3    H2 4210   5.285   4.891   1.544  1.5599  1.4151 -0.4271
 1416TIP3   OH2 4211   2.252   1.951   2.035  0.1315 -0.1216  0.4757
 1416TIP3    H1 4212   2.232   1.861   2.007 -1.3656  0.2246  0.3546
 1416TIP3    H2 4213   2.203   2.006   1.974  1.5751  0.8172  0.1245
 1417TIP3   OH2 4214   4.878   2.788   5.820 -0.1896 -0.3157  0.5145
 1417TIP3    H1 4215   4.944   2.819   5.882 -0.5130  0.3125  0.5447
 1417TIP3    H2 4216   4.908   2.821   5.735 -0.3165 -0.2755  0.4855
 1418TIP3   OH2 4217   4.387   1.968   5.728  0.3324  0.0700 -0.8847
 1418TIP3    H1 4218   4.456   1.985   5.792  0.6521 -0.3474 -1.1042
 1418TIP3    H2 4219   4.358   1.879   5.748  0.5385 -0.1222 -1.3990
 1419TIP3   OH2 4220   5.422   5.842   1.313 -0.0752  0.1000  0.6275
 1419TIP3    H1 4221   5.513   5.857   1.288 -0.0032 -0.5070  0.5085
 1419TIP3    H2 4222   5.419   5.860   1.406  0.0962  0.4408  0.5671
 1420TIP3   OH2 4223   4.808   5.923   5.695  0.6130 -0.6461  0.0923
 1420TIP3    H1 4224   4.869   5.852   5.678  1.3407  0.1310 -0.6084
 1420TIP3    H2 4225   4.789   5.917   5.789  1.5989 -1.0285  0.2686
 1421TIP3   OH2 4226   6.134   2.475   4.933  0.5379  0.5609  0.4349
 1421TIP3    H1 4227   6.203   2.483   4.867  1.0316  0.4740  0.9376
 1421TIP3    H2 4228   6.138   2.383   4.961 -1.8832 -0.3773 -1.8032
 1422TIP3   OH2 4229   0.687   2.737   1.704 -0.5803  0.0543  0.3477
 1422TIP3    H1 4230   0.603   2.777   1.681 -1.1202 -0.6781  0.9899
 1422TIP3    H2 4231   0.672   2.643   1.698 -0.1950 -0.1246  1.7325
 1423TIP3   OH2 4232   3.873   2.738   2.270  0.5832  0.4746  0.0203
 1423TIP3    H1 4233   3.957   2.721   2.227 -0.4587  0.2810 -2.0872
 1423TIP3    H2 4234   3.852   2.656   2.314  1.7018  0.6811  0.9778
 1424TIP3   OH2 4235   7.084   3.124   4.327 -0.2869  0.1033 -0.6766
 1424TIP3    H1 4236   7.167   3.076   4.330  0.6449  1.6571  0.1732
 1424TIP3    H2 4237   7.017   3.057   4.316  1.1584 -1.1128 -2.7318
 1425TIP3   OH2 4238   0.254   6.360   0.645 -0.1809  0.7001 -0.6959
 1425TIP3    H1 4239   0.321   6.423   0.618  1.0893  0.0479  0.7589
 1425TIP3    H2 4240   0.302   6.278   0.658 -1.2266  0.2433  0.5430
 1426TIP3   OH2 4241   4.747   2.876   1.018  0.3694 -0.1959  0.4288
 1426TIP3    H1 4242   4.669   2.821   1.009 -0.7766  1.0259  2.1595
 1426TIP3    H2 4243   4.774   2.896   0.928 -1.8619  0.0600 -0.2303
 1427TIP3   OH2 4244   6.212   3.337   0.479  0.3014  0.8027  0.0826
 1427TIP3    H1 4245   6.131   3.384   0.502 -0.0388  0.5101 -0.4945
 1427TIP3    H2 4246   6.217   3.266   0.544 -0.6755 -0.0408 -0.7295
 1428TIP3   OH2 4247   1.274   0.181   1.588  0.3686 -0.0742  0.4739
 1428TIP3    H1 4248   1.286   0.096   1.631  2.3756 -0.1629 -0.1604
 1428TIP3    H2 4249   1.324   0.242   1.642  0.4886  0.3440 -0.1082
 1429TIP3   OH2 4250   6.679   4.673   4.126 -0.4373 -0.2993  0.4475
 1429TIP3    H1 4251   6.759   4.627   4.152  0.1453 -0.4125 -1.3935
 1429TIP3    H2 4252   6.610   4.607   4.134 -0.5348  0.0164  2.8058
 1430TIP3   OH2 4253   2.341   1.914   3.527 -1.0765  0.3114 -0.2082
 1430TIP3    H1 4254   2.419   1.901   3.581  0.3198  1.5322 -1.8310
 1430TIP3    H2 4255   2.270   1.922   3.590  0.5464  2.2206  1.5373
 1431TIP3   OH2 4256   1.575   0.705   5.667 -0.3105  0.2019 -0.2668
 1431TIP3    H1 4257   1.611   0.764   5.733  0.4054 -1.1886  0.6384
 1431TIP3    H2 4258   1.645   0.692   5.604  0.1735 -1.0477  0.4969
 1432TIP3   OH2 4259   5.478   3.943   0.090  0.3330 -0.0046 -0.5306
 1432TIP3    H1 4260   5.472   3.899   0.175  2.5310 -0.0306 -0.3121
 1432TIP3    H2 4261   5.388   3.946   0.057 -0.4957 -0.4670  1.5490
 1433TIP3   OH2 4262   4.007   3.093   4.969  0.0559  1.0055 -1.0034
 1433TIP3    H1 4263   3.938   3.026   4.966 -0.7971  1.7484  0.4906
 1433TIP3    H2 4264   4.089   3.044   4.963 -0.3868 -0.6305  3.0270
 1434TIP3   OH2 4265   4.911   1.999   5.204  0.2927  0.0090 -0.0325
 1434TIP3    H1 4266   4.979   1.981   5.269  1.2558 -0.4824 -1.1397
 1434TIP3    H2 4267   4.954   1.984   5.120 -1.1520 -0.1387 -0.7671
 1435TIP3   OH2 4268   1.493   1.675   4.653  0.3671 -0.9387 -0.0124
 1435TIP3    H1 4269   1.546   1.623   4.593  0.3886 -0.2253 -0.6372
 1435TIP3    H2 4270   1.420   1.707   4.600 -0.2803 -1.2730  0.6487
 1436TIP3   OH2 4271   3.163   3.593   2.863  0.7791  0.5222 -0.2164
 1436TIP3    H1 4272   3.203   3.562   2.781 -0.7152 -0.7283 -0.5178
 1436TIP3    H2 4273   3.069   3.582   2.849  0.5144 -0.3030  1.8998
 1437TIP3   OH2 4274   3.217   2.121   1.799  0.3938 -0.0309 -0.2643
 1437TIP3    H1 4275   3.151   2.130   1.868 -0.1746 -1.5241 -0.5928
 1437TIP3    H2 4276   3.276   2.195   1.815 -1.4994  1.5664 -0.1664
 1438TIP3   OH2 4277   5.427   4.104   4.429  0.3521 -0.0024  0.6133
 1438TIP3    H1 4278   5.461   4.034   4.485 -0.2903  0.7440  1.9875
 1438TIP3    H2 4279   5.411   4.177   4.489 -1.2664  0.5120 -0.3880
 1439TIP3   OH2 4280   4.034   6.017   2.555 -0.0047 -0.1480 -0.0880
 1439TIP3    H1 4281   3.969   6.060   2.611  1.0909 -1.0765  1.9951
 1439TIP3    H2 4282   3.992   5.935   2.528  0.3049 -0.8067  1.3521
 1440TIP3   OH2 4283   1.118   4.675   0.354 -0.1165  0.3253 -0.0841
 1440TIP3    H1 4284   1.212   4.683   0.373  0.4398 -0.4287 -2.3034
 1440TIP3    H2 4285   1.105   4.582   0.336 -0.6872  0.8093 -2.5322
 1441TIP3   OH2 4286   2.524   6.008   5.353 -0.1585  0.3585 -0.1902
 1441TIP3    H1 4287   2.546   5.994   5.445 -0.5632  1.2508  0.0485
 1441TIP3    H2 4288   2.579   5.945   5.306 -1.1062 -1.2623  0.7549
 1442TIP3   OH2 4289   5.198   1.133   1.974 -0.3070 -0.2587  0.2205
 1442TIP3    H1 4290   5.133   1.175   1.918  0.8596  0.4427 -0.6401
 1442TIP3    H2 4291   5.214   1.195   2.044 -1.2957 -0.8673  1.0115
 1443TIP3   OH2 4292   2.755   4.577   2.493  0.9796  0.6171  0.0600
 1443TIP3    H1 4293   2.820   4.613   2.433  0.6136  1.1963  0.0025
 1443TIP3    H2 4294   2.704   4.653   2.522  0.6656  0.2403  0.5095
 1444TIP3   OH2 4295   6.004   1.537   5.763  0.1518 -0.6319  0.1827
 1444TIP3    H1 4296   6.098   1.521   5.766  0.0539 -1.2726 -0.0549
 1444TIP3    H2 4297   5.993   1.621   5.809  0.9149 -0.1381 -0.5034
 1445TIP3   OH2 4298   4.213   4.865   3.237  0.2523 -0.0057  0.5145
 1445TIP3    H1 4299   4.283   4.805   3.264 -0.9448 -0.8795  1.8158
 1445TIP3    H2 4300   4.227   4.944   3.288  1.7992  0.8569 -1.1563
 1446TIP3   OH2 4301   6.050   3.450   0.883  0.6205  0.0811 -0.5069
 1446TIP3    H1 4302   6.109   3.507   0.932 -0.6954 -0.2424  1.5372
 1446TIP3    H2 4303   6.083   3.361   0.899 -0.5119 -0.1254  0.8714
 1447TIP3   OH2 4304   0.680   4.401   2.348  0.3954 -0.1825 -0.7254
 1447TIP3    H1 4305   0.770   4.395   2.378  0.8756  1.9497 -1.5437
 1447TIP3    H2 4306   0.678   4.480   2.294 -2.3007  0.6878  0.4782
 1448TIP3   OH2 4307   1.917   6.735   4.178  0.4641  0.2526  0.0121
 1448TIP3    H1 4308   1.828   6.736   4.211  0.6686  1.0373  0.5785
 1448TIP3    H2 4309   1.932   6.645   4.149 -0.7286  0.2789 -0.7297
 1449TIP3   OH2 4310   7.150   2.826   1.751 -0.0755 -0.1030  0.8321
 1449TIP3    H1 4311   7.133   2.742   1.708  1.8246 -0.7885  1.3070
 1449TIP3    H2 4312   7.128   2.810   1.843 -1.6976  0.5840  0.5891
 1450TIP3   OH2 4313   5.499   1.876   3.813 -0.2404  0.0684 -0.0583
 1450TIP3    H1 4314   5.587   1.873   3.773 -1.1041  1.3569 -2.2675
 1450TIP3    H2 4315   5.456   1.950   3.770 -1.7692  0.7619  2.4540
 1451TIP3   OH2 4316   3.849   6.690   3.466  0.0660  0.4408 -0.0084
 1451TIP3    H1 4317   3.893   6.775   3.453  1.2815 -0.2462 -0.5764
 1451TIP3    H2 4318   3.802   6.675   3.385  1.6753 -0.4383 -0.8204
 1452TIP3   OH2 4319   4.867   1.673   2.705  0.2074  0.0058  0.9317
 1452TIP3    H1 4320   4.868   1.649   2.797  0.2514  0.2864  1.0047
 1452TIP3    H2 4321   4.939   1.735   2.695  0.4597 -0.3285  0.6234
 1453TIP3   OH2 4322   5.025   0.332   0.827  0.2024  0.0906 -0.1301
 1453TIP3    H1 4323   5.090   0.308   0.893  1.1483 -1.1004 -1.4244
 1453TIP3    H2 4324   5.020   0.428   0.831 -0.1598  0.0258  1.9786
 1454TIP3   OH2 4325   5.965   3.023   3.101 -0.0694 -0.0466  0.1556
 1454TIP3    H1 4326   5.889   3.081   3.108 -1.6439 -1.9384 -0.3344
 1454TIP3    H2 4327   6.019   3.063   3.034 -1.0599  0.9272 -0.0995
 1455TIP3   OH2 4328   5.330   0.205   4.874  0.8082 -0.0760 -0.1625
 1455TIP3    H1 4329   5.247   0.188   4.917  1.2554 -0.1360  0.6872
 1455TIP3    H2 4330   5.386   0.131   4.897  0.9112 -0.3452 -1.2318
 1456TIP3   OH2 4331   3.716   4.810   2.279 -0.4769  0.4930  0.0176
 1456TIP3    H1 4332   3.717   4.723   2.239 -1.0643  0.5390 -0.0972
 1456TIP3    H2 4333   3.782   4.859   2.230 -1.5582  0.7078 -1.2656
 1457TIP3   OH2 4334   6.463   4.331   4.960  0.5075  0.1230 -0.1651
 1457TIP3    H1 4335   6.490   4.243   4.934 -0.4589  0.0336 -0.9212
 1457TIP3    H2 4336   6.504   4.345   5.046  0.5378 -1.1225  0.0349
 1458TIP3   OH2 4337   3.510   3.033   5.406 -0.0026  0.2266 -0.0400
 1458TIP3    H1 4338   3.604   3.045   5.393  0.0307  0.5284  0.4598
 1458TIP3    H2 4339   3.482   2.982   5.330  0.2987  1.3700 -0.9486
 1459TIP3   OH2 4340   2.349   5.640   1.127 -0.1759 -0.7604 -0.0369
 1459TIP3    H1 4341   2.354   5.546   1.141 -1.3313 -0.7817  0.3587
 1459TIP3    H2 4342   2.328   5.650   1.034  1.3279 -0.8313 -0.4028
 1460TIP3   OH2 4343   2.770   2.149   1.292 -0.1248 -0.3229  0.0510
 1460TIP3    H1 4344   2.730   2.088   1.230  0.7174  0.9276 -1.8564
 1460TIP3    H2 4345   2.864   2.143   1.273 -0.0065  1.4012 -0.0849
 1461TIP3   OH2 4346   6.917   0.470   3.734 -0.0790 -0.7257 -0.0715
 1461TIP3    H1 4347   6.824   0.453   3.752 -0.1821  1.6909  2.1690
 1461TIP3    H2 4348   6.964   0.415   3.795 -0.1475  0.0260  0.6752
 1462TIP3   OH2 4349   2.194   5.110   0.540 -0.4304  0.3622  0.3093
 1462TIP3    H1 4350   2.178   5.069   0.456 -0.3664  2.5241 -0.8351
 1462TIP3    H2 4351   2.218   5.200   0.518 -1.7297  1.3665  2.7044
 1463TIP3   OH2 4352   4.744   6.697   3.573 -0.4132  0.1319  0.3899
 1463TIP3    H1 4353   4.771   6.726   3.485 -2.6860  2.4160  0.3189
 1463TIP3    H2 4354   4.800   6.747   3.632 -0.7020  0.6488  0.2335
 1464TIP3   OH2 4355   2.555   4.458   4.952 -0.1978  0.1134  0.0988
 1464TIP3    H1 4356   2.564   4.428   4.862 -1.5703  0.1395 -0.0637
 1464TIP3    H2 4357   2.501   4.537   4.946 -0.5329 -0.0403  0.9642
 1465TIP3   OH2 4358   6.825   6.629   5.519 -0.8106  0.2782  0.7760
 1465TIP3    H1 4359   6.856   6.539   5.505  2.3486  1.1039  1.5349
 1465TIP3    H2 4360   6.809   6.634   5.613 -1.1814  0.4472  0.7024
 1466TIP3   OH2 4361   2.303   3.950   5.357  0.1315  0.3883 -0.1167
 1466TIP3    H1 4362   2.334   3.860   5.346 -1.0398  0.0372 -0.6634
 1466TIP3    H2 4363   2.338   3.977   5.442  0.9168 -0.3999 -0.1734
 1467TIP3   OH2 4364   4.912   1.830   1.992 -0.5585  0.4873  0.0481
 1467TIP3    H1 4365   4.817   1.816   1.994 -0.4880 -0.0320 -0.1393
 1467TIP3    H2 4366   4.946   1.756   1.942 -0.1246  1.0676 -0.5377
 1468TIP3   OH2 4367   4.894   5.880   4.759  0.5069 -0.7912  0.1354
 1468TIP3    H1 4368   4.828   5.939   4.796 -0.0826 -1.5498  0.3169
 1468TIP3    H2 4369   4.945   5.936   4.700 -0.7205 -0.3318 -0.5285
 1469TIP3   OH2 4370   4.774   2.924   0.753 -0.2242 -0.2405  0.4770
 1469TIP3    H1 4371   4.870   2.930   0.761 -0.0065  1.0430 -2.0725
 1469TIP3    H2 4372   4.760   2.859   0.685 -1.2423 -0.9221  1.3100
 1470TIP3   OH2 4373   6.450   1.209   5.723 -0.6542 -0.6375  0.0063
 1470TIP3    H1 4374   6.504   1.168   5.656  0.8223  3.0764 -1.3235
 1470TIP3    H2 4375   6.360   1.185   5.699 -0.0310 -1.1725 -2.0070
 1471TIP3   OH2 4376   5.716   6.044   5.590  0.2076 -0.5999 -0.3736
 1471TIP3    H1 4377   5.791   6.033   5.532 -1.2916 -1.4042 -2.2748
 1471TIP3    H2 4378   5.696   6.138   5.585  0.2508 -0.6171 -0.9957
 1472TIP3   OH2 4379   1.150   4.911   2.495 -0.0924  0.1566  0.2858
 1472TIP3    H1 4380   1.078   4.968   2.522  0.3191  0.1873  1.4032
 1472TIP3    H2 4381   1.221   4.971   2.471 -0.2250  0.1251 -0.1804
 1473TIP3   OH2 4382   2.480   5.513   2.075  0.1501  0.0998  0.0461
 1473TIP3    H1 4383   2.442   5.601   2.071 -0.4346  0.0201  2.2309
 1473TIP3    H2 4384   2.535   5.507   1.997  1.9066  3.2181  0.8557
 1474TIP3   OH2 4385   0.337   0.145   4.834  0.2588 -0.5290 -0.1198
 1474TIP3    H1 4386   0.408   0.093   4.872  0.5189  0.1660  0.3801
 1474TIP3    H2 4387   0.328   0.219   4.894 -0.5771 -0.3687 -0.4367
 1475TIP3   OH2 4388   2.706   6.740   2.899 -0.1146 -0.4781 -0.2351
 1475TIP3    H1 4389   2.652   6.671   2.938  0.7042 -0.8415  0.2662
 1475TIP3    H2 4390   2.687   6.734   2.805 -2.0355  0.3524  0.0466
 1476TIP3   OH2 4391   6.847   5.862   5.523 -0.5042 -0.0202  0.2016
 1476TIP3    H1 4392   6.838   5.939   5.467 -0.7165 -0.4009 -0.2964
 1476TIP3    H2 4393   6.883   5.794   5.465 -0.6484 -0.3956  0.5464
 1477TIP3   OH2 4394   0.983   4.303   0.095  0.4874  0.6255  0.2386
 1477TIP3    H1 4395   0.916   4.286   0.029 -0.9924 -0.5660  1.9667
 1477TIP3    H2 4396   0.959   4.387   0.133 -0.6295 -0.2108  1.4731
 1478TIP3   OH2 4397   2.450   6.529   5.785 -0.3381 -0.5280 -0.0882
 1478TIP3    H1 4398   2.355   6.520   5.787 -0.3265 -0.8680 -0.7726
 1478TIP3    H2 4399   2.469   6.596   5.851 -1.1668  0.5171 -0.8623
 1479TIP3   OH2 4400   2.777   3.444   3.027 -0.3048 -0.0171 -0.0876
 1479TIP3    H1 4401   2.825   3.371   2.990  0.3472 -0.4499  1.5397
 1479TIP3    H2 4402   2.820   3.522   2.992  1.3708 -0.4032  1.0220
 1480TIP3   OH2 4403   5.368   5.733   1.579  0.3016 -0.4568 -0.2843
 1480TIP3    H1 4404   5.331   5.821   1.589  1.9156  0.3696 -1.2058
 1480TIP3    H2 4405   5.307   5.689   1.520 -0.4282  0.1031  0.0342
 1481TIP3   OH2 4406   0.820   5.660   0.667  0.1603  0.1166  0.7458
 1481TIP3    H1 4407   0.745   5.618   0.709 -0.4707 -0.8508 -1.2418
 1481TIP3    H2 4408   0.851   5.595   0.604  1.2665  1.3862 -0.0531
 1482TIP3   OH2 4409   3.888   1.645   3.303  0.4595  0.0533  0.3756
 1482TIP3    H1 4410   3.882   1.617   3.394 -0.6169  1.2952  0.7256
 1482TIP3    H2 4411   3.952   1.716   3.304  0.0560  0.4252  0.2786
 1483TIP3   OH2 4412   4.513   2.364   5.157 -0.7956 -0.1422 -0.2557
 1483TIP3    H1 4413   4.561   2.283   5.144 -1.6323 -0.5697 -0.6920
 1483TIP3    H2 4414   4.580   2.427   5.186  0.5750  0.0116 -3.3811
 1484TIP3   OH2 4415   3.986   5.243   2.070  0.4318  0.1248 -0.0036
 1484TIP3    H1 4416   4.053   5.310   2.056  2.3038 -1.9159 -1.3528
 1484TIP3    H2 4417   4.030   5.177   2.123 -1.3194 -0.1721  1.1342
 1485TIP3   OH2 4418   6.009   3.830   0.008 -0.2884 -0.4169 -0.2550
 1485TIP3    H1 4419   5.995   3.875   0.091 -0.4640  0.1920 -0.6038
 1485TIP3    H2 4420   6.005   3.737   0.029 -0.7128 -0.2647  0.3550
 1486TIP3   OH2 4421   6.862   1.929   0.936  0.1909 -0.3260  0.0700
 1486TIP3    H1 4422   6.872   1.870   0.861  1.1152 -2.2753  1.6390
 1486TIP3    H2 4423   6.952   1.943   0.967 -0.2193 -0.0469  1.1538
 1487TIP3   OH2 4424   0.645   1.589   3.005  0.0923 -0.2379 -0.1265
 1487TIP3    H1 4425   0.628   1.525   3.074 -1.6355 -0.5119 -0.7549
 1487TIP3    H2 4426   0.741   1.593   2.998  0.2492 -2.3008  0.3451
 1488TIP3   OH2 4427   4.151   6.699   1.225 -0.2819 -0.1054 -0.4014
 1488TIP3    H1 4428   4.103   6.703   1.143  1.2537  0.2655 -1.3287
 1488TIP3    H2 4429   4.085   6.714   1.292 -1.5762 -0.4150 -1.5581
 1489TIP3   OH2 4430   7.163   4.388   4.853 -0.1514 -0.0281  0.4592
 1489TIP3    H1 4431   7.078   4.396   4.897  0.1904 -0.5474  1.2228
 1489TIP3    H2 4432   7.200   4.477   4.857 -0.4267  0.0812  0.5979
 1490TIP3   OH2 4433   5.007   0.884   3.147 -0.1064  0.1639  0.7060
 1490TIP3    H1 4434   5.072   0.874   3.077 -0.8892 -0.8836  0.0924
 1490TIP3    H2 4435   5.050   0.940   3.212  1.3182 -0.3180  0.2220
 1491TIP3   OH2 4436   5.562   1.818   1.550 -0.1612  0.2127  0.0023
 1491TIP3    H1 4437   5.578   1.909   1.527 -0.8775  0.9466  2.1644
 1491TIP3    H2 4438   5.483   1.794   1.501 -0.7064  1.1777  0.3787
 1492TIP3   OH2 4439   4.833   3.740   0.599  0.4803 -0.7058 -0.0418
 1492TIP3    H1 4440   4.775   3.694   0.659  1.4689 -0.4819  1.1277
 1492TIP3    H2 4441   4.786   3.820   0.576  0.4148 -0.4153  1.0764
 1493TIP3   OH2 4442   2.431   3.202   3.169  0.1941  0.6133 -0.2272
 1493TIP3    H1 4443   2.427   3.240   3.081  0.4596 -0.2686 -0.6292
 1493TIP3    H2 4444   2.356   3.240   3.215 -0.8174 -0.0261 -1.2960
 1494TIP3   OH2 4445   3.431   4.730   1.264  0.3481  0.1934  0.4407
 1494TIP3    H1 4446   3.345   4.695   1.240  0.8737 -0.7164 -0.1945
 1494TIP3    H2 4447   3.485   4.652   1.278  0.9786  0.7516  1.1908
 1495TIP3   OH2 4448   5.275   1.947   2.951 -0.1912  0.2340 -0.8600
 1495TIP3    H1 4449   5.281   1.876   3.015 -1.3152  0.4924 -0.4549
 1495TIP3    H2 4450   5.365   1.978   2.942 -0.1018  0.7091  1.1916
 1496TIP3   OH2 4451   2.436   5.865   3.044  0.1522 -0.0189  0.9388
 1496TIP3    H1 4452   2.424   5.836   2.954  0.5129  0.1819  0.8218
 1496TIP3    H2 4453   2.370   5.932   3.057  1.6536  1.7535  0.0030
 1497TIP3   OH2 4454   4.617   2.549   4.878 -0.1485  0.0876  0.5011
 1497TIP3    H1 4455   4.697   2.497   4.871  0.1807  0.4923  1.1332
 1497TIP3    H2 4456   4.554   2.505   4.821  0.4154 -0.4445  0.2828
 1498TIP3   OH2 4457   4.504   0.951   4.706  0.0649 -0.0125  0.1618
 1498TIP3    H1 4458   4.456   0.885   4.755 -0.9173  0.9719  0.5666
 1498TIP3    H2 4459   4.568   0.985   4.770  0.7360 -0.7081 -0.1176
 1499TIP3   OH2 4460   4.228   5.529   5.123  0.5176 -0.4664  0.2384
 1499TIP3    H1 4461   4.291   5.458   5.112  0.4329 -0.3434 -1.2822
 1499TIP3    H2 4462   4.273   5.594   5.176  0.0745 -2.2541  3.0011
 1500TIP3   OH2 4463   3.151   3.933   5.663  0.2957  0.3843  0.1195
 1500TIP3    H1 4464   3.094   3.976   5.599 -0.1081  0.8823  0.8024
 1500TIP3    H2 4465   3.228   3.907   5.613  0.1587  1.1199 -0.4933
 1501TIP3   OH2 4466   2.125   5.983   5.651 -0.3122  0.3545 -0.2286
 1501TIP3    H1 4467   2.136   6.076   5.674  0.6047  0.2663 -0.2843
 1501TIP3    H2 4468   2.175   5.971   5.571  0.0861 -0.3292  0.1134
 1502TIP3   OH2 4469   6.294   0.549   2.367 -0.1072 -0.0468  0.2519
 1502TIP3    H1 4470   6.306   0.464   2.410 -0.9120  0.3735  1.3911
 1502TIP3    H2 4471   6.356   0.607   2.411 -2.9430  1.1090  3.1365
 1503TIP3   OH2 4472   0.156   3.323   0.574  0.4446  0.1194  0.6477
 1503TIP3    H1 4473   0.152   3.394   0.639 -2.0569  0.8231 -0.1673
 1503TIP3    H2 4474   0.162   3.243   0.626  2.0109  0.8134  1.6179
 1504TIP3   OH2 4475   1.214   3.404   1.476  0.0712  0.2943  0.2222
 1504TIP3    H1 4476   1.261   3.387   1.394 -1.2597  0.6450 -0.6402
 1504TIP3    H2 4477   1.207   3.499   1.480 -0.4456  0.2478  0.4109
 1505TIP3   OH2 4478   2.510   2.798   5.029  0.3047 -0.1088  0.1807
 1505TIP3    H1 4479   2.514   2.887   4.996 -1.3642  0.2177  0.7733
 1505TIP3    H2 4480   2.420   2.769   5.011  0.1556 -0.8787  1.9441
 1506TIP3   OH2 4481   2.237   0.798   2.910 -0.3049 -0.5278 -0.1655
 1506TIP3    H1 4482   2.245   0.806   3.005 -1.4360 -0.7745 -0.0356
 1506TIP3    H2 4483   2.312   0.744   2.884  0.5128  0.2765  0.4620
 1507TIP3   OH2 4484   2.686   5.180   3.600  0.4636  0.2217 -0.7609
 1507TIP3    H1 4485   2.647   5.266   3.584  0.4228  0.3890  0.2192
 1507TIP3    H2 4486   2.615   5.118   3.582  0.9712  0.2335 -3.2706
 1508TIP3   OH2 4487   6.463   0.648   3.894 -0.3455 -0.5706 -0.1527
 1508TIP3    H1 4488   6.382   0.676   3.936 -0.1645 -1.2614  0.7224
 1508TIP3    H2 4489   6.478   0.710   3.824 -2.2349 -1.0979 -1.0739
 1509TIP3   OH2 4490   0.654   3.129   0.899  0.1298 -0.0323 -0.3801
 1509TIP3    H1 4491   0.676   3.113   0.807 -0.1339  0.5616 -0.5533
 1509TIP3    H2 4492   0.694   3.214   0.918  1.1544 -0.6689  0.3910
 1510TIP3   OH2 4493   3.693   0.525   0.334  0.6118  0.3429  0.7320
 1510TIP3    H1 4494   3.629   0.462   0.367 -2.7977  1.8065 -2.2651
 1510TIP3    H2 4495   3.722   0.488   0.250 -1.3113  2.4012 -0.9940
 1511TIP3   OH2 4496   0.357   3.852   3.944  0.5992  0.0897 -0.7360
 1511TIP3    H1 4497   0.372   3.946   3.944 -0.0500  0.2050 -1.7957
 1511TIP3    H2 4498   0.274   3.841   3.991  0.3215  0.1096 -1.2213
 1512TIP3   OH2 4499   6.158   4.195   4.828 -0.2475  0.4343 -0.0144
 1512TIP3    H1 4500   6.121   4.230   4.908 -0.1199 -0.6944  0.5615
 1512TIP3    H2 4501   6.093   4.132   4.797  1.6828 -2.7990  1.8751
 1513TIP3   OH2 4502   0.979   2.353   2.557  0.4266 -0.2381 -0.1057
 1513TIP3    H1 4503   1.050   2.390   2.504  0.3103 -0.2982 -0.3063
 1513TIP3    H2 4504   1.000   2.260   2.562 -0.7320 -0.6507 -1.9409
 1514TIP3   OH2 4505   4.279   3.001   3.085  0.2204 -0.4243  0.1884
 1514TIP3    H1 4506   4.291   3.096   3.076 -1.7759 -0.2280 -0.9688
 1514TIP3    H2 4507   4.247   2.989   3.175 -2.2856  0.3947 -0.5111
 1515TIP3   OH2 4508   4.949   4.018   0.722  0.1709 -0.1197  0.5675
 1515TIP3    H1 4509   5.031   4.063   0.705  0.8443 -1.4212  0.2594
 1515TIP3    H2 4510   4.892   4.043   0.649  0.3135  0.6730  0.7116
 1516TIP3   OH2 4511   6.037   2.786   0.127  0.4402  0.9354 -0.5783
 1516TIP3    H1 4512   5.979   2.745   0.062  1.2163  0.6195 -1.0815
 1516TIP3    H2 4513   6.118   2.804   0.078  1.0440  0.6776  0.3143
 1517TIP3   OH2 4514   4.204   1.479   4.169 -0.7915  0.0209  0.2370
 1517TIP3    H1 4515   4.279   1.531   4.140 -1.1112  0.0478 -0.5866
 1517TIP3    H2 4516   4.135   1.543   4.186 -1.0731 -0.0960 -0.4263
 1518TIP3   OH2 4517   5.342   3.060   3.233 -0.2130  0.1538  0.6299
 1518TIP3    H1 4518   5.299   3.047   3.148  0.2201  3.1488 -0.1377
 1518TIP3    H2 4519   5.403   2.987   3.240 -0.3147 -0.2085 -1.6086
 1519TIP3   OH2 4520   6.093   1.907   4.936  0.4976  0.0589 -0.0433
 1519TIP3    H1 4521   6.157   1.961   4.889 -0.3795  1.7011  0.5854
 1519TIP3    H2 4522   6.015   1.910   4.881  0.2428 -0.0603  0.3117
 1520TIP3   OH2 4523   2.678   1.626   1.688 -0.1381 -0.5123  0.5654
 1520TIP3    H1 4524   2.719   1.541   1.702  0.8625 -0.3394 -1.0132
 1520TIP3    H2 4525   2.623   1.613   1.611 -1.2980 -0.1326  1.3015
 1521TIP3   OH2 4526   1.854   2.873   3.774  0.3142  0.2423 -0.2185
 1521TIP3    H1 4527   1.808   2.824   3.706  2.3379 -0.9109 -0.8484
 1521TIP3    H2 4528   1.809   2.957   3.777 -2.4157 -1.1213 -0.0726
 1522TIP3   OH2 4529   6.688   4.320   1.305 -0.3302  0.4666  0.1709
 1522TIP3    H1 4530   6.718   4.350   1.219  0.0514  0.9528  0.4661
 1522TIP3    H2 4531   6.722   4.386   1.366 -1.7164  0.8439  0.5608
 1523TIP3   OH2 4532   1.208   5.494   1.452 -0.0204  0.7998  0.1433
 1523TIP3    H1 4533   1.141   5.428   1.465  0.5615 -0.0971 -1.1729
 1523TIP3    H2 4534   1.161   5.577   1.449 -1.1820  0.1372 -1.4097
 1524TIP3   OH2 4535   2.791   6.681   1.834 -0.1847  0.1437 -0.0977
 1524TIP3    H1 4536   2.699   6.654   1.835 -1.1160  3.0111  1.6694
 1524TIP3    H2 4537   2.794   6.750   1.768  0.6167  0.3309  0.1304
 1525TIP3   OH2 4538   7.209   5.787   0.952 -0.0006 -0.3400 -0.2126
 1525TIP3    H1 4539   7.127   5.821   0.987  0.4346 -0.1381  0.6292
 1525TIP3    H2 4540   7.264   5.773   1.028  0.7657 -0.4465 -0.7707
 1526TIP3   OH2 4541   6.063   5.588   5.264  0.0588  0.2019 -0.0408
 1526TIP3    H1 4542   6.054   5.496   5.287 -0.9295  0.8245  2.3609
 1526TIP3    H2 4543   5.983   5.609   5.217  0.6869 -0.3268 -1.4151
 1527TIP3   OH2 4544   4.218   3.344   4.011 -0.4433 -0.5483 -0.1850
 1527TIP3    H1 4545   4.123   3.354   3.999 -0.4967 -1.1957 -0.3248
 1527TIP3    H2 4546   4.256   3.400   3.944 -0.7246  0.0318  0.1357
 1528TIP3   OH2 4547   4.169   5.197   1.204 -0.2184 -0.1503  0.4526
 1528TIP3    H1 4548   4.173   5.133   1.132 -1.6764 -0.3677  0.5267
 1528TIP3    H2 4549   4.145   5.279   1.162  1.7920  0.4329  0.3396
 1529TIP3   OH2 4550   4.646   5.069   4.075  0.2226 -0.1400 -0.3720
 1529TIP3    H1 4551   4.657   5.131   4.148  0.8841  0.5050 -1.0098
 1529TIP3    H2 4552   4.613   5.123   4.003 -0.2649 -0.7477 -0.6124
 1530TIP3   OH2 4553   2.802   1.943   3.952  0.4526  0.2806 -0.1304
 1530TIP3    H1 4554   2.830   1.958   3.862 -1.0127 -0.6329 -0.7625
 1530TIP3    H2 4555   2.757   1.859   3.950  1.1051 -0.1581  1.6354
 1531TIP3   OH2 4556   5.265   0.478   2.688  0.7009 -0.2478 -0.3622
 1531TIP3    H1 4557   5.246   0.386   2.703  0.7870 -0.1242  0.5603
 1531TIP3    H2 4558   5.336   0.498   2.748 -1.9257  1.3896  2.5344
 1532TIP3   OH2 4559   6.530   1.463   4.284 -0.3904 -0.3455 -0.1289
 1532TIP3    H1 4560   6.468   1.472   4.357  0.6486  0.9737  0.6617
 1532TIP3    H2 4561   6.609   1.427   4.325  0.3773  0.8833 -0.4581
 1533TIP3   OH2 4562   6.767   1.376   0.833  0.0463  0.4746  0.1010
 1533TIP3    H1 4563   6.857   1.400   0.812  0.0063 -0.0321 -0.6733
 1533TIP3    H2 4564   6.775   1.312   0.904  0.2545  0.9763  0.5360
 1534TIP3   OH2 4565   0.584   0.904   2.480  0.5855 -0.7011 -0.4191
 1534TIP3    H1 4566   0.618   0.971   2.539 -1.1992  0.6971 -0.8900
 1534TIP3    H2 4567   0.493   0.931   2.463  0.2921 -2.4197 -1.8328
 1535TIP3   OH2 4568   1.578   6.246   3.304  0.1471  0.0535 -0.0962
 1535TIP3    H1 4569   1.578   6.292   3.388  2.1968  0.4802 -0.2644
 1535TIP3    H2 4570   1.517   6.173   3.316 -1.3782  1.4357  0.9589
 1536TIP3   OH2 4571   3.134   3.178   0.199 -0.0418 -0.2746  0.5283
 1536TIP3    H1 4572   3.121   3.086   0.220 -0.2928 -0.1686  0.8491
 1536TIP3    H2 4573   3.110   3.185   0.106 -1.6738 -0.2260  0.9227
 1537TIP3   OH2 4574   2.949   0.059   1.497  0.1248  0.0976 -0.2566
 1537TIP3    H1 4575   2.953  -0.010   1.562 -0.1705 -1.0873 -1.4579
 1537TIP3    H2 4576   2.876   0.115   1.525 -0.2172 -0.5907  0.2449
 1538TIP3   OH2 4577   2.699   0.428   0.908 -0.2298  0.4275  0.1840
 1538TIP3    H1 4578   2.781   0.436   0.957 -0.5825  2.9200  0.4981
 1538TIP3    H2 4579   2.697   0.505   0.851 -2.6165  0.8023  0.6641
 1539TIP3   OH2 4580   2.487   3.047   1.839 -0.0452  0.5863  0.2858
 1539TIP3    H1 4581   2.463   3.081   1.925 -1.2433 -0.1701  0.2641
 1539TIP3    H2 4582   2.561   2.989   1.856 -0.0080  0.7638  0.7409
 1540TIP3   OH2 4583   2.762   3.325   2.626 -0.1844  0.8137  0.6162
 1540TIP3    H1 4584   2.845   3.293   2.660  0.4286  1.3899 -0.3072
 1540TIP3    H2 4585   2.767   3.312   2.532 -1.6201 -0.2095  0.6575
 1541TIP3   OH2 4586   3.324   0.758   3.657 -0.0361  0.0715  0.6544
 1541TIP3    H1 4587   3.287   0.761   3.745  1.2417 -0.3896  1.2305
 1541TIP3    H2 4588   3.400   0.700   3.665 -0.6102 -0.9786 -1.0265
 1542TIP3   OH2 4589   0.077   0.576   4.321 -0.3174 -0.0753  0.3335
 1542TIP3    H1 4590   0.091   0.654   4.267 -0.2475  0.4211  1.0569
 1542TIP3    H2 4591   0.165   0.542   4.336 -0.0826  1.1352  2.0738
 1543TIP3   OH2 4592   4.024   6.348   3.847 -0.2966  0.0244  1.1103
 1543TIP3    H1 4593   4.039   6.419   3.910  0.3491 -0.7409  1.8555
 1543TIP3    H2 4594   3.938   6.367   3.810  0.1001  1.4935  0.8673
 1544TIP3   OH2 4595   0.527   2.659   3.078  0.3271  0.1193  0.1784
 1544TIP3    H1 4596   0.591   2.652   3.007  0.3522 -2.9086  0.3898
 1544TIP3    H2 4597   0.515   2.754   3.089  1.9775  0.7391 -2.3272
 1545TIP3   OH2 4598   6.092   0.245   0.870 -0.6338 -0.2705  0.7333
 1545TIP3    H1 4599   6.112   0.333   0.902 -0.5378  0.3230 -0.8270
 1545TIP3    H2 4600   6.067   0.195   0.948 -0.1583  0.9850  1.7217
 1546TIP3   OH2 4601   6.420   0.177   5.855 -0.2678  0.5623  0.3584
 1546TIP3    H1 4602   6.504   0.193   5.812 -0.5486  0.7395 -0.1418
 1546TIP3    H2 4603   6.405   0.083   5.842 -1.9648  1.1319 -3.0585
 1547TIP3   OH2 4604   4.820   1.936   2.934 -0.5584 -0.1859 -0.1193
 1547TIP3    H1 4605   4.741   1.954   2.882  0.1513  1.0910 -0.8108
 1547TIP3    H2 4606   4.850   1.851   2.903 -0.4087  0.3515 -1.5326
 1548TIP3   OH2 4607   4.222   3.508   0.179  0.3147 -0.7016  0.6965
 1548TIP3    H1 4608   4.197   3.499   0.087 -1.4992  1.7267  0.8595
 1548TIP3    H2 4609   4.149   3.470   0.228  0.4023 -0.3197  1.1386
 1549TIP3   OH2 4610   6.959   5.906   1.065 -0.0255 -0.0601 -0.2060
 1549TIP3    H1 4611   7.022   5.966   1.103 -1.1117 -0.6063  2.7787
 1549TIP3    H2 4612   6.895   5.963   1.022 -0.7020  1.0129  2.0240
 1550TIP3   OH2 4613   1.662   3.263   1.866  0.4264  0.0101 -0.6854
 1550TIP3    H1 4614   1.567   3.259   1.877  0.4977  1.7291  1.0205
 1550TIP3    H2 4615   1.681   3.356   1.855  2.0109 -0.1365  0.4628
 1551TIP3   OH2 4616   6.054   5.545   0.032 -0.5231 -0.5590  0.0394
 1551TIP3    H1 4617   6.020   5.568  -0.054 -0.4542 -0.3607  0.0640
 1551TIP3    H2 4618   6.128   5.604   0.045  0.6269 -1.8022 -0.5414
 1552TIP3   OH2 4619   5.457   4.263   1.358 -0.3519 -0.6250  0.1718
 1552TIP3    H1 4620   5.414   4.324   1.418  0.2558 -2.3902  2.5498
 1552TIP3    H2 4621   5.456   4.308   1.273 -2.1196  1.5908  1.2554
 1553TIP3   OH2 4622   4.951   3.876   2.184  0.1037 -0.0247 -0.0478
 1553TIP3    H1 4623   4.945   3.846   2.275 -0.7076 -2.2092 -0.7529
 1553TIP3    H2 4624   4.893   3.952   2.180  1.7566  1.4310  1.6885
 1554TIP3   OH2 4625   4.133   4.231   1.343  0.1474 -0.1351 -0.5755
 1554TIP3    H1 4626   4.160   4.311   1.388 -0.9543 -1.0340  1.8144
 1554TIP3    H2 4627   4.198   4.166   1.369 -0.5529 -0.6914 -0.2003
 1555TIP3   OH2 4628   4.499   4.032   4.049 -0.3598 -0.3398  0.3510
 1555TIP3    H1 4629   4.549   4.079   3.982  1.7392 -2.3161  0.4082
 1555TIP3    H2 4630   4.410   4.027   4.014  0.0695  0.9678 -1.0190
 1556TIP3   OH2 4631   6.507   6.097   3.583 -0.0639 -0.3938  0.9016
 1556TIP3    H1 4632   6.531   6.163   3.518 -1.2541 -1.3510 -0.5831
 1556TIP3    H2 4633   6.553   6.123   3.662  0.5239  1.4673 -0.0032
 1557TIP3   OH2 4634   4.808   0.484   2.513  0.8638 -0.2337  0.3189
 1557TIP3    H1 4635   4.778   0.403   2.472 -0.7817  0.0743  0.8410
 1557TIP3    H2 4636   4.806   0.465   2.607 -1.5799  0.9736  0.6056
 1558TIP3   OH2 4637   5.815   2.358   1.735 -0.0333 -0.2961  0.7222
 1558TIP3    H1 4638   5.791   2.414   1.662  0.0346 -1.5751 -0.3112
 1558TIP3    H2 4639   5.839   2.275   1.695  3.1707 -0.0769  1.9035
 1559TIP3   OH2 4640   3.058   0.205   0.178 -0.3421  0.5517 -0.2987
 1559TIP3    H1 4641   3.092   0.120   0.208 -1.4678  0.5781  1.1506
 1559TIP3    H2 4642   3.065   0.201   0.083  3.7928  0.6041 -0.1759
 1560TIP3   OH2 4643   1.112   0.876   3.879 -0.1211 -0.2725 -0.1081
 1560TIP3    H1 4644   1.025   0.916   3.873  0.3455  0.7659 -0.3128
 1560TIP3    H2 4645   1.168   0.947   3.910  0.2793 -1.5237  2.1850
 1561TIP3   OH2 4646   3.052   6.439   3.761  0.2056 -0.4535 -0.5824
 1561TIP3    H1 4647   3.099   6.383   3.823  0.6820  1.6522  1.1099
 1561TIP3    H2 4648   2.960   6.423   3.780  0.2796 -1.7865 -1.2368
 1562TIP3   OH2 4649   3.536   6.213   0.432  0.5449 -0.0532 -0.8570
 1562TIP3    H1 4650   3.536   6.143   0.497 -1.7128  0.5965 -0.0611
 1562TIP3    H2 4651   3.490   6.285   0.475  1.6604  1.4685 -2.1233
 1563TIP3   OH2 4652   4.498   2.010   3.127 -0.0205 -0.1313  0.6007
 1563TIP3    H1 4653   4.565   2.068   3.091  0.8429 -1.5274 -0.1276
 1563TIP3    H2 4654   4.415   2.056   3.110  0.5567  0.4186 -0.8882
 1564TIP3   OH2 4655   2.593   4.278   5.158  0.1052 -0.1716  0.1674
 1564TIP3    H1 4656   2.590   4.367   5.123  1.5330 -0.0436  0.3306
 1564TIP3    H2 4657   2.525   4.231   5.110 -2.1115  1.4805  1.4941
 1565TIP3   OH2 4658   5.587   4.931   1.067 -0.0688  0.3938 -0.0923
 1565TIP3    H1 4659   5.569   5.017   1.106  0.9037  0.6619 -0.2149
 1565TIP3    H2 4660   5.559   4.868   1.134 -2.7913  0.7099 -0.7983
 1566TIP3   OH2 4661   6.893   2.993   3.528  0.3073 -0.0436  0.6493
 1566TIP3    H1 4662   6.893   3.067   3.467  2.0963 -1.2001 -0.8860
 1566TIP3    H2 4663   6.921   2.919   3.475 -0.4844 -1.6425  2.3679
 1567TIP3   OH2 4664   4.654   6.692   2.817 -0.2174  0.1254  0.2538
 1567TIP3    H1 4665   4.611   6.778   2.821 -1.7276 -0.6339  0.9669
 1567TIP3    H2 4666   4.590   6.635   2.775  0.3773 -0.8743  0.6731
 1568TIP3   OH2 4667   4.826   4.818   1.370  0.0999 -0.8853  0.2605
 1568TIP3    H1 4668   4.885   4.868   1.427 -0.0504 -0.9159  0.4435
 1568TIP3    H2 4669   4.784   4.884   1.315  1.7406 -1.0144 -1.2371
 1569TIP3   OH2 4670   5.835   1.226   0.854  0.0945 -0.0833  0.1605
 1569TIP3    H1 4671   5.892   1.271   0.792  0.8291 -1.5989 -0.3077
 1569TIP3    H2 4672   5.895   1.180   0.913 -0.5811  1.2141  1.9725
 1570TIP3   OH2 4673   0.680   4.627   0.599 -0.0955  0.1872 -0.3696
 1570TIP3    H1 4674   0.692   4.538   0.567  2.0348 -0.1252  1.1143
 1570TIP3    H2 4675   0.712   4.682   0.527  0.4691 -0.3265 -0.5220
 1571TIP3   OH2 4676   6.930   2.041   3.604 -0.3906  0.2388  0.2211
 1571TIP3    H1 4677   6.867   2.106   3.572  0.5748  1.0498 -0.0883
 1571TIP3    H2 4678   6.908   1.960   3.557 -1.8563  0.2171  0.8977
 1572TIP3   OH2 4679   5.929   4.717   3.238 -0.0839 -1.0352  0.2979
 1572TIP3    H1 4680   5.947   4.628   3.267  1.4155 -0.6432  0.6678
 1572TIP3    H2 4681   5.982   4.772   3.296 -1.3814  0.1470  0.4162
 1573TIP3   OH2 4682   2.457   1.921   0.164 -0.5337  0.1068  0.0625
 1573TIP3    H1 4683   2.512   1.984   0.119  0.9693 -0.3074  1.2310
 1573TIP3    H2 4684   2.518   1.861   0.207 -1.8737 -0.2126  1.6488
 1574TIP3   OH2 4685   1.813   5.169   5.139 -0.3689  0.3601  0.0517
 1574TIP3    H1 4686   1.729   5.201   5.105 -0.3498  0.8933  0.4862
 1574TIP3    H2 4687   1.801   5.168   5.234 -0.5542 -1.4754  0.0402
 1575TIP3   OH2 4688   6.986   0.182   4.778 -0.1240  0.5299 -0.2218
 1575TIP3    H1 4689   7.055   0.226   4.729  0.4534 -1.1547 -1.0013
 1575TIP3    H2 4690   6.995   0.090   4.754 -1.4309  0.0085  1.1521
 1576TIP3   OH2 4691   0.864   1.766   1.918 -0.2998  0.3718  0.0751
 1576TIP3    H1 4692   0.852   1.849   1.965  0.9868  0.3022  0.5751
 1576TIP3    H2 4693   0.785   1.716   1.938 -0.4185  0.9025  1.0059
 1577TIP3   OH2 4694   2.033   2.672   5.344 -0.1777  0.4282 -0.3027
 1577TIP3    H1 4695   2.079   2.754   5.332  0.1137  0.2310 -0.5242
 1577TIP3    H2 4696   1.942   2.692   5.323  0.1599  0.3008 -1.9733
 1578TIP3   OH2 4697   5.807   5.882   4.449 -0.4992 -0.3554  0.0102
 1578TIP3    H1 4698   5.857   5.816   4.496 -1.4954  0.3553  2.1818
 1578TIP3    H2 4699   5.873   5.945   4.420  0.2141 -1.1560 -0.1544
 1579TIP3   OH2 4700   4.328   4.794   0.847 -0.1659 -0.1898  0.2180
 1579TIP3    H1 4701   4.405   4.797   0.904  1.3690 -2.0879 -1.5688
 1579TIP3    H2 4702   4.359   4.748   0.769 -2.4836  1.2118 -1.6448
 1580TIP3   OH2 4703   4.823   5.333   1.746  0.1541 -0.4785 -0.0622
 1580TIP3    H1 4704   4.759   5.285   1.694 -0.1463  0.5136 -0.6491
 1580TIP3    H2 4705   4.907   5.292   1.726 -0.1938 -1.3069  0.1347
 1581TIP3   OH2 4706   3.334   3.136   2.432  0.4865  0.0738 -0.1731
 1581TIP3    H1 4707   3.290   3.200   2.488  0.2043 -0.6976  0.5209
 1581TIP3    H2 4708   3.407   3.104   2.485  1.9089  1.3178 -1.2997
 1582TIP3   OH2 4709   4.390   2.223   0.149  0.0170  0.4627  0.4127
 1582TIP3    H1 4710   4.394   2.315   0.173 -1.6093  0.2077  1.7978
 1582TIP3    H2 4711   4.455   2.181   0.206 -1.2785  0.3797  1.8882
 1583TIP3   OH2 4712   1.399   2.079   2.551  0.0217 -0.0800 -0.6195
 1583TIP3    H1 4713   1.436   1.995   2.525 -2.0948 -1.5170  0.6798
 1583TIP3    H2 4714   1.432   2.095   2.639 -0.0550  0.1539 -0.6299
 1584TIP3   OH2 4715   2.931   1.502   5.785 -0.3704  0.3848  0.0957
 1584TIP3    H1 4716   3.007   1.514   5.728 -0.2712  0.1634  0.1834
 1584TIP3    H2 4717   2.964   1.516   5.873 -0.5902  1.0413  0.0828
 1585TIP3   OH2 4718   1.141   5.490   4.931  0.3867 -0.2135 -0.7107
 1585TIP3    H1 4719   1.055   5.526   4.911  0.8960  1.3197 -0.3154
 1585TIP3    H2 4720   1.152   5.506   5.025  1.1224 -0.3408 -0.7705
 1586TIP3   OH2 4721   5.863   4.375   2.890 -0.1154 -0.3350 -0.3870
 1586TIP3    H1 4722   5.857   4.460   2.932 -0.8631 -0.2964 -0.5516
 1586TIP3    H2 4723   5.950   4.342   2.913  0.7673  1.1020 -1.5296
 1587TIP3   OH2 4724   0.195   2.562   0.871  0.9893 -0.2257  0.0791
 1587TIP3    H1 4725   0.118   2.531   0.919  0.9615  0.8421  0.7457
 1587TIP3    H2 4726   0.269   2.518   0.912  0.7310 -1.5893 -0.8378
 1588TIP3   OH2 4727   5.026   6.665   4.968  0.0075 -0.1805 -0.9517
 1588TIP3    H1 4728   4.996   6.738   4.915 -1.3943  0.4995  0.6628
 1588TIP3    H2 4729   5.102   6.699   5.015 -0.5488  0.2294 -0.3210
 1589TIP3   OH2 4730   1.368   4.403   5.191  0.3242 -0.1084 -0.0789
 1589TIP3    H1 4731   1.394   4.363   5.108  1.4456  0.2988  0.0596
 1589TIP3    H2 4732   1.365   4.497   5.172  0.2355 -0.0427  0.2513
 1590TIP3   OH2 4733   3.261   4.605   4.027  0.4930 -0.5968  0.3207
 1590TIP3    H1 4734   3.332   4.566   3.977  0.5567  0.0542 -0.1132
 1590TIP3    H2 4735   3.213   4.531   4.064 -0.5249 -1.1951 -2.0428
 1591TIP3   OH2 4736   5.575   3.837   1.220 -0.0645 -0.0777  0.1114
 1591TIP3    H1 4737   5.583   3.781   1.297 -0.0348  1.3197  1.1650
 1591TIP3    H2 4738   5.567   3.925   1.256  2.9072  0.9996 -1.5028
 1592TIP3   OH2 4739   4.994   6.708   0.610 -0.6299  0.0350 -0.2824
 1592TIP3    H1 4740   5.069   6.701   0.668 -0.5860  2.9770  0.1561
 1592TIP3    H2 4741   4.951   6.790   0.636 -3.9056 -1.4165 -0.6354
 1593TIP3   OH2 4742   2.556   6.089   2.212  0.0841  0.3740 -0.1604
 1593TIP3    H1 4743   2.521   6.066   2.126 -3.5531 -1.4077  1.5666
 1593TIP3    H2 4744   2.493   6.152   2.246  1.0427  0.4843  1.4743
 1594TIP3   OH2 4745   4.338   5.346   0.215  0.0989 -0.5809  0.0525
 1594TIP3    H1 4746   4.382   5.261   0.213 -0.1307 -0.7449  1.1241
 1594TIP3    H2 4747   4.409   5.410   0.213  0.2418 -0.6362 -3.9256
 1595TIP3   OH2 4748   2.010   3.240   5.152  0.8749 -0.2258 -0.0955
 1595TIP3    H1 4749   1.972   3.296   5.220  0.1876  0.5345 -1.0737
 1595TIP3    H2 4750   2.104   3.251   5.162  0.8318 -1.0110  1.4470
 1596TIP3   OH2 4751   5.665   1.331   3.163  0.6981 -0.2209  0.5367
 1596TIP3    H1 4752   5.670   1.410   3.110  0.8564  0.0361  0.9285
 1596TIP3    H2 4753   5.647   1.261   3.101 -1.1422  0.3464  0.3587
 1597TIP3   OH2 4754   4.802   0.744   4.375  0.5357 -0.3162 -0.3962
 1597TIP3    H1 4755   4.826   0.836   4.380 -0.0070 -0.1752 -0.3026
 1597TIP3    H2 4756   4.869   0.705   4.318  1.5233 -0.1291  0.6084
 1598TIP3   OH2 4757   1.621   2.892   2.656  0.1184 -0.2332 -0.1589
 1598TIP3    H1 4758   1.607   2.799   2.639  0.0262  0.1639 -2.6806
 1598TIP3    H2 4759   1.689   2.917   2.593  1.6134  1.0178  1.8286
 1599TIP3   OH2 4760   5.898   3.912   2.228  0.1568 -0.3369 -0.3500
 1599TIP3    H1 4761   5.919   3.883   2.140 -1.1656 -4.6871  0.5257
 1599TIP3    H2 4762   5.910   3.834   2.283 -1.6161  1.4258  2.8702
 1600TIP3   OH2 4763   5.641   1.143   5.334  0.3717  0.5054 -0.1007
 1600TIP3    H1 4764   5.575   1.188   5.281  0.0094  2.6131  1.9423
 1600TIP3    H2 4765   5.713   1.125   5.274 -0.9650  0.5653 -1.8021
 1601TIP3   OH2 4766   0.781   2.196   5.382 -0.4240  0.4780  0.2857
 1601TIP3    H1 4767   0.755   2.271   5.436  1.4297  1.1433  0.3278
 1601TIP3    H2 4768   0.816   2.235   5.302  1.4427 -0.2396  0.6866
 1602TIP3   OH2 4769   5.882   6.439   2.460  0.2536 -0.0152  0.1552
 1602TIP3    H1 4770   5.833   6.495   2.520 -0.7055  0.3521 -0.9221
 1602TIP3    H2 4771   5.964   6.419   2.506 -0.2863  0.5474  1.4104
 1603TIP3   OH2 4772   4.009   4.057   5.645 -0.1081  0.1229  0.7481
 1603TIP3    H1 4773   4.098   4.091   5.646  0.8718 -2.1895 -0.6371
 1603TIP3    H2 4774   3.954   4.135   5.633  1.6997  1.5709  1.4511
 1604TIP3   OH2 4775   4.009   6.782   5.147  0.1118 -0.8883 -0.1166
 1604TIP3    H1 4776   4.056   6.710   5.107  3.7237  0.8110  0.6652
 1604TIP3    H2 4777   4.016   6.767   5.241 -0.6176 -0.3682  0.0344
 1605TIP3   OH2 4778   4.631   2.978   4.723 -0.5288  0.0474 -0.3575
 1605TIP3    H1 4779   4.713   3.016   4.755  1.0337 -3.4290  0.2764
 1605TIP3    H2 4780   4.615   3.023   4.640  2.1540  0.7346 -0.6182
 1606TIP3   OH2 4781   4.109   1.067   1.636 -0.6187  0.5773  0.7490
 1606TIP3    H1 4782   4.082   1.129   1.704 -0.2888 -1.1764  2.5534
 1606TIP3    H2 4783   4.072   0.984   1.663  2.4377 -0.9282  0.7592
 1607TIP3   OH2 4784   3.960   3.113   4.419 -0.1779  0.4346 -0.3556
 1607TIP3    H1 4785   3.935   3.126   4.510 -1.5961 -0.1566 -0.6489
 1607TIP3    H2 4786   4.024   3.183   4.402  1.1482 -0.2618  1.4565
 1608TIP3   OH2 4787   5.312   5.124   4.572 -0.0723 -0.4808  0.0563
 1608TIP3    H1 4788   5.311   5.052   4.634 -1.4765  0.2962  0.9909
 1608TIP3    H2 4789   5.405   5.141   4.556  0.3410 -0.5785  2.1124
 1609TIP3   OH2 4790   2.288   2.818   3.681 -0.1173  0.1686 -0.5721
 1609TIP3    H1 4791   2.306   2.788   3.770 -3.8174  0.2034  0.3551
 1609TIP3    H2 4792   2.251   2.905   3.692  1.1229  0.9840 -2.3797
 1610TIP3   OH2 4793   2.582   4.268   1.020  0.1161 -0.6774 -0.2869
 1610TIP3    H1 4794   2.569   4.242   0.928  0.2285 -0.7608 -0.2788
 1610TIP3    H2 4795   2.651   4.211   1.051  1.1658  0.3853 -0.5941
 1611TIP3   OH2 4796   1.777   0.102   5.798 -0.0438  0.1244  0.0105
 1611TIP3    H1 4797   1.768   0.022   5.747  1.2520 -0.3831  0.5505
 1611TIP3    H2 4798   1.697   0.151   5.779  0.5183  0.1138 -2.7386
 1612TIP3   OH2 4799   4.870   2.485   4.946 -0.1572 -0.0893 -0.1008
 1612TIP3    H1 4800   4.907   2.414   4.894  1.6969 -0.4056  1.5351
 1612TIP3    H2 4801   4.864   2.449   5.035 -1.8838  0.8918  0.2291
 1613TIP3   OH2 4802   5.286   1.667   3.783 -0.7235 -0.1022 -0.0379
 1613TIP3    H1 4803   5.367   1.717   3.795 -2.9700  3.5640  1.3810
 1613TIP3    H2 4804   5.295   1.591   3.841  1.6075  0.2003  0.0898
 1614TIP3   OH2 4805   1.533   3.978   4.943 -0.1102  0.4132  0.2281
 1614TIP3    H1 4806   1.596   3.935   4.885  1.1376  1.5338  0.6816
 1614TIP3    H2 4807   1.565   3.960   5.031 -0.4994  0.8864  0.4721
 1615TIP3   OH2 4808   4.217   6.435   3.655 -0.3497 -0.2073 -0.4835
 1615TIP3    H1 4809   4.136   6.407   3.698  0.8168 -1.0214  1.3220
 1615TIP3    H2 4810   4.238   6.363   3.595 -0.8531 -0.1062 -0.7777
 1616TIP3   OH2 4811   2.155   6.169   3.787  0.9180 -0.4256 -0.0980
 1616TIP3    H1 4812   2.239   6.141   3.751  1.6064 -0.1086  1.2200
 1616TIP3    H2 4813   2.177   6.230   3.857 -0.4681  1.7328 -1.4113
 1617TIP3   OH2 4814   2.931   1.516   4.789 -0.1563 -0.1357  0.7022
 1617TIP3    H1 4815   2.973   1.455   4.850 -1.2581 -0.3707  1.2447
 1617TIP3    H2 4816   3.004   1.554   4.739  0.5834 -1.5918  0.6280
 1618TIP3   OH2 4817   0.265   5.314   2.135  0.4588  0.8565 -0.6474
 1618TIP3    H1 4818   0.280   5.385   2.073 -1.1384  1.6953 -0.1365
 1618TIP3    H2 4819   0.251   5.237   2.080 -0.0142  1.3959 -1.2997
 1619TIP3   OH2 4820   4.417   2.150   1.440  1.0758 -0.1088  0.2335
 1619TIP3    H1 4821   4.503   2.178   1.469  1.2490  0.4113 -0.7341
 1619TIP3    H2 4822   4.409   2.060   1.470  2.3915 -0.5184 -0.5935
 1620TIP3   OH2 4823   1.298   3.278   0.912 -0.4274  0.3605  0.1907
 1620TIP3    H1 4824   1.380   3.230   0.900 -0.3075  0.7538 -0.6273
 1620TIP3    H2 4825   1.232   3.209   0.924  0.1741  0.0530  2.0575
 1621TIP3   OH2 4826   4.186   0.327   3.850 -0.1932  0.3304 -0.3709
 1621TIP3    H1 4827   4.189   0.258   3.784  0.0336  0.1549 -0.1778
 1621TIP3    H2 4828   4.230   0.289   3.926 -0.3514  0.5721 -0.1570
 1622TIP3   OH2 4829   4.716   0.291   3.906  0.3036 -0.1186  0.3197
 1622TIP3    H1 4830   4.797   0.290   3.855  1.1639  0.3373  1.6190
 1622TIP3    H2 4831   4.727   0.219   3.968 -0.1634  0.1374  0.6960
 1623TIP3   OH2 4832   1.623   4.015   3.583  0.0603 -0.2472 -0.2146
 1623TIP3    H1 4833   1.689   4.056   3.527  0.5842  0.2051  0.7217
 1623TIP3    H2 4834   1.584   3.948   3.527  0.4826  0.2710 -1.1656
 1624TIP3   OH2 4835   3.137   2.241   3.531 -0.3519 -0.4102  0.8299
 1624TIP3    H1 4836   3.152   2.297   3.455 -1.2360  1.9732  2.2944
 1624TIP3    H2 4837   3.224   2.215   3.560  0.0105 -3.5788 -2.3655
 1625TIP3   OH2 4838   3.930   0.259   0.206 -0.0232 -0.3229  0.4190
 1625TIP3    H1 4839   3.927   0.171   0.169  1.2604 -0.1584 -0.1279
 1625TIP3    H2 4840   3.857   0.306   0.165  1.3158 -0.1653 -1.8972
 1626TIP3   OH2 4841   1.039   0.880   4.929 -0.0114  0.0003  0.2319
 1626TIP3    H1 4842   1.001   0.797   4.900  0.1871  0.3846 -1.1943
 1626TIP3    H2 4843   1.131   0.860   4.944  0.2473  0.1508 -1.0369
 1627TIP3   OH2 4844   1.449   3.796   3.080 -0.0612  0.0211 -0.1386
 1627TIP3    H1 4845   1.392   3.764   3.149 -0.5789 -0.7714 -0.9161
 1627TIP3    H2 4846   1.494   3.871   3.119 -1.7614  0.7903  0.4392
 1628TIP3   OH2 4847   2.385   5.803   2.050  0.1581 -0.2192  0.2270
 1628TIP3    H1 4848   2.303   5.766   2.016  0.4861 -0.7492 -0.0112
 1628TIP3    H2 4849   2.368   5.821   2.142 -0.2337 -0.3048  0.1712
 1629TIP3   OH2 4850   1.000   4.512   2.019  0.0114  0.2856  0.1748
 1629TIP3    H1 4851   0.985   4.523   2.113 -0.7641 -0.9050  0.2136
 1629TIP3    H2 4852   0.912   4.511   1.981  0.2874 -0.0556 -0.4684
 1630TIP3   OH2 4853   5.799   4.986   5.775 -0.0946  0.3071  0.4038
 1630TIP3    H1 4854   5.847   5.057   5.818  0.8208  1.1587 -1.8636
 1630TIP3    H2 4855   5.732   5.031   5.724  1.6971 -0.1584 -2.6067
 1631TIP3   OH2 4856   6.602   1.203   3.548 -0.1456 -0.1169 -0.3504
 1631TIP3    H1 4857   6.697   1.212   3.543 -0.1071 -0.0759  0.3939
 1631TIP3    H2 4858   6.572   1.217   3.458  0.4308  1.2487 -0.3544
 1632TIP3   OH2 4859   5.198   3.870   1.994  0.1649  0.1078  0.7678
 1632TIP3    H1 4860   5.122   3.837   2.042 -0.0095  0.3101  0.6381
 1632TIP3    H2 4861   5.160   3.917   1.919  0.4432 -1.2695 -0.2842
 1633TIP3   OH2 4862   3.401   5.674   4.663  0.2206 -0.2311 -0.5864
 1633TIP3    H1 4863   3.336   5.668   4.733  1.1491  1.4755  0.4958
 1633TIP3    H2 4864   3.485   5.686   4.709  0.8092  1.2949 -1.9790
 1634TIP3   OH2 4865   5.107   5.179   0.015 -0.4112 -0.2464 -0.1118
 1634TIP3    H1 4866   5.132   5.136  -0.067 -1.0830 -0.1948 -0.3502
 1634TIP3    H2 4867   5.048   5.117   0.057 -1.1893  0.3245 -0.3399
 1635TIP3   OH2 4868   0.786   1.636   0.392  0.6773 -0.6730 -0.1981
 1635TIP3    H1 4869   0.752   1.547   0.385 -0.2337 -0.3733  0.3317
 1635TIP3    H2 4870   0.739   1.674   0.466  0.2517  0.5987 -1.0876
 1636TIP3   OH2 4871   3.551   5.384   1.239  0.2602 -0.7041 -0.8142
 1636TIP3    H1 4872   3.559   5.294   1.271  1.7013  0.2375  1.8268
 1636TIP3    H2 4873   3.642   5.412   1.226 -0.1133  0.6826 -0.5736
 1637TIP3   OH2 4874   3.211   5.983   0.543  0.0248  0.0877  0.3109
 1637TIP3    H1 4875   3.247   5.944   0.464  2.1559  0.6297  0.9506
 1637TIP3    H2 4876   3.235   5.923   0.613 -2.6840 -0.9025  0.5294
 1638TIP3   OH2 4877   4.135   3.818   1.415 -1.3187 -1.1962 -0.4485
 1638TIP3    H1 4878   4.169   3.876   1.346 -1.4939  0.2394  0.6139
 1638TIP3    H2 4879   4.178   3.734   1.399  0.4128 -0.2635 -0.9366
 1639TIP3   OH2 4880   5.617   6.616   0.606 -0.3858  0.2327  0.0270
 1639TIP3    H1 4881   5.627   6.659   0.521 -0.5792 -0.3769 -0.3127
 1639TIP3    H2 4882   5.594   6.525   0.584 -1.7254  0.3733  0.7321
 1640TIP3   OH2 4883   5.366   0.377   5.088  0.2698  0.2770  0.1345
 1640TIP3    H1 4884   5.349   0.352   4.997 -1.4162  0.6601  0.3104
 1640TIP3    H2 4885   5.460   0.394   5.091  0.3101  0.5499 -1.6182
 1641TIP3   OH2 4886   1.309   5.281   1.860 -0.1364  0.9796  1.0749
 1641TIP3    H1 4887   1.286   5.373   1.872  0.7948  1.7655 -2.2189
 1641TIP3    H2 4888   1.302   5.266   1.766 -0.5256 -2.4566  1.4950
 1642TIP3   OH2 4889   1.767   5.689   2.469 -0.1327  0.2574 -0.0024
 1642TIP3    H1 4890   1.764   5.735   2.385 -0.7516 -0.1566 -0.2244
 1642TIP3    H2 4891   1.704   5.736   2.524  1.1305  1.2505  0.6327
 1643TIP3   OH2 4892   4.154   0.834   3.627 -0.6691  0.2288  0.0112
 1643TIP3    H1 4893   4.088   0.778   3.585  0.8938 -2.2233  0.6178
 1643TIP3    H2 4894   4.238   0.800   3.594  0.3753  1.7633  0.9874
 1644TIP3   OH2 4895   2.312   0.366   4.084  0.0950 -0.3219  0.0776
 1644TIP3    H1 4896   2.391   0.400   4.043  0.6945 -1.0992  0.5623
 1644TIP3    H2 4897   2.280   0.299   4.024  1.0563 -1.5651  0.9185
 1645TIP3   OH2 4898   1.757   4.271   5.796 -0.1854  0.3770 -0.8684
 1645TIP3    H1 4899   1.720   4.342   5.848 -0.9735  1.0585 -2.2960
 1645TIP3    H2 4900   1.843   4.304   5.769 -0.2184  0.4606 -0.8725
 1646TIP3   OH2 4901   7.009   5.702   3.986 -0.0473  0.6916  0.1099
 1646TIP3    H1 4902   7.044   5.769   4.046  1.9755 -0.8467  0.7639
 1646TIP3    H2 4903   6.972   5.635   4.044  0.7642 -0.2011 -0.3743
 1647TIP3   OH2 4904   1.888   4.055   4.092 -0.2139 -0.4762  0.3437
 1647TIP3    H1 4905   1.955   4.105   4.140  0.3193 -1.6501  0.8869
 1647TIP3    H2 4906   1.878   3.975   4.144 -1.6457 -0.5621 -0.0445
 1648TIP3   OH2 4907   6.251   6.244   1.496  0.2707 -1.2681 -0.1951
 1648TIP3    H1 4908   6.213   6.236   1.584 -0.9732  1.5298 -0.3907
 1648TIP3    H2 4909   6.192   6.303   1.450  2.2105 -0.7594 -2.1563
 1649TIP3   OH2 4910   3.078   0.513   0.511 -0.2526  0.2139  0.3413
 1649TIP3    H1 4911   2.984   0.528   0.501 -0.0857  0.4942 -0.9626
 1649TIP3    H2 4912   3.109   0.587   0.564 -0.9018 -0.3798  1.5848
 1650TIP3   OH2 4913   2.772   5.515   3.243  0.5183  0.2185 -0.2977
 1650TIP3    H1 4914   2.739   5.574   3.311  0.0010  0.9174 -1.1384
 1650TIP3    H2 4915   2.704   5.448   3.234 -0.1072  0.9534 -1.1478
 1651TIP3   OH2 4916   4.363   3.262   3.048 -0.3362  0.0332  0.7564
 1651TIP3    H1 4917   4.302   3.331   3.022 -0.5168 -0.8111 -1.2662
 1651TIP3    H2 4918   4.434   3.268   2.984  1.1760  0.2568  2.3763
 1652TIP3   OH2 4919   0.462   2.147   3.414  0.4143  0.2051  0.0805
 1652TIP3    H1 4920   0.468   2.109   3.501 -2.2521  2.4817  1.4126
 1652TIP3    H2 4921   0.391   2.098   3.371  1.4417 -0.6342 -0.7061
 1653TIP3   OH2 4922   1.800   5.022   3.679 -0.0934 -0.3406 -0.2580
 1653TIP3    H1 4923   1.815   4.992   3.769  3.2303 -3.1086 -1.5176
 1653TIP3    H2 4924   1.763   4.946   3.634 -0.3740  0.5386 -1.5753
 1654TIP3   OH2 4925   5.268   0.484   4.181  0.1813 -0.4552 -0.6166
 1654TIP3    H1 4926   5.349   0.492   4.131  0.1028 -0.3345 -0.7242
 1654TIP3    H2 4927   5.203   0.454   4.118 -0.4206  1.6844 -1.1011
 1655TIP3   OH2 4928   4.873   3.689   2.010 -0.1150  0.0740  0.0820
 1655TIP3    H1 4929   4.822   3.629   2.065 -0.4085  0.1122 -0.1455
 1655TIP3    H2 4930   4.896   3.762   2.068 -1.7406  0.8707 -0.2293
 1656TIP3   OH2 4931   0.267   0.880   3.278 -0.9604  0.2968  0.3608
 1656TIP3    H1 4932   0.242   0.881   3.186  0.5871 -0.1153 -0.1019
 1656TIP3    H2 4933   0.283   0.972   3.300 -1.3383  0.3953  0.2285
 1657TIP3   OH2 4934   1.190   5.769   2.616  0.2556 -0.0196 -0.3575
 1657TIP3    H1 4935   1.271   5.815   2.593  0.8341 -0.2820  1.0221
 1657TIP3    H2 4936   1.150   5.825   2.683 -1.2337  0.6019 -1.7177
 1658TIP3   OH2 4937   4.603   0.587   4.489 -0.4481  0.3104 -0.5870
 1658TIP3    H1 4938   4.656   0.638   4.428 -1.5562  3.6361  0.9501
 1658TIP3    H2 4939   4.666   0.537   4.541  0.8856  1.4146 -1.0935
 1659TIP3   OH2 4940   1.376   0.984   0.071 -0.0977  0.0260  0.2380
 1659TIP3    H1 4941   1.380   1.072   0.032 -0.1481  0.1135  0.4279
 1659TIP3    H2 4942   1.445   0.985   0.137 -0.6359  0.2042  0.8094
 1660TIP3   OH2 4943   0.462   1.264   1.721  0.0770  0.6174  0.1970
 1660TIP3    H1 4944   0.415   1.246   1.639 -0.6364  0.1701  0.6980
 1660TIP3    H2 4945   0.459   1.359   1.730  0.5002  0.7095 -0.4864
 1661TIP3   OH2 4946   6.937   3.829   3.767  0.2259 -0.6628  0.7600
 1661TIP3    H1 4947   6.897   3.745   3.745  1.2653 -0.8408 -0.5528
 1661TIP3    H2 4948   6.877   3.868   3.831 -1.7902 -1.1350 -0.7321
 1662TIP3   OH2 4949   3.579   5.011   3.190  0.6332  0.3943  0.7063
 1662TIP3    H1 4950   3.546   5.066   3.120  0.8191  0.8949  1.0049
 1662TIP3    H2 4951   3.541   5.048   3.270  0.7651  0.0922  0.9130
 1663TIP3   OH2 4952   5.662   4.183   5.055  0.2085 -0.8610 -0.1421
 1663TIP3    H1 4953   5.601   4.257   5.055  0.5308 -0.5513  1.5777
 1663TIP3    H2 4954   5.703   4.186   4.968 -1.9076 -0.8523 -1.2060
 1664TIP3   OH2 4955   1.396   0.230   0.088  0.3318  0.1165 -0.0686
 1664TIP3    H1 4956   1.352   0.218   0.004  0.4553  1.2292 -0.3049
 1664TIP3    H2 4957   1.466   0.292   0.069  0.6953 -0.0328  0.7553
 1665TIP3   OH2 4958   2.430   4.522   1.547 -0.0771 -0.1246 -0.2271
 1665TIP3    H1 4959   2.405   4.436   1.513 -0.0429 -0.5976  0.9173
 1665TIP3    H2 4960   2.526   4.518   1.556 -0.0017  0.2674 -0.7702
 1666TIP3   OH2 4961   2.401   0.781   1.032  0.2365 -0.0384  0.1862
 1666TIP3    H1 4962   2.485   0.798   0.989 -0.1996 -0.6690 -0.9543
 1666TIP3    H2 4963   2.387   0.857   1.088  1.0929  0.5570 -0.3806
 1667TIP3   OH2 4964   1.232   4.944   5.105 -0.5856  0.0150  0.2008
 1667TIP3    H1 4965   1.168   4.938   5.175  0.9637  1.9170  1.9191
 1667TIP3    H2 4966   1.206   5.023   5.056  1.5102  2.1767  2.2753
 1668TIP3   OH2 4967   3.886   4.977   2.128  0.3067  0.1806 -0.4464
 1668TIP3    H1 4968   3.974   4.985   2.166 -0.0103  1.8076  0.0223
 1668TIP3    H2 4969   3.836   5.047   2.169 -0.5046  0.9752 -2.6338
 1669TIP3   OH2 4970   4.547   2.728   0.855  0.0186  0.7561 -0.1356
 1669TIP3    H1 4971   4.474   2.790   0.850 -1.0201 -0.3770  0.2009
 1669TIP3    H2 4972   4.607   2.754   0.785 -0.7281  1.7028 -0.4422
 1670TIP3   OH2 4973   6.189   0.301   4.411  0.5973  0.2089  0.1871
 1670TIP3    H1 4974   6.134   0.295   4.333  0.4436 -2.4372  0.4114
 1670TIP3    H2 4975   6.130   0.278   4.484  1.3941 -0.1568  0.7330
 1671TIP3   OH2 4976   4.010   0.680   0.927 -0.2264  0.3157 -0.3778
 1671TIP3    H1 4977   4.037   0.643   1.011  0.0061 -1.5301 -1.1970
 1671TIP3    H2 4978   4.054   0.764   0.921  0.9662 -0.2044  0.7037
 1672TIP3   OH2 4979   3.321   5.289   4.501 -0.2911  0.1293  0.1880
 1672TIP3    H1 4980   3.337   5.207   4.455  0.5198  0.5177 -0.2412
 1672TIP3    H2 4981   3.407   5.331   4.506 -0.9448  1.6886 -0.9976
 1673TIP3   OH2 4982   2.711   5.923  -0.016 -0.5780  0.2665  0.4990
 1673TIP3    H1 4983   2.723   5.937   0.078  0.0255  2.0196  0.2059
 1673TIP3    H2 4984   2.756   5.997  -0.057 -1.8486  0.1906 -1.1268
 1674TIP3   OH2 4985   3.348   5.715   3.592  0.0324 -0.4050  0.0640
 1674TIP3    H1 4986   3.442   5.728   3.600 -0.1463  0.7600  0.3738
 1674TIP3    H2 4987   3.318   5.698   3.681 -0.0823 -0.6101 -0.0120
 1675TIP3   OH2 4988   1.882   3.231   2.759  0.5398 -0.4057  0.1519
 1675TIP3    H1 4989   1.938   3.162   2.725  0.1479 -0.1248 -1.1450
 1675TIP3    H2 4990   1.814   3.242   2.692 -0.0441  0.4607  0.8564
 1676TIP3   OH2 4991   4.999   4.949   5.693  0.5417  0.3670 -0.1965
 1676TIP3    H1 4992   5.050   4.883   5.740 -0.7232  0.5698  1.5546
 1676TIP3    H2 4993   4.946   4.898   5.631  0.2991 -0.1836  0.4502
 1677TIP3   OH2 4994   5.349   6.073   1.170 -0.0592 -0.0725  0.2414
 1677TIP3    H1 4995   5.351   6.005   1.238 -0.1200 -0.5932 -0.2669
 1677TIP3    H2 4996   5.294   6.142   1.206  0.4950 -0.0276  1.0152
 1678TIP3   OH2 4997   4.593   5.092   1.325  0.1600 -0.0913 -0.4881
 1678TIP3    H1 4998   4.536   5.027   1.368 -0.1059  2.1362  2.8214
 1678TIP3    H2 4999   4.544   5.117   1.246 -2.5253  0.2045  1.1495
 1679TIP3   OH2 5000   7.015   0.488   2.379 -0.7394  0.2373  0.1714
 1679TIP3    H1 5001   7.031   0.400   2.345  2.8754  1.6118 -2.2725
 1679TIP3    H2 5002   7.045   0.485   2.469  1.4634 -0.6059 -0.5256
 1680TIP3   OH2 5003   3.812   3.303   4.887 -0.0204 -0.1488 -0.2066
 1680TIP3    H1 5004   3.820   3.397   4.898  1.6211 -0.3372  0.4884
 1680TIP3    H2 5005   3.863   3.266   4.959 -1.1545 -1.5822 -0.0882
 1681TIP3   OH2 5006   5.629   6.454   0.827  0.9412 -0.2448 -0.2064
 1681TIP3    H1 5007   5.702   6.497   0.783  0.9733 -0.8396 -0.7457
 1681TIP3    H2 5008   5.550   6.492   0.787  0.9223  0.8813  0.8348
 1682TIP3   OH2 5009   2.192   1.631   4.120  0.1526 -0.1169  0.0522
 1682TIP3    H1 5010   2.176   1.543   4.153 -0.9110 -0.1313 -0.4613
 1682TIP3    H2 5011   2.287   1.641   4.123  0.4805 -2.0831 -1.9198
 1683TIP3   OH2 5012   2.832   3.703   3.449 -0.2003 -0.0783  0.0539
 1683TIP3    H1 5013   2.900   3.703   3.382 -0.8518 -3.1380 -0.7919
 1683TIP3    H2 5014   2.874   3.740   3.526  2.3674 -1.5300 -0.5274
 1684TIP3   OH2 5015   5.656   4.474   0.742 -0.4244 -0.6768 -0.0453
 1684TIP3    H1 5016   5.666   4.530   0.665  1.6001  0.1262  0.7515
 1684TIP3    H2 5017   5.571   4.499   0.778 -1.8547 -1.6899 -2.4217
 1685TIP3   OH2 5018   5.776   5.734   5.523  0.3476  0.1160  0.4955
 1685TIP3    H1 5019   5.802   5.826   5.518  0.6000  0.0214 -0.0639
 1685TIP3    H2 5020   5.703   5.727   5.461  0.5458 -0.1254  0.2824
 1686TIP3   OH2 5021   7.206   2.052   3.913 -0.2918  0.5701  0.4446
 1686TIP3    H1 5022   7.174   1.966   3.941  0.5256 -0.5851 -1.9032
 1686TIP3    H2 5023   7.237   2.093   3.994 -1.1796 -1.1225  1.7092
 1687TIP3   OH2 5024   0.477   3.414   0.552 -0.3507  0.0776  0.2471
 1687TIP3    H1 5025   0.483   3.498   0.507 -1.6037  0.3118  0.4827
 1687TIP3    H2 5026   0.484   3.435   0.645 -2.7720  0.2390  0.4732
 1688TIP3   OH2 5027   6.887   4.068   0.545 -0.0621 -0.0867  0.1491
 1688TIP3    H1 5028   6.886   3.974   0.529 -2.6801 -0.2567  0.7587
 1688TIP3    H2 5029   6.932   4.105   0.469  0.8690 -1.7999 -0.1829
 1689TIP3   OH2 5030   3.362   4.688   4.662  0.0645 -0.2156 -0.0420
 1689TIP3    H1 5031   3.342   4.650   4.747 -0.8895  0.9937  0.3039
 1689TIP3    H2 5032   3.346   4.782   4.673  3.3619  0.5372 -0.5415
 1690TIP3   OH2 5033   0.587   0.931   3.399  0.2318 -0.0878 -0.2159
 1690TIP3    H1 5034   0.518   0.867   3.382  0.6575 -0.7464  0.4325
 1690TIP3    H2 5035   0.541   1.008   3.432 -0.1836 -0.5810  0.3729
 1691TIP3   OH2 5036   4.957   4.163   1.535  0.3334 -0.5436  0.8126
 1691TIP3    H1 5037   5.007   4.206   1.605  1.3505  0.2851 -0.3857
 1691TIP3    H2 5038   4.866   4.185   1.554  0.7268  1.0839  0.9666
 1692TIP3   OH2 5039   6.608   3.800   3.000  0.2060 -0.5821 -0.0750
 1692TIP3    H1 5040   6.677   3.736   2.984 -0.1013 -1.5170  2.0137
 1692TIP3    H2 5041   6.526   3.750   2.991 -0.0441 -0.4500  1.2868
 1693TIP3   OH2 5042   1.270   5.626   0.886  0.0542 -0.2004  0.1298
 1693TIP3    H1 5043   1.323   5.690   0.934 -1.1631  1.2196 -0.3672
 1693TIP3    H2 5044   1.180   5.642   0.914 -0.6248  0.2536 -2.1250
 1694TIP3   OH2 5045   3.111   1.084   0.762  0.0965  0.0515  0.4135
 1694TIP3    H1 5046   3.084   1.173   0.737  0.4682  0.5896  1.8539
 1694TIP3    H2 5047   3.155   1.050   0.684 -0.1076  1.0953 -0.1811
 1695TIP3   OH2 5048   0.792   4.473   4.464 -0.6982 -0.0936 -0.0269
 1695TIP3    H1 5049   0.863   4.471   4.400 -2.2385 -0.4256 -1.7831
 1695TIP3    H2 5050   0.720   4.425   4.423 -1.9827  0.2441  1.6869
 1696TIP3   OH2 5051   1.255   2.719   5.023  0.3812 -0.2773  0.0374
 1696TIP3    H1 5052   1.330   2.769   4.993 -0.0338  1.2953  1.4577
 1696TIP3    H2 5053   1.204   2.781   5.076 -1.9821 -1.2316 -0.9491
 1697TIP3   OH2 5054   5.264   5.127   0.465 -0.2335 -0.1709 -0.2953
 1697TIP3    H1 5055   5.253   5.151   0.373  0.9236  1.7422  0.0219
 1697TIP3    H2 5056   5.323   5.052   0.463 -1.0152 -0.7932 -1.1366
 1698TIP3   OH2 5057   0.391   3.921   5.679  0.3989  0.3127  0.2356
 1698TIP3    H1 5058   0.348   3.883   5.603  1.2349 -1.7072  0.6829
 1698TIP3    H2 5059   0.413   4.010   5.653 -0.5979  0.1322 -1.3544
 1699TIP3   OH2 5060   0.014   3.889   0.176  0.3627  0.5139  0.2842
 1699TIP3    H1 5061   0.057   3.952   0.234  0.0149  0.2868  0.7883
 1699TIP3    H2 5062  -0.013   3.941   0.100  1.0955  0.7507  0.1753
 1700TIP3   OH2 5063   1.756   4.266   3.697 -0.1405  0.0568  0.3142
 1700TIP3    H1 5064   1.848   4.291   3.699 -0.0886 -0.0698 -0.2994
 1700TIP3    H2 5065   1.741   4.238   3.607 -0.8759  0.4361  0.3151
 1701TIP3   OH2 5066   5.845   6.578   0.269 -0.2313 -0.3913 -0.0484
 1701TIP3    H1 5067   5.912   6.587   0.337  0.8199 -2.1739 -0.7675
 1701TIP3    H2 5068   5.827   6.484   0.266 -1.7965 -0.1030 -0.8198
 1702TIP3   OH2 5069   4.645   5.698   1.538 -0.1002  0.4268 -0.1732
 1702TIP3    H1 5070   4.636   5.608   1.507 -1.0000  0.0599  1.1181
 1702TIP3    H2 5071   4.732   5.725   1.507  0.1812 -0.8721 -0.5659
 1703TIP3   OH2 5072   7.020   6.025   4.461  0.5627  0.8541 -0.1009
 1703TIP3    H1 5073   7.105   6.002   4.499 -1.0995 -1.9559  2.3703
 1703TIP3    H2 5074   6.987   6.095   4.516 -0.1046 -0.4329  1.2105
 1704TIP3   OH2 5075   1.038   4.699   4.916 -0.6837  0.6065 -0.2187
 1704TIP3    H1 5076   1.041   4.675   4.823 -1.3318 -1.8077  0.3039
 1704TIP3    H2 5077   1.080   4.625   4.960  0.4858  2.1405  1.3836
 1705TIP3   OH2 5078   1.661   1.402   4.395 -0.5750 -0.3613 -0.1422
 1705TIP3    H1 5079   1.625   1.353   4.469  1.0135  1.8701  2.2612
 1705TIP3    H2 5080   1.750   1.369   4.386 -0.6909 -0.4658 -0.9482
 1706TIP3   OH2 5081   0.551   5.632   1.088  0.0706  0.0843 -0.2903
 1706TIP3    H1 5082   0.565   5.572   1.162 -0.3088  1.4355  0.9356
 1706TIP3    H2 5083   0.496   5.583   1.027  0.7472 -1.2257  0.1055
 1707TIP3   OH2 5084   6.841   1.393   1.387 -0.0858  0.3495 -0.2351
 1707TIP3    H1 5085   6.805   1.481   1.377 -0.6629  0.3546  1.5206
 1707TIP3    H2 5086   6.910   1.402   1.453  0.5871 -0.3252 -0.8351
 1708TIP3   OH2 5087   4.979   5.936   2.768 -0.0881  0.3216  0.8122
 1708TIP3    H1 5088   4.971   5.959   2.860 -1.3303  1.2310  0.5123
 1708TIP3    H2 5089   4.907   5.982   2.726  0.0923 -0.5659 -0.5313
 1709TIP3   OH2 5090   5.006   1.358   4.042 -0.4626 -0.2140 -0.4778
 1709TIP3    H1 5091   4.924   1.353   3.992 -0.5942 -1.3246 -0.1624
 1709TIP3    H2 5092   5.074   1.361   3.975 -0.6438 -1.5581 -0.7493
 1710TIP3   OH2 5093   2.838   1.902   4.710 -0.1444 -0.1875  0.1942
 1710TIP3    H1 5094   2.922   1.905   4.755 -1.2269 -0.6053  2.4505
 1710TIP3    H2 5095   2.822   1.991   4.681  1.2302 -0.1902 -0.6477
 1711TIP3   OH2 5096   5.312   2.742   3.180  0.6669 -0.0720  0.1114
 1711TIP3    H1 5097   5.236   2.771   3.230  1.2838  0.8460  0.5549
 1711TIP3    H2 5098   5.287   2.657   3.144  0.5033 -1.1777  2.6823
 1712TIP3   OH2 5099   6.217   6.443   2.364  0.3399  0.1162  0.2473
 1712TIP3    H1 5100   6.149   6.383   2.332 -0.1623  0.6839  0.2217
 1712TIP3    H2 5101   6.176   6.487   2.439 -0.0299  1.7996 -0.8750
 1713TIP3   OH2 5102   3.222   6.753   0.034  0.3062  0.4043 -0.0140
 1713TIP3    H1 5103   3.186   6.751  -0.055  1.5158  0.7237 -0.5287
 1713TIP3    H2 5104   3.171   6.687   0.082 -0.7786  0.6607 -0.7667
 1714TIP3   OH2 5105   1.089   4.028   5.180  0.1422 -0.2811 -0.2726
 1714TIP3    H1 5106   1.179   3.996   5.175 -0.2439 -1.3844 -0.6455
 1714TIP3    H2 5107   1.053   3.985   5.258  0.4563  1.6225  0.9896
 1715TIP3   OH2 5108   3.180   3.576   0.267 -0.1436 -0.7061 -0.3134
 1715TIP3    H1 5109   3.241   3.509   0.297 -0.4354  0.4952  3.4588
 1715TIP3    H2 5110   3.094   3.534   0.269 -0.1008 -0.7725  0.1152
 1716TIP3   OH2 5111   4.229   0.850   1.270  0.4260 -0.0815 -0.4646
 1716TIP3    H1 5112   4.197   0.842   1.360  0.2977 -0.5481 -0.5508
 1716TIP3    H2 5113   4.324   0.848   1.278  0.4370  0.7085 -0.2645
 1717TIP3   OH2 5114   0.392   4.340   5.285  0.2602  0.2432 -0.1451
 1717TIP3    H1 5115   0.364   4.286   5.359  0.1348  1.1595  0.4957
 1717TIP3    H2 5116   0.472   4.382   5.316  0.5392  0.1742 -0.7580
 1718TIP3   OH2 5117   4.073   0.184   1.024  0.2791 -0.2848  0.1236
 1718TIP3    H1 5118   4.015   0.253   0.992 -0.4500 -0.4377  1.0684
 1718TIP3    H2 5119   4.157   0.203   0.984  0.3019  1.6126  0.9498
 1719TIP3   OH2 5120   4.837   1.493   4.762 -0.1316  0.2856 -0.5863
 1719TIP3    H1 5121   4.800   1.578   4.783 -0.8802 -0.2229  0.2439
 1719TIP3    H2 5122   4.764   1.444   4.724 -0.3429 -0.7082  1.0061
 1720TIP3   OH2 5123   2.779   3.923   1.508 -0.4487 -0.4177 -0.4188
 1720TIP3    H1 5124   2.728   3.842   1.504  0.3259 -0.9238 -0.3302
 1720TIP3    H2 5125   2.826   3.917   1.591 -0.6931  0.3196 -0.2209
 1721TIP3   OH2 5126   5.885   6.029   2.978  0.0687  0.4816 -0.2697
 1721TIP3    H1 5127   5.890   6.044   3.073  0.2058 -0.5719 -0.0893
 1721TIP3    H2 5128   5.798   6.060   2.953  0.1001  0.9299  0.1718
 1722TIP3   OH2 5129   0.154   3.578   5.457 -0.0447 -0.2635  0.2563
 1722TIP3    H1 5130   0.248   3.563   5.448 -0.1832 -0.7947 -0.3609
 1722TIP3    H2 5131   0.127   3.608   5.370 -0.6264 -1.1246  0.1321
 1723TIP3   OH2 5132   0.274   5.790   5.450 -0.3965 -0.0582 -0.1393
 1723TIP3    H1 5133   0.343   5.811   5.386  0.7095 -1.3137  0.5915
 1723TIP3    H2 5134   0.282   5.696   5.463 -1.4532 -0.0189  0.8961
 1724TIP3   OH2 5135   6.273   2.623   0.186  0.4319  0.2897 -0.9232
 1724TIP3    H1 5136   6.214   2.554   0.217  1.7837 -0.9078 -0.9384
 1724TIP3    H2 5137   6.322   2.649   0.264  1.1306 -0.0098 -1.2506
 1725TIP3   OH2 5138   0.244   4.739   4.974 -0.4511  0.0584 -0.2792
 1725TIP3    H1 5139   0.195   4.793   5.037  0.1968  0.9672 -0.5285
 1725TIP3    H2 5140   0.325   4.717   5.020 -0.4347 -0.1605 -0.4130
 1726TIP3   OH2 5141   0.248   5.349   5.142 -0.6773 -0.3979  0.2282
 1726TIP3    H1 5142   0.331   5.340   5.188  0.0052 -0.7753 -1.0408
 1726TIP3    H2 5143   0.190   5.285   5.184  0.0750 -1.0791  0.2388
 1727TIP3   OH2 5144   3.389   2.317   3.912 -0.6940  0.1524  0.4102
 1727TIP3    H1 5145   3.388   2.256   3.838 -1.1922 -0.5253  0.9540
 1727TIP3    H2 5146   3.459   2.284   3.969 -1.5262 -0.4320  1.1139
 1728TIP3   OH2 5147   4.786   6.532   3.247 -0.4393 -0.1849 -0.5463
 1728TIP3    H1 5148   4.721   6.581   3.298 -0.7752 -1.9798  0.8335
 1728TIP3    H2 5149   4.867   6.581   3.258 -0.2018 -1.1399  2.8317
 1729TIP3   OH2 5150   0.526   5.891   0.576  0.4207 -0.0514  0.1620
 1729TIP3    H1 5151   0.534   5.796   0.562  1.6719 -0.2077  1.7100
 1729TIP3    H2 5152   0.605   5.927   0.536  0.6189  0.1910  0.7696
 1730TIP3   OH2 5153   4.077   0.487   0.692  0.1590  0.5773 -0.0884
 1730TIP3    H1 5154   4.052   0.518   0.779 -0.5615 -2.2259  0.7909
 1730TIP3    H2 5155   4.149   0.427   0.707  0.9238  1.0417 -1.6207
 1731TIP3   OH2 5156   1.425   1.116   5.034 -0.3028 -0.2236 -0.8423
 1731TIP3    H1 5157   1.438   1.025   5.061 -0.4403  0.1250  0.4671
 1731TIP3    H2 5158   1.386   1.159   5.111 -1.2442  0.7014 -1.8051
 1732TIP3   OH2 5159   5.448   1.496   4.518 -0.6823 -0.4908  0.1280
 1732TIP3    H1 5160   5.495   1.495   4.435 -0.0028 -0.2885  0.5057
 1732TIP3    H2 5161   5.373   1.553   4.503  0.4577  1.0840  0.1932
 1733TIP3   OH2 5162   1.187   4.229   0.720 -0.2117 -0.5711  0.6054
 1733TIP3    H1 5163   1.272   4.240   0.762 -1.6019  1.2667  3.1953
 1733TIP3    H2 5164   1.185   4.137   0.694  2.7143 -0.5485 -0.0437
 1734TIP3   OH2 5165   5.989   3.546   5.852 -0.2298 -0.1641  0.2573
 1734TIP3    H1 5166   6.027   3.459   5.843  1.0900  0.4645 -0.5045
 1734TIP3    H2 5167   5.986   3.581   5.763  1.1278  1.3030  0.7402
 1735TIP3   OH2 5168   6.020   5.744   4.225  0.1002  0.1420 -0.1814
 1735TIP3    H1 5169   5.978   5.810   4.170 -0.7250  0.4639  0.8168
 1735TIP3    H2 5170   6.079   5.794   4.281 -0.2072 -0.0115  0.2815
 1736TIP3   OH2 5171   5.881   3.569   5.283 -0.3052 -0.4440  0.0806
 1736TIP3    H1 5172   5.818   3.585   5.212 -2.4487 -1.1391  1.6889
 1736TIP3    H2 5173   5.833   3.593   5.363  1.5539 -0.8908  1.3943
 1737TIP3   OH2 5174   2.479   0.779   0.711  0.0048  0.0570 -0.1974
 1737TIP3    H1 5175   2.465   0.687   0.689 -0.4268 -0.6320  2.6529
 1737TIP3    H2 5176   2.560   0.781   0.761 -0.9915  0.9012  1.4553
 1738TIP3   OH2 5177   5.744   5.149   1.363  0.1483 -0.2503  0.2654
 1738TIP3    H1 5178   5.835   5.168   1.342  0.1728 -1.1608 -0.5136
 1738TIP3    H2 5179   5.696   5.163   1.281  0.0236 -2.4315 -0.1042
 1739TIP3   OH2 5180   4.567   4.987   3.197 -0.3056 -0.1624 -0.1238
 1739TIP3    H1 5181   4.539   5.043   3.269 -1.2608 -0.3454 -0.3479
 1739TIP3    H2 5182   4.651   4.951   3.226 -0.5189  0.0293  0.7486
 1740TIP3   OH2 5183   3.394   2.027   0.412  0.0369 -0.3287 -1.1954
 1740TIP3    H1 5184   3.388   2.085   0.336  1.6040  0.8487 -0.4696
 1740TIP3    H2 5185   3.488   2.013   0.424 -0.1406 -0.0778  0.8029
 1741TIP3   OH2 5186   5.703   4.303   3.228 -0.2824  0.1518 -0.6965
 1741TIP3    H1 5187   5.713   4.394   3.201  0.8610  0.0517 -0.6611
 1741TIP3    H2 5188   5.664   4.308   3.315 -1.3471  0.5619 -1.1824
 1742TIP3   OH2 5189   3.820   2.981   0.892 -0.3247  0.3085  0.2927
 1742TIP3    H1 5190   3.828   2.935   0.976 -1.8682  1.1506  0.9331
 1742TIP3    H2 5191   3.910   3.008   0.871  0.3056 -1.2207  0.8943
 1743TIP3   OH2 5192   2.633   0.863   0.911 -0.4100  0.4973  0.9968
 1743TIP3    H1 5193   2.722   0.841   0.885 -0.2838  1.5969  0.4315
 1743TIP3    H2 5194   2.621   0.953   0.880 -2.3315 -0.2283 -0.5449
 1744TIP3   OH2 5195   2.078   1.719   0.739  0.1923 -0.0754  0.1518
 1744TIP3    H1 5196   2.145   1.680   0.682  1.5460 -2.2847  2.9385
 1744TIP3    H2 5197   1.995   1.690   0.702  0.8904  0.1686 -1.7080
 1745TIP3   OH2 5198   4.390   2.178   1.755  0.2676 -0.5827 -0.1939
 1745TIP3    H1 5199   4.387   2.148   1.664 -0.8756 -0.7971 -0.1049
 1745TIP3    H2 5200   4.482   2.172   1.779  0.6440 -0.1859 -1.4430
 1746TIP3   OH2 5201   3.739   2.479   3.408 -0.1694 -0.1140 -0.1472
 1746TIP3    H1 5202   3.816   2.447   3.455 -0.6140  0.9096  1.3599
 1746TIP3    H2 5203   3.767   2.484   3.317  0.5620 -2.6562 -0.1284
 1747TIP3   OH2 5204   4.526   0.118   1.278 -0.0797 -0.3173  0.5493
 1747TIP3    H1 5205   4.474   0.181   1.328 -0.8899 -1.2052  0.8427
 1747TIP3    H2 5206   4.603   0.100   1.333  0.7226  1.2117 -0.0096
 1748TIP3   OH2 5207   2.749   2.317   4.133  0.6053 -0.3158  0.3702
 1748TIP3    H1 5208   2.825   2.369   4.157  0.6863  1.0700 -2.4701
 1748TIP3    H2 5209   2.780   2.227   4.131  1.4989 -0.0523  1.5808
 1749TIP3   OH2 5210   4.558   3.379   2.833  0.8898 -0.5875 -0.2328
 1749TIP3    H1 5211   4.543   3.459   2.782 -0.3891 -0.7114 -0.0999
 1749TIP3    H2 5212   4.544   3.308   2.770 -0.1298 -0.7309  0.1381
 1750TIP3   OH2 5213   2.319   2.956   0.983 -0.2809  0.3346 -0.3591
 1750TIP3    H1 5214   2.402   3.000   1.004  1.0621 -2.2427  0.1212
 1750TIP3    H2 5215   2.260   2.982   1.055  1.0461 -0.1123  0.9479
 1751TIP3   OH2 5216   7.089   2.002   5.786  0.4889  0.0646 -0.4059
 1751TIP3    H1 5217   7.001   1.965   5.784  0.6554 -0.5259  1.4307
 1751TIP3    H2 5218   7.118   1.998   5.695 -1.0567 -0.5022 -0.9150
 1752TIP3   OH2 5219   6.070   1.681   0.851 -0.0160  0.1466  0.4643
 1752TIP3    H1 5220   6.008   1.720   0.911 -0.8468  1.8254 -1.3577
 1752TIP3    H2 5221   6.150   1.733   0.861 -0.2635  0.6464 -0.0767
 1753TIP3   OH2 5222   3.910   3.697   1.497  0.4753  0.2050  0.1087
 1753TIP3    H1 5223   3.905   3.615   1.449  0.4442  0.6773 -0.7138
 1753TIP3    H2 5224   3.970   3.751   1.447 -1.1065  1.4423 -0.5533
 1754TIP3   OH2 5225   0.916   4.815   5.748 -0.1429 -0.3169  0.1910
 1754TIP3    H1 5226   0.924   4.775   5.835 -0.4437 -0.3045  0.2271
 1754TIP3    H2 5227   0.977   4.889   5.749  0.8859 -1.1471 -0.0972
 1755TIP3   OH2 5228   2.260   5.189   2.714  0.2113 -0.1453 -0.4507
 1755TIP3    H1 5229   2.317   5.237   2.774  0.8669  1.1590 -2.0409
 1755TIP3    H2 5230   2.303   5.105   2.702  0.9265  0.2049 -0.3611
 1756TIP3   OH2 5231   6.358   6.366   0.183 -0.1135  0.5322  0.1681
 1756TIP3    H1 5232   6.374   6.341   0.092 -1.2809 -1.2040  0.3953
 1756TIP3    H2 5233   6.440   6.345   0.228 -0.5153 -1.5397  0.0436
 1757TIP3   OH2 5234   6.037   6.672   5.209  0.2979  0.0770 -0.5783
 1757TIP3    H1 5235   6.123   6.713   5.214  0.4343 -0.3368  0.8870
 1757TIP3    H2 5236   6.054   6.578   5.202  0.0050 -0.1300  1.0150
 1758TIP3   OH2 5237   2.583   0.577   5.570 -0.2453 -0.5550  0.1539
 1758TIP3    H1 5238   2.530   0.583   5.649 -0.7992 -0.1870 -0.2310
 1758TIP3    H2 5239   2.611   0.486   5.565 -0.9231 -0.7749  0.3185
 1759TIP3   OH2 5240   1.448   2.072   1.549 -0.6266  0.3008 -0.3856
 1759TIP3    H1 5241   1.511   2.023   1.602 -1.1695  0.1030  0.0893
 1759TIP3    H2 5242   1.417   2.141   1.607 -0.3163  0.8445 -0.8582
 1760TIP3   OH2 5243   4.274   4.215   4.508  0.3786 -0.2854 -0.5855
 1760TIP3    H1 5244   4.271   4.139   4.450 -3.0069 -0.3928 -0.4582
 1760TIP3    H2 5245   4.231   4.285   4.459 -0.1289  0.3760  0.7564
 1761TIP3   OH2 5246   1.911   3.440   2.952  0.3643 -0.1788 -0.2931
 1761TIP3    H1 5247   1.837   3.409   3.005 -0.1767 -0.2229 -1.0587
 1761TIP3    H2 5248   1.911   3.383   2.875  1.3076 -0.2839 -0.2323
 1762TIP3   OH2 5249   4.958   1.830   4.422 -0.9332 -0.7696  0.7929
 1762TIP3    H1 5250   4.988   1.811   4.334  0.2267 -1.6587  1.3551
 1762TIP3    H2 5251   4.874   1.785   4.429 -0.8640 -0.9878  0.2668
 1763TIP3   OH2 5252   4.294   2.713   5.508  0.5697 -0.0336 -0.3450
 1763TIP3    H1 5253   4.226   2.778   5.526  0.3893 -0.5987  1.1927
 1763TIP3    H2 5254   4.245   2.631   5.497  0.9955 -0.5139  1.1591
 1764TIP3   OH2 5255   3.546   1.658   5.493  0.3595 -0.5308 -0.3352
 1764TIP3    H1 5256   3.632   1.680   5.457  0.1147 -0.0597 -0.6446
 1764TIP3    H2 5257   3.555   1.673   5.587  1.3791 -2.9560  0.0506
 1765TIP3   OH2 5258   6.850   4.067   0.024  0.0831 -0.2659  0.7702
 1765TIP3    H1 5259   6.871   3.987   0.071  1.4503 -0.0135  0.6151
 1765TIP3    H2 5260   6.792   4.115   0.083  0.4414 -0.7117  1.4897
 1766TIP3   OH2 5261   3.780   0.711   4.538 -0.1497  0.2295 -0.3964
 1766TIP3    H1 5262   3.734   0.660   4.606  1.0179 -0.9618 -0.4672
 1766TIP3    H2 5263   3.750   0.673   4.456  0.0618  0.2403 -0.4778
 1767TIP3   OH2 5264   2.399   0.632   1.661 -0.5799  0.3557 -0.4660
 1767TIP3    H1 5265   2.338   0.558   1.659 -0.8901  0.5735  0.4800
 1767TIP3    H2 5266   2.446   0.623   1.744 -0.5436  1.1557 -0.3883
 1768TIP3   OH2 5267   3.095   6.306   1.623 -0.0247  0.5400 -0.0105
 1768TIP3    H1 5268   3.025   6.243   1.607  0.3336  0.0997  0.1122
 1768TIP3    H2 5269   3.115   6.341   1.536  0.2416 -0.0339 -0.1897
 1769TIP3   OH2 5270   4.846   1.181   1.958 -0.0851 -0.2245  0.2121
 1769TIP3    H1 5271   4.910   1.209   1.892  0.9548 -1.6986  0.5385
 1769TIP3    H2 5272   4.898   1.170   2.038 -1.3115  1.4320  1.2924
 1770TIP3   OH2 5273   5.705   4.912   3.997 -0.0884  0.4606  0.1782
 1770TIP3    H1 5274   5.745   4.994   4.027  0.9121  0.6244 -1.5313
 1770TIP3    H2 5275   5.624   4.939   3.954  0.5643  0.6267 -0.9613
 1771TIP3   OH2 5276   6.627   4.268   2.714  0.2935 -0.1803  0.0762
 1771TIP3    H1 5277   6.713   4.250   2.752  0.0739 -0.6730  0.3573
 1771TIP3    H2 5278   6.632   4.359   2.684  0.6246  0.0678  0.8635
 1772TIP3   OH2 5279   6.358   0.133   3.477 -0.4573 -0.1381  0.5069
 1772TIP3    H1 5280   6.450   0.155   3.490 -0.1313 -1.6463  1.0313
 1772TIP3    H2 5281   6.320   0.211   3.437  1.6150 -0.3447 -2.2086
 1773TIP3   OH2 5282   3.744   0.077   1.177  0.1598 -0.2214 -1.3193
 1773TIP3    H1 5283   3.736   0.091   1.083  2.1606 -2.1440 -1.8566
 1773TIP3    H2 5284   3.819   0.131   1.203  1.1137 -1.5048 -1.3281
 1774TIP3   OH2 5285   5.862   4.143   0.735 -0.5370 -0.1942 -0.3669
 1774TIP3    H1 5286   5.776   4.139   0.693  0.0100  0.0183 -1.5649
 1774TIP3    H2 5287   5.920   4.098   0.674  0.5585  1.3860 -0.5714
 1775TIP3   OH2 5288   0.642   3.621   0.383 -0.2351  0.0652 -0.2429
 1775TIP3    H1 5289   0.685   3.540   0.354 -0.4015  0.0691 -0.5015
 1775TIP3    H2 5290   0.695   3.651   0.456  2.5810  2.1675 -2.8926
 1776TIP3   OH2 5291   2.995   0.375   4.228 -0.4445 -0.6745  0.1634
 1776TIP3    H1 5292   2.946   0.360   4.308  0.9098  0.1130  1.1885
 1776TIP3    H2 5293   3.086   0.385   4.257  0.0228  0.0133 -1.4188
 1777TIP3   OH2 5294   3.127   0.219   5.348 -0.4208  0.4865 -0.7657
 1777TIP3    H1 5295   3.180   0.299   5.341  0.3966 -0.0742 -1.1464
 1777TIP3    H2 5296   3.065   0.225   5.276 -0.0065  0.5262 -1.1257
 1778TIP3   OH2 5297   1.590   1.701   0.920  0.2145 -0.5363 -0.2578
 1778TIP3    H1 5298   1.500   1.674   0.899  0.7171 -1.1062 -1.7972
 1778TIP3    H2 5299   1.613   1.763   0.850  0.8051  0.1010  0.4901
 1779TIP3   OH2 5300   1.799   6.013   0.268  0.3022  0.6405  0.3133
 1779TIP3    H1 5301   1.717   5.964   0.260  1.5465 -1.5166 -0.0184
 1779TIP3    H2 5302   1.809   6.026   0.362  0.0645  0.0156  0.4359
 1780TIP3   OH2 5303   1.022   0.226   2.285 -0.2543 -0.1650 -0.1352
 1780TIP3    H1 5304   1.062   0.271   2.360  0.9687 -0.7045 -0.4369
 1780TIP3    H2 5305   1.096   0.205   2.228 -1.0086 -0.9975 -0.8302
 1781TIP3   OH2 5306   7.041   3.368   0.035 -0.2997 -0.4918 -0.0797
 1781TIP3    H1 5307   7.020   3.283   0.075  0.4982 -1.3998 -1.4881
 1781TIP3    H2 5308   7.037   3.351  -0.059 -1.5054  1.4129 -0.4193
 1782TIP3   OH2 5309   3.686   2.212   1.505 -0.1219 -0.2997 -0.3593
 1782TIP3    H1 5310   3.653   2.263   1.579  0.7017 -0.5355  0.1900
 1782TIP3    H2 5311   3.756   2.158   1.543 -0.5980 -1.4338 -1.0235
 1783TIP3   OH2 5312   4.557   3.466   1.052 -0.6085  0.5335 -0.4149
 1783TIP3    H1 5313   4.527   3.550   1.017 -2.0745  0.3720  0.3601
 1783TIP3    H2 5314   4.566   3.482   1.146  1.7584  0.5394 -0.5769
 1784TIP3   OH2 5315   0.317   4.719   0.505 -0.2247  0.1208  0.2136
 1784TIP3    H1 5316   0.363   4.783   0.451  0.9569 -1.1359 -0.3298
 1784TIP3    H2 5317   0.296   4.767   0.586  0.9045  1.1059 -0.0494
 1785TIP3   OH2 5318   4.367   4.050   0.981 -0.3480 -0.1345  0.0007
 1785TIP3    H1 5319   4.414   4.003   1.050 -0.8232 -2.3981 -1.1047
 1785TIP3    H2 5320   4.434   4.105   0.940  0.4957 -0.5726  0.7455
 1786TIP3   OH2 5321   0.614   5.224   1.011  0.0915  0.0297  0.6557
 1786TIP3    H1 5322   0.654   5.196   0.928 -2.7956  0.2276 -0.9393
 1786TIP3    H2 5323   0.590   5.143   1.054 -2.5495 -0.1920 -0.9905
 1787TIP3   OH2 5324   1.434   3.073   1.342 -0.1613  0.0203  0.2578
 1787TIP3    H1 5325   1.413   3.068   1.436  0.1624 -0.4352  0.3081
 1787TIP3    H2 5326   1.460   3.163   1.328  0.7271 -0.1378  0.8105
 1788TIP3   OH2 5327   5.902   4.830   4.387  0.3349  0.1489 -0.2716
 1788TIP3    H1 5328   5.990   4.820   4.349 -0.1524  0.2899 -1.4812
 1788TIP3    H2 5329   5.849   4.864   4.315 -0.5967  0.5854  0.6026
 1789TIP3   OH2 5330   6.062   0.484   1.011 -0.2626 -0.5475 -0.3416
 1789TIP3    H1 5331   5.979   0.527   1.031  0.1604 -0.2940  0.9901
 1789TIP3    H2 5332   6.096   0.457   1.096 -0.1349 -2.8497 -1.0503
 1790TIP3   OH2 5333   3.061   6.430   1.365 -0.5247  0.5323  0.1102
 1790TIP3    H1 5334   2.980   6.482   1.366 -1.2191 -0.5087  0.2205
 1790TIP3    H2 5335   3.041   6.355   1.309  0.3455  0.2205  0.1998
 1791TIP3   OH2 5336   2.440   3.829   2.597 -0.1542  0.2473 -0.1436
 1791TIP3    H1 5337   2.376   3.760   2.574 -0.8226  0.7755  0.0942
 1791TIP3    H2 5338   2.412   3.858   2.684  0.1801  0.7588 -0.2098
 1792TIP3   OH2 5339   2.538   3.088   2.136 -0.1482  0.4751 -0.3491
 1792TIP3    H1 5340   2.491   3.031   2.197 -0.1865 -1.8962 -2.4113
 1792TIP3    H2 5341   2.630   3.080   2.162 -0.4225  2.0226  1.2751
 1793TIP3   OH2 5342   3.047   1.834   2.585 -0.7441  0.2860  0.1001
 1793TIP3    H1 5343   2.956   1.817   2.609 -0.7882 -1.3053 -1.0453
 1793TIP3    H2 5344   3.066   1.772   2.515  1.5093 -0.0298  0.8925
 1794TIP3   OH2 5345   0.797   4.143   3.000  0.3961  0.1864  0.4211
 1794TIP3    H1 5346   0.879   4.097   2.980  0.6350  1.1425 -1.0260
 1794TIP3    H2 5347   0.728   4.082   2.977  0.6872 -0.5377  1.4136
 1795TIP3   OH2 5348   2.425   4.417   0.041 -0.3213  0.0883 -0.6781
 1795TIP3    H1 5349   2.463   4.493  -0.003 -1.1188  0.4648 -0.7200
 1795TIP3    H2 5350   2.331   4.431   0.038 -0.5133 -1.1408 -1.1175
 1796TIP3   OH2 5351   1.692   3.972   0.992  0.1776  0.6848  0.1932
 1796TIP3    H1 5352   1.714   3.904   1.055 -0.4378  0.1875 -0.1106
 1796TIP3    H2 5353   1.661   4.045   1.046 -0.0488  0.3781  0.4877
 1797TIP3   OH2 5354   0.854   1.682   1.078 -0.4318 -0.6614  0.2881
 1797TIP3    H1 5355   0.808   1.753   1.123 -0.7617 -0.1785 -0.7792
 1797TIP3    H2 5356   0.794   1.655   1.008  1.0525  0.2706 -1.4116
 1798TIP3   OH2 5357   2.646   4.336   5.759 -0.5297  0.8909 -0.3919
 1798TIP3    H1 5358   2.685   4.249   5.747 -0.3263  0.6830  1.5032
 1798TIP3    H2 5359   2.703   4.395   5.709 -1.1478 -0.1169 -2.4273
 1799TIP3   OH2 5360   3.815   1.097   3.779  0.2319 -0.6023 -0.4686
 1799TIP3    H1 5361   3.825   1.027   3.844  0.1177 -1.7631 -1.6503
 1799TIP3    H2 5362   3.889   1.083   3.719 -0.8768 -0.9349 -1.7997
 1800TIP3   OH2 5363   6.513   4.546   1.893  0.5516 -0.3687 -0.0994
 1800TIP3    H1 5364   6.565   4.499   1.959  0.4898 -0.3302 -0.0239
 1800TIP3    H2 5365   6.426   4.507   1.898 -0.1558  1.2738  1.5479
 1801TIP3   OH2 5366   2.468   1.750   2.119  0.3119  0.3007 -0.1322
 1801TIP3    H1 5367   2.478   1.778   2.028 -0.6595  2.3635  0.3408
 1801TIP3    H2 5368   2.426   1.824   2.163  0.7880 -0.6144  2.0203
 1802TIP3   OH2 5369   4.778   2.724   2.619  0.3176  0.7413 -0.3338
 1802TIP3    H1 5370   4.701   2.672   2.597  0.7346  0.5706 -1.4659
 1802TIP3    H2 5371   4.805   2.764   2.536  1.2697  1.0431  0.1039
 1803TIP3   OH2 5372   1.430   2.199   2.292  0.6287  0.8361  0.0136
 1803TIP3    H1 5373   1.418   2.163   2.379  0.2937  0.5938 -0.1309
 1803TIP3    H2 5374   1.346   2.184   2.248  1.1410 -0.0308 -0.7068
 1804TIP3   OH2 5375   4.079   1.912   3.483  0.1637  0.2400  0.3250
 1804TIP3    H1 5376   4.123   1.981   3.533  1.9746  0.5007 -1.5191
 1804TIP3    H2 5377   4.116   1.830   3.515  1.4451  0.4154 -0.6530
 1805TIP3   OH2 5378   2.590   2.312   5.598 -0.7025 -0.0016 -0.1906
 1805TIP3    H1 5379   2.563   2.399   5.625 -0.5515 -0.1262  0.3728
 1805TIP3    H2 5380   2.619   2.323   5.507 -1.8330  0.2942 -0.5335
 1806TIP3   OH2 5381   6.270   3.807   2.814 -0.6985 -0.0456  0.1438
 1806TIP3    H1 5382   6.275   3.873   2.746 -0.2583 -0.1970  0.0247
 1806TIP3    H2 5383   6.196   3.834   2.868 -0.1965  0.8414  0.4122
 1807TIP3   OH2 5384   7.060   0.550   5.128  0.3780  0.1654  0.2583
 1807TIP3    H1 5385   6.969   0.574   5.107  1.0885  0.9300 -2.3090
 1807TIP3    H2 5386   7.090   0.619   5.187 -0.4903  0.3038  0.5510
 1808TIP3   OH2 5387   2.628   2.751   4.632  0.0417 -0.1554  0.2806
 1808TIP3    H1 5388   2.658   2.663   4.612  1.0800  0.3324 -0.4056
 1808TIP3    H2 5389   2.538   2.740   4.663 -0.1334 -1.3713 -0.6087
 1809TIP3   OH2 5390   5.910   5.768   1.246 -0.1212 -0.0676  0.4265
 1809TIP3    H1 5391   5.912   5.682   1.205 -1.1790 -0.9561  2.1275
 1809TIP3    H2 5392   5.817   5.792   1.248  0.0859  0.7674  0.6472
 1810TIP3   OH2 5393   4.956   2.591   0.511  0.1058 -0.2292  0.0349
 1810TIP3    H1 5394   4.933   2.500   0.528 -1.6310  0.1626 -0.0301
 1810TIP3    H2 5395   4.955   2.598   0.415  1.5419 -0.4319 -0.0134
 1811TIP3   OH2 5396   4.089   2.532   1.879  1.0593  0.3455  0.0583
 1811TIP3    H1 5397   4.119   2.465   1.941  1.3034  0.3993 -0.0012
 1811TIP3    H2 5398   4.163   2.545   1.820  0.1559 -1.1728 -1.5096
 1812TIP3   OH2 5399   1.429   0.030   1.918  0.4287 -0.4316  0.0288
 1812TIP3    H1 5400   1.451   0.123   1.931 -2.8933  0.5899 -0.8189
 1812TIP3    H2 5401   1.407  -0.002   2.006  0.1500  0.0045  0.1200
 1813TIP3   OH2 5402   3.236   5.787   2.881  0.3912 -0.2715 -0.6648
 1813TIP3    H1 5403   3.306   5.784   2.946  1.3420  0.0934 -1.6263
 1813TIP3    H2 5404   3.282   5.794   2.797 -0.7915  1.2828 -1.2464
 1814TIP3   OH2 5405   5.320   6.191   5.170  0.5009  0.0453  0.3819
 1814TIP3    H1 5406   5.257   6.260   5.191  1.1058  0.9538 -0.6647
 1814TIP3    H2 5407   5.366   6.224   5.092  1.1451 -1.3235  0.1604
 1815TIP3   OH2 5408   6.618   2.117   1.374 -0.4197 -0.0479  0.0184
 1815TIP3    H1 5409   6.651   2.133   1.286  0.4932 -0.2192  0.3139
 1815TIP3    H2 5410   6.543   2.060   1.362 -0.9440  0.7673 -0.7161
 1816TIP3   OH2 5411   1.418   6.784   3.617 -0.6220 -0.2723 -0.1368
 1816TIP3    H1 5412   1.489   6.754   3.560  1.3141  0.7600  1.5726
 1816TIP3    H2 5413   1.434   6.741   3.701 -2.0675 -0.0418  0.2892
 1817TIP3   OH2 5414   1.752   1.018   3.786 -0.0760 -0.2034 -0.0793
 1817TIP3    H1 5415   1.772   1.023   3.692 -1.6351  3.2230 -0.3861
 1817TIP3    H2 5416   1.658   1.030   3.791 -0.0453 -0.5021  1.9355
 1818TIP3   OH2 5417   6.401   0.907   4.430 -0.6666 -0.1273 -0.5041
 1818TIP3    H1 5418   6.315   0.893   4.392 -0.4450 -1.6720 -0.4896
 1818TIP3    H2 5419   6.421   0.826   4.476  0.8895  0.1092 -0.7015
 1819TIP3   OH2 5420   4.958   0.729   5.245 -0.3148  0.5607 -0.3569
 1819TIP3    H1 5421   5.051   0.753   5.236 -0.8595  2.2231 -2.8240
 1819TIP3    H2 5422   4.957   0.659   5.310  2.6197  0.7170  0.0034
 1820TIP3   OH2 5423   1.446   0.869   5.158  1.3482 -0.2255 -1.0482
 1820TIP3    H1 5424   1.540   0.884   5.172  0.9192  0.2174  1.9705
 1820TIP3    H2 5425   1.427   0.791   5.209 -0.5088  1.6567  1.3810
 1821TIP3   OH2 5426   0.363   1.773   3.563 -0.0007 -0.6103 -0.8953
 1821TIP3    H1 5427   0.441   1.828   3.556 -0.8507  0.9630  0.8834
 1821TIP3    H2 5428   0.357   1.754   3.657 -1.8925 -0.4148 -0.9394
 1822TIP3   OH2 5429   4.558   6.399   1.498  0.0030  0.3241 -0.0793
 1822TIP3    H1 5430   4.529   6.371   1.412  1.0505 -0.2474 -0.2550
 1822TIP3    H2 5431   4.576   6.493   1.488 -0.8919  0.4964 -0.1885
 1823TIP3   OH2 5432   5.031   6.089   5.853  0.0470 -0.4212  0.0693
 1823TIP3    H1 5433   5.018   6.089   5.758  0.0996 -1.3517  0.0527
 1823TIP3    H2 5434   4.943   6.100   5.889 -0.0128 -0.3945 -0.0832
 1824TIP3   OH2 5435   0.349   6.551   2.494  0.5533  0.2223 -0.5605
 1824TIP3    H1 5436   0.395   6.480   2.538 -0.9924 -1.7824 -2.0242
 1824TIP3    H2 5437   0.292   6.588   2.561 -0.2048 -1.3635 -0.2937
 1825TIP3   OH2 5438   6.904   1.226   3.535 -0.5239  0.4264 -0.1325
 1825TIP3    H1 5439   6.967   1.197   3.602 -0.8663 -0.8229 -0.3205
 1825TIP3    H2 5440   6.922   1.169   3.460 -1.6693  0.2568 -0.2948
 1826TIP3   OH2 5441   4.559   3.870   3.751  0.6289 -0.0286 -0.2762
 1826TIP3    H1 5442   4.480   3.845   3.799  0.8693 -0.7057 -0.2160
 1826TIP3    H2 5443   4.529   3.886   3.662  0.1807  1.2356  0.0878
 1827TIP3   OH2 5444   4.364   5.094   2.113 -0.1781  0.1757 -0.7584
 1827TIP3    H1 5445   4.411   5.030   2.167 -0.6742  0.7928  0.4417
 1827TIP3    H2 5446   4.394   5.179   2.146 -1.3002  0.5654 -0.7065
 1828TIP3   OH2 5447   5.240   6.160   3.502 -0.2110  0.8201  0.2549
 1828TIP3    H1 5448   5.194   6.090   3.455 -2.7141  2.0497  0.6680
 1828TIP3    H2 5449   5.271   6.118   3.583  0.8372 -0.4228 -0.7556
 1829TIP3   OH2 5450   0.101   6.782   5.305 -0.2707 -0.2396 -0.1282
 1829TIP3    H1 5451   0.125   6.727   5.380  1.6670 -0.4806 -0.8730
 1829TIP3    H2 5452   0.094   6.870   5.342  0.4367 -0.3911  0.3934
 1830TIP3   OH2 5453   3.082   3.786   4.667  0.0876 -0.0340  0.1298
 1830TIP3    H1 5454   3.165   3.816   4.630 -1.1042  1.8295 -1.1648
 1830TIP3    H2 5455   3.105   3.706   4.715  2.1129 -1.4368 -2.8539
 1831TIP3   OH2 5456   0.890   3.632   2.149 -0.1143  0.9648  0.6625
 1831TIP3    H1 5457   0.894   3.565   2.218  1.6202  0.3571  0.0216
 1831TIP3    H2 5458   0.859   3.584   2.072  1.5580  0.7626  0.0870
 1832TIP3   OH2 5459   3.509   0.362   0.424  0.1750 -0.5607 -0.0101
 1832TIP3    H1 5460   3.472   0.301   0.360 -1.2663  1.1715 -0.9220
 1832TIP3    H2 5461   3.455   0.350   0.502 -1.7976  1.1983 -0.9909
 1833TIP3   OH2 5462   4.530   3.695   3.294  0.1702  0.2064 -0.2085
 1833TIP3    H1 5463   4.615   3.733   3.319  0.6528 -1.8412  1.5159
 1833TIP3    H2 5464   4.550   3.641   3.218 -0.2371  2.0953 -1.7302
 1834TIP3   OH2 5465   1.626   3.419   1.544 -0.4778  0.6452 -0.5730
 1834TIP3    H1 5466   1.623   3.458   1.632  1.3695 -0.4495  0.0228
 1834TIP3    H2 5467   1.713   3.379   1.538 -1.5170 -1.5750 -1.9410
 1835TIP3   OH2 5468   2.916   4.476   2.705  0.0075  0.5211 -0.3169
 1835TIP3    H1 5469   2.882   4.474   2.615  0.1230 -1.4228 -0.3455
 1835TIP3    H2 5470   2.984   4.408   2.707 -0.0155  0.5073  1.2508
 1836TIP3   OH2 5471   7.142   1.951   0.934 -0.3168 -0.6710 -0.0936
 1836TIP3    H1 5472   7.168   1.902   0.856 -0.9308 -2.2731  0.6512
 1836TIP3    H2 5473   7.218   1.947   0.992 -0.7009 -1.6933  0.3773
 1837TIP3   OH2 5474   3.091   0.456   3.825  0.2186  0.3543  0.2880
 1837TIP3    H1 5475   3.130   0.392   3.766  0.0778  1.0764 -0.6213
 1837TIP3    H2 5476   3.165   0.503   3.863  0.3324 -0.5015  1.1621
 1838TIP3   OH2 5477   3.204   6.047   4.345 -0.3132  0.6510  0.5252
 1838TIP3    H1 5478   3.269   5.979   4.361  0.5879  1.6434  1.1468
 1838TIP3    H2 5479   3.124   6.013   4.386  0.2717  0.2118  1.3425
 1839TIP3   OH2 5480   2.045   2.414   5.621  0.0426  0.3739  0.0713
 1839TIP3    H1 5481   2.111   2.483   5.634  1.0224 -0.1438 -1.7596
 1839TIP3    H2 5482   2.054   2.390   5.529 -1.4791 -1.0092  0.2461
 1840TIP3   OH2 5483   0.222   4.656   1.258 -0.4112  0.0686 -0.0915
 1840TIP3    H1 5484   0.221   4.655   1.163 -0.3237  3.2361 -0.2240
 1840TIP3    H2 5485   0.312   4.633   1.281  0.0589  1.0230 -0.8902
 1841TIP3   OH2 5486   2.513   4.125   4.562  0.5274  0.3592  0.5118
 1841TIP3    H1 5487   2.424   4.088   4.570  0.2522  0.8467 -0.2152
 1841TIP3    H2 5488   2.567   4.051   4.535  0.5127 -0.1348  1.7615
 1842TIP3   OH2 5489   3.488   1.090   2.796 -0.2398  0.6278  0.3410
 1842TIP3    H1 5490   3.498   1.082   2.701  1.2658 -0.2248  0.5401
 1842TIP3    H2 5491   3.420   1.156   2.807 -1.4340 -0.2315 -1.3431
 1843TIP3   OH2 5492   5.482   1.514   1.640 -0.4073 -0.0796  0.2422
 1843TIP3    H1 5493   5.433   1.490   1.561  0.3752  1.0393 -0.6245
 1843TIP3    H2 5494   5.568   1.539   1.607  0.1235 -0.1603  1.5308
 1844TIP3   OH2 5495   6.392   6.444   3.339  0.0331 -0.6802  0.0394
 1844TIP3    H1 5496   6.339   6.366   3.321  0.5813 -0.8313 -1.0234
 1844TIP3    H2 5497   6.329   6.510   3.368 -0.3838 -1.6421  1.4476
 1845TIP3   OH2 5498   0.430   6.103   5.279  0.1365  0.3439 -0.4589
 1845TIP3    H1 5499   0.459   6.025   5.231  1.0329  0.0895  0.4479
 1845TIP3    H2 5500   0.452   6.085   5.370  0.0470  1.5197 -0.1812
 1846TIP3   OH2 5501   6.427   5.959   4.427  0.0171  0.1172  0.2433
 1846TIP3    H1 5502   6.457   6.047   4.405  1.7212 -0.6085 -0.5887
 1846TIP3    H2 5503   6.462   5.904   4.356 -1.8440 -1.1036  0.2110
 1847TIP3   OH2 5504   2.376   6.798   3.946 -0.5478  0.2541  0.2898
 1847TIP3    H1 5505   2.306   6.774   4.007  0.0463 -1.0295  0.5126
 1847TIP3    H2 5506   2.414   6.714   3.920  2.6378  0.9374  2.2078
 1848TIP3   OH2 5507   5.701   6.194   1.467 -0.4228 -0.4199 -0.3407
 1848TIP3    H1 5508   5.754   6.274   1.468 -1.3191  0.2002  0.4769
 1848TIP3    H2 5509   5.710   6.157   1.555 -3.5184  1.2891  0.8958
 1849TIP3   OH2 5510   3.575   0.473   2.878 -0.2003 -0.3126 -0.0506
 1849TIP3    H1 5511   3.569   0.414   2.953  0.2139  0.9315  0.9987
 1849TIP3    H2 5512   3.568   0.561   2.917 -2.1219  0.3280 -1.6723
 1850TIP3   OH2 5513   6.223   5.244   5.834 -0.3778  0.4434 -0.0136
 1850TIP3    H1 5514   6.159   5.263   5.765  1.8776  0.2141 -2.3371
 1850TIP3    H2 5515   6.247   5.152   5.820 -1.2367 -0.1902  2.3511
 1851TIP3   OH2 5516   1.496   6.351   5.593  0.1347  0.4557 -0.1369
 1851TIP3    H1 5517   1.490   6.356   5.498 -0.9232 -0.1885 -0.1228
 1851TIP3    H2 5518   1.590   6.353   5.611  0.3618  0.2537 -1.2131
 1852TIP3   OH2 5519   4.017   6.102   3.743 -0.4078 -0.4905 -0.3960
 1852TIP3    H1 5520   4.023   6.191   3.778 -1.1646 -1.1712  1.6507
 1852TIP3    H2 5521   3.924   6.082   3.744 -0.3156 -1.0698 -1.5606
 1853TIP3   OH2 5522   2.167   1.233   5.391 -0.5625  0.1681  0.2321
 1853TIP3    H1 5523   2.113   1.302   5.352 -0.5476  0.1564  0.1905
 1853TIP3    H2 5524   2.256   1.252   5.361 -0.4905  0.3902  0.5885
 1854TIP3   OH2 5525   6.896   5.055   2.468 -0.0809  0.4182  0.1717
 1854TIP3    H1 5526   6.875   4.980   2.523  0.0711 -0.2646 -0.6698
 1854TIP3    H2 5527   6.813   5.077   2.425  0.1551 -0.1532 -0.6116
 1855TIP3   OH2 5528   4.021   1.269   0.266 -0.3923 -0.0314  0.2141
 1855TIP3    H1 5529   4.049   1.201   0.327  2.7063  1.4213  0.5896
 1855TIP3    H2 5530   4.054   1.350   0.304 -1.5659  1.3703 -1.5990
 1856TIP3   OH2 5531   2.417   0.433   5.754  0.3052 -0.6147  0.2147
 1856TIP3    H1 5532   2.344   0.395   5.706 -0.1038  0.3004  0.0873
 1856TIP3    H2 5533   2.476   0.359   5.771 -0.2282 -1.2062 -0.4362
 1857TIP3   OH2 5534   5.279   3.306   2.021  0.3489 -0.4245 -0.8503
 1857TIP3    H1 5535   5.272   3.253   2.100  0.3698  0.6589 -0.0958
 1857TIP3    H2 5536   5.200   3.361   2.022 -1.2249 -2.4103 -3.1655
 1858TIP3   OH2 5537   3.632   1.192   0.248  0.3421  0.2139 -0.0272
 1858TIP3    H1 5538   3.632   1.198   0.152 -2.7621  1.2067 -0.0579
 1858TIP3    H2 5539   3.641   1.283   0.278  1.0123 -0.0633  0.6617
 1859TIP3   OH2 5540   3.777   1.232   1.352  0.0065  0.0351  0.4913
 1859TIP3    H1 5541   3.734   1.239   1.267  1.1406 -2.6328 -0.3819
 1859TIP3    H2 5542   3.758   1.316   1.394 -0.6470  1.4463 -2.3331
 1860TIP3   OH2 5543   5.407   1.965   4.964 -0.0399 -0.0757  0.8413
 1860TIP3    H1 5544   5.408   2.052   5.004 -1.9877 -0.1447  1.1162
 1860TIP3    H2 5545   5.478   1.918   5.008  0.5401  1.1238  1.2283
 1861TIP3   OH2 5546   3.543   5.974   3.966  0.3004  0.1072  0.0556
 1861TIP3    H1 5547   3.499   5.916   4.028  0.7468  0.2150  0.4764
 1861TIP3    H2 5548   3.636   5.956   3.979  0.5028  1.6714  0.9373
 1862TIP3   OH2 5549   5.649   4.797   2.853  0.2442  0.2862 -0.4487
 1862TIP3    H1 5550   5.577   4.859   2.863  1.3440  1.6612 -0.6872
 1862TIP3    H2 5551   5.701   4.807   2.933 -0.0846 -1.0675 -0.0428
 1863TIP3   OH2 5552   2.748   3.812   4.708 -0.1224 -0.6388 -0.2976
 1863TIP3    H1 5553   2.761   3.900   4.672 -0.6107  0.0230  1.0854
 1863TIP3    H2 5554   2.727   3.758   4.632 -0.2318  0.5180 -1.1149
 1864TIP3   OH2 5555   1.639   4.250   4.562 -0.5974 -0.4165  0.2674
 1864TIP3    H1 5556   1.626   4.175   4.503 -3.1944 -0.4942  0.8415
 1864TIP3    H2 5557   1.654   4.324   4.503  1.5870 -1.2465 -0.3158
 1865TIP3   OH2 5558   5.434   6.001   1.906  0.0491  0.1658  0.2631
 1865TIP3    H1 5559   5.375   5.928   1.886  0.8729 -0.5401  0.3223
 1865TIP3    H2 5560   5.406   6.071   1.848 -0.0589 -0.5729 -0.6058
 1866TIP3   OH2 5561   1.024   5.515   4.280 -0.4792  0.5786  0.1164
 1866TIP3    H1 5562   1.095   5.501   4.217  0.8803 -3.4288  2.2472
 1866TIP3    H2 5563   1.032   5.607   4.305  0.9246  1.4671 -3.0831
 1867TIP3   OH2 5564   6.145   0.661   4.019 -0.3742 -0.7398  0.7618
 1867TIP3    H1 5565   6.051   0.669   4.035 -0.9600  0.8580 -2.6842
 1867TIP3    H2 5566   6.160   0.567   4.010 -2.4820 -0.9282 -2.2348
 1868TIP3   OH2 5567   2.265   4.501   4.293  0.5052  0.0444 -0.7591
 1868TIP3    H1 5568   2.223   4.528   4.375  0.4117  0.8770 -1.0745
 1868TIP3    H2 5569   2.330   4.436   4.321 -0.3091 -0.5452 -0.1611
 1869TIP3   OH2 5570   1.879   4.822   1.456  0.1721  0.3845  0.2903
 1869TIP3    H1 5571   1.932   4.898   1.480  0.3923  0.4935 -0.4974
 1869TIP3    H2 5572   1.789   4.846   1.476  0.1896  1.0352 -0.3694
 1870TIP3   OH2 5573   5.392   6.239   2.572  0.6499  0.4031 -0.3595
 1870TIP3    H1 5574   5.318   6.178   2.580 -0.4968  1.6817 -0.8384
 1870TIP3    H2 5575   5.452   6.196   2.512  0.6238 -0.9558  0.5383
 1871TIP3   OH2 5576   2.737   3.233   0.856  0.1235 -0.0933 -0.0621
 1871TIP3    H1 5577   2.780   3.219   0.772 -0.0417  1.4825 -0.4405
 1871TIP3    H2 5578   2.808   3.251   0.917  0.1354  0.8003 -0.3223
 1872TIP3   OH2 5579   1.054   3.632   2.663  0.1415  0.2306  0.0306
 1872TIP3    H1 5580   1.020   3.721   2.654 -0.8100 -0.1319 -0.1556
 1872TIP3    H2 5581   1.111   3.620   2.587  0.6790  0.8455  0.3291
 1873TIP3   OH2 5582   4.868   6.451   0.671 -0.2512 -0.2363 -0.5052
 1873TIP3    H1 5583   4.881   6.546   0.675  0.1780 -0.3239  0.4214
 1873TIP3    H2 5584   4.939   6.420   0.615 -1.1550  0.1097 -1.8878
 1874TIP3   OH2 5585   6.892   5.820   0.628 -0.1019 -0.2208 -0.2687
 1874TIP3    H1 5586   6.896   5.915   0.641 -0.3820 -0.2126 -0.2256
 1874TIP3    H2 5587   6.968   5.800   0.575 -0.1023  0.0467 -0.3750
 1875TIP3   OH2 5588   3.983   4.262   0.704  0.0280 -0.1910 -0.6719
 1875TIP3    H1 5589   4.062   4.254   0.758 -0.3866  0.8396  0.1351
 1875TIP3    H2 5590   3.995   4.199   0.634  1.2129 -0.6079 -0.1208
 1876TIP3   OH2 5591   2.998   3.081   3.370  0.2822  0.7835 -0.7312
 1876TIP3    H1 5592   3.075   3.028   3.387  0.8809  1.7331 -0.3723
 1876TIP3    H2 5593   2.970   3.056   3.282  0.8125  0.2025 -0.7348
 1877TIP3   OH2 5594   5.957   4.378   5.389  0.1653 -0.3008  0.4761
 1877TIP3    H1 5595   6.018   4.381   5.463  0.0634  1.1317  0.5246
 1877TIP3    H2 5596   5.993   4.312   5.331  2.1500  0.9412  0.1960
 1878TIP3   OH2 5597   0.302   1.006   0.566 -0.3037 -0.5029 -0.0597
 1878TIP3    H1 5598   0.266   1.094   0.558  0.2027 -0.3733 -0.9506
 1878TIP3    H2 5599   0.294   0.986   0.660  1.1601  1.1585  0.4703
 1879TIP3   OH2 5600   4.647   1.224   1.737  0.1791  0.1268 -0.3540
 1879TIP3    H1 5601   4.676   1.310   1.767 -0.8956  0.0045  1.1426
 1879TIP3    H2 5602   4.558   1.239   1.704 -0.7410 -0.6913  1.6243
 1880TIP3   OH2 5603   4.867   4.561   1.243 -0.1025  0.1494  0.1617
 1880TIP3    H1 5604   4.874   4.526   1.332 -1.4496 -0.9018 -0.1109
 1880TIP3    H2 5605   4.842   4.652   1.255 -0.8806 -0.1456  0.8543
 1881TIP3   OH2 5606   2.895   5.663   1.653  0.2734  0.5599  0.2953
 1881TIP3    H1 5607   2.881   5.757   1.663 -2.3733  0.3082 -0.0772
 1881TIP3    H2 5608   2.853   5.624   1.729  1.9492 -0.3314  0.8034
 1882TIP3   OH2 5609   6.329   2.869   1.486  0.8929 -0.5749  0.1201
 1882TIP3    H1 5610   6.404   2.836   1.535  1.3094 -0.5163 -0.4658
 1882TIP3    H2 5611   6.300   2.794   1.434  1.2380 -0.2952 -0.4851
 1883TIP3   OH2 5612   1.523   3.861   1.570 -0.0041 -0.0173  0.1028
 1883TIP3    H1 5613   1.549   3.921   1.500  0.9566  0.3136  0.7180
 1883TIP3    H2 5614   1.596   3.799   1.576  0.4942  0.6746  1.5881
 1884TIP3   OH2 5615   0.675   0.645   5.453 -0.4469  0.2315 -0.5471
 1884TIP3    H1 5616   0.611   0.681   5.515  0.7301  0.3824  0.6145
 1884TIP3    H2 5617   0.653   0.688   5.370 -0.3572  2.1513  0.3562
 1885TIP3   OH2 5618   1.227   4.267   4.866 -0.0042 -0.1368  0.7120
 1885TIP3    H1 5619   1.209   4.204   4.796  0.4445  0.0965  0.3805
 1885TIP3    H2 5620   1.317   4.294   4.851 -0.6003  1.6230 -0.0055
 1886TIP3   OH2 5621   3.031   6.547   2.667 -0.1005 -0.1121 -0.2477
 1886TIP3    H1 5622   2.990   6.480   2.722  0.4099 -1.1650 -1.1114
 1886TIP3    H2 5623   3.068   6.610   2.729  2.7550 -2.5946  0.7829
 1887TIP3   OH2 5624   4.688   5.648   2.864 -0.1198 -0.6955 -0.7548
 1887TIP3    H1 5625   4.771   5.651   2.911 -0.8779  0.2655  0.5872
 1887TIP3    H2 5626   4.713   5.645   2.771  1.3997 -1.4635 -0.3631
 1888TIP3   OH2 5627   2.052   0.056   0.287 -0.0713 -0.3780  0.0886
 1888TIP3    H1 5628   1.968   0.078   0.327 -1.2886 -0.9543 -1.9944
 1888TIP3    H2 5629   2.083   0.139   0.251  0.2327 -0.1780  0.7988
 1889TIP3   OH2 5630   6.773   1.175   3.034 -0.2766 -0.2984  0.3541
 1889TIP3    H1 5631   6.719   1.101   3.061  0.0890 -1.2294 -1.3061
 1889TIP3    H2 5632   6.863   1.149   3.057 -0.1439 -0.4044 -0.2577
 1890TIP3   OH2 5633   4.212   6.680   2.796  0.2326 -0.3964  0.2183
 1890TIP3    H1 5634   4.282   6.689   2.732  0.8154  1.3705  1.0526
 1890TIP3    H2 5635   4.240   6.734   2.870 -3.0096  2.2405 -0.2835
 1891TIP3   OH2 5636   6.285   2.506   3.514  0.5169  0.4884 -0.4865
 1891TIP3    H1 5637   6.321   2.511   3.602 -0.1072 -0.1542 -0.1877
 1891TIP3    H2 5638   6.317   2.423   3.479 -2.0111 -0.9774  0.4243
 1892TIP3   OH2 5639   2.807   6.248   5.557  0.4036 -0.6268  0.2293
 1892TIP3    H1 5640   2.764   6.321   5.602  0.9124 -0.0976 -0.1261
 1892TIP3    H2 5641   2.747   6.225   5.486  2.0515  2.2631 -2.3406
 1893TIP3   OH2 5642   3.583   3.360   4.193  0.2600  0.1848  0.4438
 1893TIP3    H1 5643   3.498   3.383   4.230 -0.4846  1.1107 -1.6662
 1893TIP3    H2 5644   3.619   3.442   4.160  1.8489 -0.2455  1.0107
 1894TIP3   OH2 5645   4.346   2.605   4.917 -0.3386 -0.3894 -0.3060
 1894TIP3    H1 5646   4.326   2.528   4.865 -0.8042  0.2446 -1.0851
 1894TIP3    H2 5647   4.439   2.621   4.902 -0.6903  0.4346 -1.8846
 1895TIP3   OH2 5648   6.656   0.285   5.462 -0.1872  0.4701  0.1912
 1895TIP3    H1 5649   6.739   0.295   5.508 -0.2388 -1.8342  0.9254
 1895TIP3    H2 5650   6.667   0.334   5.380  1.1970  1.6921  1.0754
 1896TIP3   OH2 5651   2.057   2.560   2.473  0.0928 -0.2111  0.2455
 1896TIP3    H1 5652   2.076   2.553   2.567  0.1210 -0.2922  0.2332
 1896TIP3    H2 5653   2.030   2.472   2.447 -0.4973 -0.0527  0.3069
 1897TIP3   OH2 5654   4.422   4.205   3.322  0.1215 -0.4801 -0.7885
 1897TIP3    H1 5655   4.502   4.257   3.325  1.1336 -2.0101 -0.2881
 1897TIP3    H2 5656   4.431   4.150   3.244  0.3917 -1.8998  0.2070
 1898TIP3   OH2 5657   3.477   6.493   2.781  0.4666 -0.6664 -0.2055
 1898TIP3    H1 5658   3.568   6.524   2.777  0.0968  0.3322 -3.1689
 1898TIP3    H2 5659   3.480   6.406   2.741  0.0741 -0.4616 -0.6877
 1899TIP3   OH2 5660   5.442   5.777   1.027 -0.3539 -0.1378  0.5247
 1899TIP3    H1 5661   5.397   5.791   0.944 -0.0047  0.5966  0.4510
 1899TIP3    H2 5662   5.394   5.833   1.089 -0.2189 -0.1956  0.6819
 1900TIP3   OH2 5663   0.446   6.633   2.054  0.3289 -0.3023  0.5658
 1900TIP3    H1 5664   0.393   6.712   2.066  0.8098  0.4189 -1.6030
 1900TIP3    H2 5665   0.382   6.564   2.034  0.0822  0.5252 -1.8748
 1901TIP3   OH2 5666   4.165   0.600   4.530 -0.3509 -0.2238 -0.0806
 1901TIP3    H1 5667   4.210   0.676   4.494 -3.4811  2.4306  1.1858
 1901TIP3    H2 5668   4.177   0.606   4.625 -3.0798  0.5164  0.2937
 1902TIP3   OH2 5669   2.024   1.680   2.143  0.0406  0.4232 -0.2204
 1902TIP3    H1 5670   2.054   1.590   2.133  1.5102  0.5843  1.8733
 1902TIP3    H2 5671   2.010   1.712   2.054  1.0659 -1.3690 -1.0679
 1903TIP3   OH2 5672   6.563   4.102   4.064  0.1303  0.3400  0.4625
 1903TIP3    H1 5673   6.530   4.166   4.000  2.1048  1.5195  0.5405
 1903TIP3    H2 5674   6.528   4.132   4.148 -1.0283 -0.1900  0.1859
 1904TIP3   OH2 5675   3.917   6.737   5.488  0.3089  0.3919 -0.1611
 1904TIP3    H1 5676   3.862   6.802   5.446 -3.2851 -1.0096  1.9597
 1904TIP3    H2 5677   3.955   6.783   5.563 -2.6742  0.1319  1.6671
 1905TIP3   OH2 5678   3.213   2.444   1.772  0.4741 -0.7614 -0.4365
 1905TIP3    H1 5679   3.209   2.388   1.850  2.8935 -3.0883 -1.8219
 1905TIP3    H2 5680   3.285   2.504   1.788  0.7016 -0.9660 -0.6670
 1906TIP3   OH2 5681   4.966   5.507   4.590 -0.2559  0.8762  0.0498
 1906TIP3    H1 5682   5.006   5.432   4.548 -0.0421  0.1657  1.4542
 1906TIP3    H2 5683   5.006   5.583   4.549  0.4308  0.2072 -0.5304
 1907TIP3   OH2 5684   4.996   4.542   3.002  0.6594 -0.3687 -0.0480
 1907TIP3    H1 5685   4.993   4.583   2.915  0.0632  0.7198  0.4706
 1907TIP3    H2 5686   4.905   4.519   3.021  0.6442  0.3001  0.7061
 1908TIP3   OH2 5687   1.259   4.101   4.612 -0.6074  1.3164 -0.0665
 1908TIP3    H1 5688   1.297   4.015   4.596 -1.0383  1.0795  0.1532
 1908TIP3    H2 5689   1.290   4.156   4.540  2.7723  2.0200  1.7249
 1909TIP3   OH2 5690   5.327   5.697   0.090  0.2310  0.6935 -0.3022
 1909TIP3    H1 5691   5.300   5.655   0.171  0.1522  2.4546  0.6491
 1909TIP3    H2 5692   5.270   5.659   0.022  0.3053 -0.8042  0.4428
 1910TIP3   OH2 5693   6.884   2.015   4.810  0.0652 -0.5017 -0.2741
 1910TIP3    H1 5694   6.865   1.985   4.899  0.4565 -1.4217 -0.4931
 1910TIP3    H2 5695   6.810   1.984   4.758  0.7803 -1.6548 -0.6175
 1911TIP3   OH2 5696   2.587   0.701   5.877  0.4663 -0.3918  0.4791
 1911TIP3    H1 5697   2.600   0.786   5.835  0.4998 -1.7404 -2.4651
 1911TIP3    H2 5698   2.492   0.696   5.892  0.5150  0.3200  1.0552
 1912TIP3   OH2 5699   3.487   0.228   1.474  0.0788 -0.0397  0.4525
 1912TIP3    H1 5700   3.458   0.221   1.383  0.4354  0.1072  0.3264
 1912TIP3    H2 5701   3.412   0.197   1.526  0.5256 -1.8955  0.0497
 1913TIP3   OH2 5702   3.213   5.358   5.723 -0.2517  0.0935  0.6583
 1913TIP3    H1 5703   3.199   5.325   5.634 -1.0629  1.7505  0.1197
 1913TIP3    H2 5704   3.264   5.290   5.766  1.7502  0.0108 -1.6086
 1914TIP3   OH2 5705   6.249   4.876   4.830 -0.4171 -0.5297  0.4302
 1914TIP3    H1 5706   6.244   4.913   4.742 -0.6284 -0.7525  0.3477
 1914TIP3    H2 5707   6.290   4.945   4.882  1.7985 -1.2192 -0.2943
 1915TIP3   OH2 5708   4.486   3.044   3.785  0.3050 -0.4084  0.2646
 1915TIP3    H1 5709   4.543   3.104   3.834 -0.6206  0.0568  0.8091
 1915TIP3    H2 5710   4.414   3.100   3.755 -0.1161 -1.0805  0.0127
 1916TIP3   OH2 5711   4.831   4.100   2.380 -0.1966  0.7296 -0.5964
 1916TIP3    H1 5712   4.889   4.171   2.408  0.9736 -0.6223  0.5370
 1916TIP3    H2 5713   4.807   4.055   2.461 -3.0486  1.3262 -0.9816
 1917TIP3   OH2 5714   6.712   2.240   2.585 -0.2491 -0.2871  0.6974
 1917TIP3    H1 5715   6.656   2.292   2.643 -0.2153 -0.9837  1.3749
 1917TIP3    H2 5716   6.732   2.161   2.636 -1.8253 -1.8718 -0.9934
 1918TIP3   OH2 5717   1.169   3.674   1.380  0.0624  0.2824  0.5620
 1918TIP3    H1 5718   1.101   3.740   1.390 -0.4881 -0.6532  4.0236
 1918TIP3    H2 5719   1.146   3.627   1.299 -2.4925  0.9925  0.8183
 1919TIP3   OH2 5720   5.162   0.723   4.834  0.3587  0.1583 -0.2605
 1919TIP3    H1 5721   5.256   0.716   4.816  0.1019 -0.5123 -1.5036
 1919TIP3    H2 5722   5.150   0.675   4.916  1.2454  1.1970  0.5101
 1920TIP3   OH2 5723   3.448   1.444   1.809  0.1686  0.9602  0.2741
 1920TIP3    H1 5724   3.440   1.392   1.729 -0.9378 -1.8415  2.0593
 1920TIP3    H2 5725   3.368   1.497   1.811 -1.4525 -1.3416  0.9822
 1921TIP3   OH2 5726   1.745   3.149   0.714 -0.0975 -0.5671  0.4183
 1921TIP3    H1 5727   1.695   3.070   0.732  0.9870 -1.0280  1.5148
 1921TIP3    H2 5728   1.795   3.165   0.794  1.8750 -0.4028 -0.7865
 1922TIP3   OH2 5729   0.682   1.777   3.498  0.2673  0.0232  0.0477
 1922TIP3    H1 5730   0.751   1.810   3.555 -0.8362  0.9475  0.9139
 1922TIP3    H2 5731   0.694   1.824   3.415  1.2598 -0.5684 -0.1557
 1923TIP3   OH2 5732   4.249   2.958   1.084  0.2126  0.1261 -0.0040
 1923TIP3    H1 5733   4.327   2.948   1.138  1.3506  1.1833 -1.3739
 1923TIP3    H2 5734   4.280   2.946   0.994 -1.2794  0.2121 -0.5631
 1924TIP3   OH2 5735   1.807   1.315   2.756 -0.5373 -0.6850  0.4426
 1924TIP3    H1 5736   1.787   1.223   2.738  0.3589 -0.4765 -1.8747
 1924TIP3    H2 5737   1.872   1.312   2.827  0.0682 -1.8984 -0.1338
 1925TIP3   OH2 5738   6.211   5.071   3.195  0.0493 -0.2428  0.4434
 1925TIP3    H1 5739   6.137   5.050   3.251 -0.0504 -2.0319 -0.2815
 1925TIP3    H2 5740   6.172   5.104   3.114  0.1795  1.9249  1.2206
 1926TIP3   OH2 5741   5.256   5.584   2.868 -0.7995  0.2267  0.2766
 1926TIP3    H1 5742   5.268   5.660   2.811 -1.4036 -0.7793 -1.2722
 1926TIP3    H2 5743   5.336   5.580   2.920  0.5220  0.3024 -1.6420
 1927TIP3   OH2 5744   4.997   4.070   4.411 -0.7874  0.1222 -0.2845
 1927TIP3    H1 5745   5.048   4.011   4.355 -2.0905 -0.8725 -0.4605
 1927TIP3    H2 5746   5.049   4.075   4.492  0.9668  1.3505 -1.4223
 1928TIP3   OH2 5747   4.632   6.191   0.977 -0.2339 -0.0570 -0.4766
 1928TIP3    H1 5748   4.608   6.104   0.944  1.0778 -0.4859 -0.3451
 1928TIP3    H2 5749   4.605   6.250   0.907  1.4355 -0.8482 -1.8537
 1929TIP3   OH2 5750   5.769   1.530   1.854  0.1293  0.3781  0.2314
 1929TIP3    H1 5751   5.743   1.551   1.764 -3.0087 -1.4485  0.5462
 1929TIP3    H2 5752   5.687   1.535   1.904  1.1945 -1.5748  2.3770
 1930TIP3   OH2 5753   6.638   0.521   0.792  0.1380  0.0036  0.1287
 1930TIP3    H1 5754   6.624   0.509   0.886 -1.6391  2.4576  0.2839
 1930TIP3    H2 5755   6.582   0.455   0.750 -2.2165  1.3942  0.8649
 1931TIP3   OH2 5756   2.591   0.677   3.422 -0.1779  0.4832  0.0782
 1931TIP3    H1 5757   2.523   0.739   3.396  0.3723  2.0351  2.1694
 1931TIP3    H2 5758   2.673   0.726   3.416  0.5180 -0.6383 -0.0530
 1932TIP3   OH2 5759   0.096   2.650   4.646 -0.2857 -0.8113 -0.1007
 1932TIP3    H1 5760   0.127   2.592   4.577 -2.5910  0.3915 -2.3395
 1932TIP3    H2 5761   0.009   2.618   4.668 -0.4337  0.0815  0.7071
 1933TIP3   OH2 5762   4.045   2.331   1.073  0.0131 -0.5507  1.2177
 1933TIP3    H1 5763   3.950   2.327   1.059  0.3225 -0.8662 -1.0862
 1933TIP3    H2 5764   4.068   2.242   1.102 -0.1928 -0.9105  0.2983
 1934TIP3   OH2 5765   1.834   5.548   3.003  0.1863 -0.3324 -0.1914
 1934TIP3    H1 5766   1.768   5.479   3.003 -0.3269  0.1457 -0.4888
 1934TIP3    H2 5767   1.792   5.621   2.958  0.8260  0.0731 -0.1437
 1935TIP3   OH2 5768   2.430   6.784   2.458  0.3092  0.2859  0.5075
 1935TIP3    H1 5769   2.464   6.750   2.375  0.7451 -0.5568  1.0127
 1935TIP3    H2 5770   2.354   6.837   2.433  0.3313 -0.0901 -0.4149
 1936TIP3   OH2 5771   5.713   4.476   1.320 -0.5916  0.3416 -0.2210
 1936TIP3    H1 5772   5.808   4.480   1.334 -0.4215  0.7654 -1.4390
 1936TIP3    H2 5773   5.687   4.567   1.304 -1.2888  0.2940  0.5427
 1937TIP3   OH2 5774   0.469   3.668   5.567  0.4952  0.4466  0.4897
 1937TIP3    H1 5775   0.496   3.756   5.595 -1.8450  1.7752 -1.1118
 1937TIP3    H2 5776   0.467   3.673   5.472  3.0155 -2.2909  0.1617
 1938TIP3   OH2 5777   2.197   3.010   3.049 -0.5566 -0.2480 -0.1160
 1938TIP3    H1 5778   2.212   2.935   3.107  1.0609  0.8636  1.0175
 1938TIP3    H2 5779   2.175   3.081   3.109  0.9361  0.8854 -0.8344
 1939TIP3   OH2 5780   0.846   4.841   5.031 -0.6817  0.2314 -0.3730
 1939TIP3    H1 5781   0.926   4.826   4.980 -0.8605  1.6545 -1.0949
 1939TIP3    H2 5782   0.779   4.790   4.986 -0.1913 -1.1012  0.3262
 1940TIP3   OH2 5783   1.493   3.200   5.649 -0.3700 -0.7183 -0.4567
 1940TIP3    H1 5784   1.432   3.241   5.589  1.0832 -0.7472 -2.0329
 1940TIP3    H2 5785   1.463   3.110   5.656 -2.2989 -0.0111  1.3022
 1941TIP3   OH2 5786   1.501   3.229   3.884  0.4375 -0.1850 -0.1820
 1941TIP3    H1 5787   1.488   3.183   3.967 -0.4886 -0.3695 -0.4139
 1941TIP3    H2 5788   1.525   3.318   3.909 -0.2193 -0.1366  0.2918
 1942TIP3   OH2 5789   6.164   3.821   5.180  0.2385 -0.3387 -0.3724
 1942TIP3    H1 5790   6.130   3.836   5.092 -0.6756 -0.8726 -0.1244
 1942TIP3    H2 5791   6.160   3.726   5.191  0.5981 -0.2978  0.1498
 1943TIP3   OH2 5792   0.876   1.428   4.293  0.1202  0.1109 -0.4584
 1943TIP3    H1 5793   0.875   1.338   4.261  0.8134 -0.3981  0.8672
 1943TIP3    H2 5794   0.838   1.479   4.222  0.3372 -1.1308 -1.5083
 1944TIP3   OH2 5795   5.804   0.900   2.879 -0.0543 -0.1282  0.4104
 1944TIP3    H1 5796   5.842   0.950   2.952  1.2718  0.8404 -0.9039
 1944TIP3    H2 5797   5.710   0.898   2.899  0.1587  0.8889  1.6839
 1945TIP3   OH2 5798   4.994   4.850   4.157 -0.3535 -0.9069  0.5552
 1945TIP3    H1 5799   4.998   4.764   4.199 -1.0907 -1.2818 -0.1049
 1945TIP3    H2 5800   5.074   4.855   4.105  0.2305 -0.7219  1.4406
 1946TIP3   OH2 5801   6.560   3.267   4.623 -0.2625  0.4510 -0.7925
 1946TIP3    H1 5802   6.654   3.255   4.631 -0.4278  0.3001  2.0428
 1946TIP3    H2 5803   6.545   3.281   4.530  2.3698 -0.9640 -1.5272
 1947TIP3   OH2 5804   4.493   2.410   2.913  0.4296  0.0968  0.2357
 1947TIP3    H1 5805   4.418   2.438   2.860  0.8042 -0.1519 -0.4373
 1947TIP3    H2 5806   4.535   2.342   2.861  0.6203 -0.3925  1.0033
 1948TIP3   OH2 5807   0.057   5.450   2.539  0.4695 -0.3741  0.1973
 1948TIP3    H1 5808  -0.006   5.388   2.501 -0.2748 -0.1675  1.0595
 1948TIP3    H2 5809   0.140   5.429   2.497  0.4571 -2.6113  1.1560
 1949TIP3   OH2 5810   3.685   4.649   1.857  0.9923 -0.0351  0.3793
 1949TIP3    H1 5811   3.644   4.733   1.839  1.8228  0.5884  1.2922
 1949TIP3    H2 5812   3.613   4.586   1.859  0.5632  0.2123 -2.5680
 1950TIP3   OH2 5813   0.057   5.214   3.626 -0.3808  0.2349 -0.6108
 1950TIP3    H1 5814   0.105   5.292   3.651  1.1198  0.0986 -2.7830
 1950TIP3    H2 5815   0.047   5.164   3.708  2.8392  0.4848  0.0696
 1951TIP3   OH2 5816   4.000   4.698   3.104  0.2562  0.3637  0.0127
 1951TIP3    H1 5817   4.048   4.625   3.065 -0.3834  0.7249 -1.5275
 1951TIP3    H2 5818   4.059   4.733   3.170  0.9104 -1.0243  0.1958
 1952TIP3   OH2 5819   3.062   5.347   1.020  0.1049 -0.0475  0.0441
 1952TIP3    H1 5820   3.081   5.331   0.927 -0.2255  1.0038 -0.2276
 1952TIP3    H2 5821   3.084   5.266   1.064  0.4236 -0.5096 -0.9425
 1953TIP3   OH2 5822   2.551   1.214   3.590 -0.1016 -0.3358 -1.1590
 1953TIP3    H1 5823   2.602   1.140   3.557 -0.0749 -0.4421 -0.8769
 1953TIP3    H2 5824   2.576   1.222   3.682  1.1453  1.0840 -1.6001
 1954TIP3   OH2 5825   5.785   4.974   5.054  0.3201 -0.2659 -1.0050
 1954TIP3    H1 5826   5.792   4.989   4.960  5.1511 -0.4003 -0.9100
 1954TIP3    H2 5827   5.825   4.888   5.068  0.4615  0.0961  1.2656
 1955TIP3   OH2 5828   1.905   1.450   1.009  0.0046 -0.5597 -0.6205
 1955TIP3    H1 5829   1.861   1.491   1.083 -3.2290 -1.0716 -2.1032
 1955TIP3    H2 5830   1.919   1.359   1.037 -1.1055 -0.7221 -0.5499
 1956TIP3   OH2 5831   4.046   1.390   0.888  0.0277  0.8889 -0.2887
 1956TIP3    H1 5832   4.043   1.314   0.946 -0.3993 -0.4074 -1.9228
 1956TIP3    H2 5833   4.132   1.384   0.845  0.1614  1.5708 -0.1225
 1957TIP3   OH2 5834   2.132   1.464   2.578 -0.4667 -0.1520  0.3336
 1957TIP3    H1 5835   2.093   1.406   2.644 -1.4926  1.3830  1.1376
 1957TIP3    H2 5836   2.081   1.446   2.498  0.3309 -1.5268  0.1110
 1958TIP3   OH2 5837   0.304   4.705   0.989  0.0798  0.2242 -0.0315
 1958TIP3    H1 5838   0.281   4.797   0.975 -1.5961 -0.4357 -2.1887
 1958TIP3    H2 5839   0.367   4.685   0.920 -0.0836 -0.4101 -0.0054
 1959TIP3   OH2 5840   0.438   4.314   0.305  0.1860 -0.0894  0.2955
 1959TIP3    H1 5841   0.505   4.253   0.274 -0.3115 -0.8150  0.6030
 1959TIP3    H2 5842   0.358   4.285   0.261 -0.7254 -1.6580  2.7709
 1960TIP3   OH2 5843   4.175   5.436   2.000  0.7290 -0.0205 -0.2699
 1960TIP3    H1 5844   4.245   5.412   1.939  1.0430 -1.0543  0.4580
 1960TIP3    H2 5845   4.133   5.512   1.960  1.0115 -0.5783 -1.7022
 1961TIP3   OH2 5846   4.111   5.769   1.644 -0.4760 -0.0516 -0.2494
 1961TIP3    H1 5847   4.129   5.812   1.727 -0.3186 -1.0407  0.2448
 1961TIP3    H2 5848   4.041   5.821   1.604 -0.0602  0.8382  0.1706
 1962TIP3   OH2 5849   5.076   2.495   2.891  0.2415  0.0994 -0.3386
 1962TIP3    H1 5850   5.055   2.567   2.950 -1.1177 -0.5939  0.0497
 1962TIP3    H2 5851   5.136   2.534   2.826  0.1016  1.3821  0.2757
 1963TIP3   OH2 5852   4.272   1.693   1.168  0.3298  0.1404 -0.1991
 1963TIP3    H1 5853   4.191   1.648   1.193  0.4544  0.3533  0.6377
 1963TIP3    H2 5854   4.268   1.701   1.073 -1.7480  2.2137 -0.0121
 1964TIP3   OH2 5855   1.393   3.067   4.124  0.4854 -0.0135 -0.0932
 1964TIP3    H1 5856   1.319   3.126   4.138  0.4703  0.2853 -1.3517
 1964TIP3    H2 5857   1.354   2.990   4.081  0.7850 -0.1985 -0.0360
 1965TIP3   OH2 5858   5.164   1.061   4.079 -0.2645  0.3030  0.0025
 1965TIP3    H1 5859   5.158   1.136   4.139 -0.2003 -0.1648  0.5982
 1965TIP3    H2 5860   5.122   1.092   3.998  2.0777  1.9094 -0.7087
 1966TIP3   OH2 5861   4.564   2.052   0.307  0.6074  0.0704 -0.2607
 1966TIP3    H1 5862   4.589   1.973   0.357  0.2459  1.5920  2.5336
 1966TIP3    H2 5863   4.647   2.092   0.284  0.7874 -0.1518 -0.0120
 1967TIP3   OH2 5864   0.541   3.696   2.982 -0.9674  0.0169  0.0489
 1967TIP3    H1 5865   0.491   3.710   3.063  0.2502 -0.5892  0.9471
 1967TIP3    H2 5866   0.543   3.601   2.971  1.4991 -0.1243  1.0890
 1968TIP3   OH2 5867   1.520   0.953   2.294  0.1334 -0.0072  0.6216
 1968TIP3    H1 5868   1.492   0.998   2.373 -3.1293 -0.2198 -0.2444
 1968TIP3    H2 5869   1.495   0.861   2.308  0.7539 -0.3063 -0.1223
 1969TIP3   OH2 5870   2.574   0.215   5.826 -0.2919  0.1709  0.2739
 1969TIP3    H1 5871   2.651   0.216   5.883 -1.4933  1.1301  1.9582
 1969TIP3    H2 5872   2.516   0.150   5.865 -0.3334 -0.6351 -1.0508
 1970TIP3   OH2 5873   2.049   5.929   3.626  0.3854  0.0133 -0.1107
 1970TIP3    H1 5874   2.081   6.009   3.666  1.5093 -0.0434 -0.8509
 1970TIP3    H2 5875   2.018   5.956   3.539 -1.8740  0.1116  0.6541
 1971TIP3   OH2 5876   3.263   5.570   5.530 -0.0472 -0.1336  0.4187
 1971TIP3    H1 5877   3.337   5.522   5.491 -0.4807 -0.0697 -0.5039
 1971TIP3    H2 5878   3.257   5.535   5.619  0.1449 -1.2459  0.0197
 1972TIP3   OH2 5879   2.106   1.001   2.656  0.5789  0.1943 -0.1501
 1972TIP3    H1 5880   2.093   0.907   2.643  1.0036 -0.0590  1.1289
 1972TIP3    H2 5881   2.114   1.037   2.568 -0.0444 -0.8988 -0.6653
 1973TIP3   OH2 5882   5.078   4.411   0.382  1.1808 -0.1757 -0.0271
 1973TIP3    H1 5883   5.084   4.461   0.464  0.0946 -0.8079  0.4532
 1973TIP3    H2 5884   4.991   4.432   0.348  0.5543 -2.0057  0.3674
 1974TIP3   OH2 5885   4.409   0.318   4.435  0.0541  0.4491 -0.5398
 1974TIP3    H1 5886   4.430   0.411   4.426  0.3042  0.3539 -0.9666
 1974TIP3    H2 5887   4.474   0.273   4.382  1.3846 -0.1422  1.4541
 1975TIP3   OH2 5888   2.776   5.955   4.266  0.2404 -0.1557 -0.3054
 1975TIP3    H1 5889   2.689   5.996   4.265  0.2669 -0.0936 -0.9172
 1975TIP3    H2 5890   2.782   5.912   4.180  1.4743  1.2553 -0.9718
 1976TIP3   OH2 5891   4.694   1.398   1.099 -1.2707  0.0605 -0.2568
 1976TIP3    H1 5892   4.740   1.482   1.106  0.1778 -0.7271  0.1795
 1976TIP3    H2 5893   4.695   1.378   1.005 -0.4828 -0.0424 -0.2385
 1977TIP3   OH2 5894   7.194   1.677   5.480 -0.4111  0.1697  0.1704
 1977TIP3    H1 5895   7.102   1.665   5.453 -0.9179  0.3975  1.6836
 1977TIP3    H2 5896   7.203   1.772   5.492 -0.3608  0.0407  1.2349
 1978TIP3   OH2 5897   4.390   3.900   2.438  0.3772 -0.5680 -0.8524
 1978TIP3    H1 5898   4.461   3.861   2.387  2.4220  1.8035 -0.0312
 1978TIP3    H2 5899   4.435   3.948   2.508 -2.1841 -1.4230  1.5626
 1979TIP3   OH2 5900   6.966   1.803   0.286 -0.7163  0.1373  0.0788
 1979TIP3    H1 5901   7.049   1.780   0.243 -0.3122 -0.4680  1.1315
 1979TIP3    H2 5902   6.900   1.750   0.241 -0.2713 -0.6225  0.2999
 1980TIP3   OH2 5903   4.560   0.527   3.355 -0.1884  0.5550 -0.6097
 1980TIP3    H1 5904   4.489   0.470   3.325  0.6613 -0.4007 -0.8344
 1980TIP3    H2 5905   4.547   0.533   3.450 -0.1201 -0.2624 -0.5376
 1981TIP3   OH2 5906   2.742   1.449   1.423 -0.4697 -0.4189  0.0039
 1981TIP3    H1 5907   2.756   1.505   1.346  1.6259 -0.6010  0.2112
 1981TIP3    H2 5908   2.787   1.368   1.403 -2.0708 -1.4581  0.4148
 1982TIP3   OH2 5909   3.523   2.930   4.585 -0.1836  0.3335 -0.0113
 1982TIP3    H1 5910   3.502   2.981   4.506  1.2653  1.0242  0.0176
 1982TIP3    H2 5911   3.588   2.866   4.555  0.3048  0.5369  0.5890
 1983TIP3   OH2 5912   0.534   0.161   1.881  0.6148  0.1112 -0.3027
 1983TIP3    H1 5913   0.595   0.092   1.906 -0.2796 -0.2253  1.1336
 1983TIP3    H2 5914   0.519   0.210   1.962 -1.0169  0.1535 -0.5933
 1984TIP3   OH2 5915   4.532   4.564   2.674  0.2159 -0.4140  0.1644
 1984TIP3    H1 5916   4.616   4.584   2.715 -1.5377  0.9972  3.4351
 1984TIP3    H2 5917   4.529   4.469   2.670  2.9328 -0.5775 -2.5760
 1985TIP3   OH2 5918   3.935   4.236   4.733 -0.3439 -0.8401  0.0968
 1985TIP3    H1 5919   4.028   4.228   4.756 -0.2147  0.5892  0.1808
 1985TIP3    H2 5920   3.924   4.329   4.710 -2.1213 -0.5408  1.8643
 1986TIP3   OH2 5921   1.504   2.362   2.636 -0.1188  0.0049 -0.0363
 1986TIP3    H1 5922   1.443   2.315   2.693  0.2161 -1.2042 -0.6405
 1986TIP3    H2 5923   1.533   2.437   2.688  1.6661 -2.0655  2.1917
 1987TIP3   OH2 5924   6.453   3.771   1.507 -0.2620  0.1039  0.6864
 1987TIP3    H1 5925   6.413   3.691   1.542 -0.1904 -0.0499  0.4160
 1987TIP3    H2 5926   6.380   3.818   1.465 -0.0705 -0.4238 -0.2644
 1988TIP3   OH2 5927   6.314   0.536   4.361  0.1670  0.5913  0.1818
 1988TIP3    H1 5928   6.266   0.455   4.374 -0.4262  0.8554 -0.3190
 1988TIP3    H2 5929   6.386   0.512   4.303 -0.2683  0.5108 -0.3314
 1989TIP3   OH2 5930   5.112   2.054   4.503 -0.1691 -0.5757  0.5694
 1989TIP3    H1 5931   5.070   1.985   4.451 -1.2845 -0.5664  1.4208
 1989TIP3    H2 5932   5.172   2.006   4.560 -1.9838 -1.0610  2.1832
 1990TIP3   OH2 5933   6.891   2.619   0.160  0.4073 -0.2497  0.1992
 1990TIP3    H1 5934   6.921   2.531   0.179  0.8430 -0.1419  0.0215
 1990TIP3    H2 5935   6.862   2.616   0.069 -1.9987 -0.8522  0.9123
 1991TIP3   OH2 5936   5.080   5.219   1.663  0.2191  0.3117  0.0919
 1991TIP3    H1 5937   5.116   5.134   1.687 -0.3081 -0.0328 -0.2987
 1991TIP3    H2 5938   5.103   5.230   1.570  0.5337  0.7253  0.2166
 1992TIP3   OH2 5939   6.922   1.817   1.391  0.3941 -0.0774 -0.5174
 1992TIP3    H1 5940   6.853   1.757   1.363 -1.4965  0.4197  2.5134
 1992TIP3    H2 5941   7.004   1.770   1.373 -0.9458 -4.1465  2.3462
 1993TIP3   OH2 5942   3.459   1.315   0.009 -0.4991  0.2770 -0.1652
 1993TIP3    H1 5943   3.375   1.298   0.052  0.4268  0.3388  1.7762
 1993TIP3    H2 5944   3.453   1.407  -0.019 -0.9194  0.4198  0.3666
 1994TIP3   OH2 5945   1.350   2.842   1.162 -0.0900 -0.3023  0.1932
 1994TIP3    H1 5946   1.283   2.887   1.110 -0.6832 -2.7527 -1.3199
 1994TIP3    H2 5947   1.399   2.913   1.203 -1.1608  1.7129 -1.7617
 1995TIP3   OH2 5948   6.514   3.337   4.370 -0.1172 -0.1544  0.2627
 1995TIP3    H1 5949   6.461   3.416   4.365 -0.1536 -0.2501 -1.8525
 1995TIP3    H2 5950   6.557   3.332   4.285  1.7409 -1.1608  1.2049
 1996TIP3   OH2 5951   1.765   1.882   1.967  0.0192  0.3936 -0.5502
 1996TIP3    H1 5952   1.848   1.834   1.956  0.9126  2.2450 -2.7199
 1996TIP3    H2 5953   1.791   1.972   1.981 -1.6092  1.0554 -1.4917
 1997TIP3   OH2 5954   1.459   4.363   4.187 -0.6694  0.4080 -0.2422
 1997TIP3    H1 5955   1.482   4.427   4.120 -0.8090 -0.6618 -1.3564
 1997TIP3    H2 5956   1.517   4.289   4.171 -1.2296 -0.1770  0.3349
 1998TIP3   OH2 5957   4.588   0.410   0.288  0.1097 -0.1499 -0.5510
 1998TIP3    H1 5958   4.669   0.459   0.304  0.0330 -0.2421  0.1639
 1998TIP3    H2 5959   4.580   0.407   0.193  1.8332 -1.5838 -0.6928
 1999TIP3   OH2 5960   2.176   3.134   4.384  0.0227 -0.5609 -0.0568
 1999TIP3    H1 5961   2.123   3.093   4.452  1.2084 -0.0678  1.2072
 1999TIP3    H2 5962   2.220   3.061   4.341  0.5068 -0.7855  0.7942
 2000TIP3   OH2 5963   1.904   1.463   2.394  0.4793 -0.7810 -0.0921
 2000TIP3    H1 5964   1.861   1.544   2.366 -0.4329 -0.9761  0.6907
 2000TIP3    H2 5965   1.855   1.393   2.351 -0.5409 -1.0469  1.4041
 2001TIP3   OH2 5966   6.607   2.076   5.166  0.2869 -0.1689 -0.2126
 2001TIP3    H1 5967   6.696   2.050   5.140  0.0015 -0.2521 -1.1417
 2001TIP3    H2 5968   6.550   2.029   5.106 -0.4489 -0.8682  0.9964
 2002TIP3   OH2 5969   3.635   0.210   1.822 -0.2702  0.0661  0.4697
 2002TIP3    H1 5970   3.640   0.135   1.763  2.2589  0.4855  0.0346
 2002TIP3    H2 5971   3.655   0.174   1.908 -0.4825 -0.0035  0.4881
 2003TIP3   OH2 5972   1.714   0.811   0.467  0.1035  0.0945  0.3030
 2003TIP3    H1 5973   1.792   0.791   0.517  0.5971 -0.5532 -0.6870
 2003TIP3    H2 5974   1.704   0.737   0.407  0.5108  1.5581 -1.7126
 2004TIP3   OH2 5975   3.903   6.354   2.392  0.2636 -0.0278 -0.0328
 2004TIP3    H1 5976   3.976   6.374   2.451  0.1111 -1.4223  0.6747
 2004TIP3    H2 5977   3.904   6.424   2.327  1.7078  0.4274  0.4525
 2005TIP3   OH2 5978   4.184   4.450   2.452 -0.1296 -0.2649 -0.0545
 2005TIP3    H1 5979   4.109   4.505   2.428  0.4757 -0.0118 -1.4990
 2005TIP3    H2 5980   4.218   4.489   2.532  0.2224  1.4223 -0.9920
 2006TIP3   OH2 5981   6.848   0.092   2.744  0.6546  0.3035  0.6328
 2006TIP3    H1 5982   6.795   0.129   2.673  1.2808 -1.0705 -0.5994
 2006TIP3    H2 5983   6.808   0.127   2.824 -0.5565  1.2781 -0.3481
 2007TIP3   OH2 5984   1.537   4.881   0.959  0.2598 -0.0262 -0.2786
 2007TIP3    H1 5985   1.586   4.963   0.949  0.5252 -0.1690 -0.1601
 2007TIP3    H2 5986   1.448   4.909   0.978 -0.0751  0.2584 -2.1096
 2008TIP3   OH2 5987   6.337   2.781   5.708  0.0047 -0.1515 -0.3960
 2008TIP3    H1 5988   6.246   2.753   5.720  0.0048  0.4090  1.0411
 2008TIP3    H2 5989   6.348   2.782   5.613 -0.9020 -2.0485 -0.5724
 2009TIP3   OH2 5990   0.159   0.148   5.613  0.3869 -0.3920 -0.1586
 2009TIP3    H1 5991   0.142   0.202   5.536  0.2852  0.8567  0.6924
 2009TIP3    H2 5992   0.085   0.088   5.618  0.3773 -0.4591 -0.9994
 2010TIP3   OH2 5993   7.108   5.541   0.602 -0.3412 -0.6049 -0.4582
 2010TIP3    H1 5994   7.023   5.583   0.619 -0.0360 -0.6436  1.3864
 2010TIP3    H2 5995   7.134   5.573   0.516 -2.2414 -0.6279 -1.0800
 2011TIP3   OH2 5996   3.138   0.192   0.500  0.5086 -0.2224 -0.4613
 2011TIP3    H1 5997   3.114   0.169   0.589  0.6543 -0.5184 -0.4962
 2011TIP3    H2 5998   3.120   0.286   0.493 -0.1602 -0.3340 -0.3345
 2012TIP3   OH2 5999   1.446   3.430   4.368  0.1884 -0.4111  0.2503
 2012TIP3    H1 6000   1.464   3.499   4.304  0.2597  0.5860  1.3141
 2012TIP3    H2 6001   1.479   3.465   4.451 -0.5950 -1.3457  0.9838
 2013TIP3   OH2 6002   2.240   5.577   0.902  0.1612  0.0785  0.3021
 2013TIP3    H1 6003   2.275   5.576   0.813  0.0385  0.6499  0.2426
 2013TIP3    H2 6004   2.206   5.488   0.916 -2.5191  0.7382 -1.3323
 2014TIP3   OH2 6005   5.340   1.398   4.188  0.2200  0.0367  0.3232
 2014TIP3    H1 6006   5.425   1.426   4.224  0.2724 -1.0835  1.1407
 2014TIP3    H2 6007   5.293   1.363   4.263 -1.3958  1.5401  0.0678
 2015TIP3   OH2 6008   5.680   2.298   0.154  0.2091  0.1143  0.0854
 2015TIP3    H1 6009   5.617   2.368   0.170 -0.5895 -0.9658  2.0785
 2015TIP3    H2 6010   5.630   2.217   0.168  1.4950 -0.8308 -0.5413
 2016TIP3   OH2 6011   6.337   5.306   0.871 -0.2324 -0.5696 -0.3718
 2016TIP3    H1 6012   6.411   5.308   0.932 -2.0990 -0.8842  2.0663
 2016TIP3    H2 6013   6.355   5.376   0.808  1.6599 -0.0303  0.7084
 2017TIP3   OH2 6014   0.535   5.315   4.625  0.1259 -0.4559 -0.1517
 2017TIP3    H1 6015   0.449   5.319   4.666 -0.4986 -0.8497 -1.4122
 2017TIP3    H2 6016   0.524   5.359   4.541  1.4792  0.6427  0.1954
 2018TIP3   OH2 6017   1.818   5.245   4.337 -0.2295  0.7523  0.3859
 2018TIP3    H1 6018   1.821   5.153   4.362 -1.4669  1.0979  2.0221
 2018TIP3    H2 6019   1.746   5.250   4.274  0.0563  0.5518  0.0414
 2019TIP3   OH2 6020   1.334   2.392   5.837 -0.1224 -0.4272 -0.1785
 2019TIP3    H1 6021   1.409   2.333   5.852  0.5265  0.4557  0.1375
 2019TIP3    H2 6022   1.294   2.402   5.923  1.0743  1.2932  0.2197
 2020TIP3   OH2 6023   3.773   2.306   5.385  0.7950 -0.5422 -0.3060
 2020TIP3    H1 6024   3.733   2.272   5.465  1.3653 -2.6677 -0.8458
 2020TIP3    H2 6025   3.861   2.267   5.384  1.6841  1.3620 -0.7955
 2021TIP3   OH2 6026   4.446   4.216   5.864  0.0329 -0.5663 -0.1358
 2021TIP3    H1 6027   4.471   4.282   5.929  1.5886 -1.9163  0.7018
 2021TIP3    H2 6028   4.523   4.207   5.808  0.1661 -2.2104  0.2629
 2022TIP3   OH2 6029   1.185   5.529   5.197  0.0369  0.0266 -0.0600
 2022TIP3    H1 6030   1.175   5.554   5.289  1.4116 -0.9180  0.3771
 2022TIP3    H2 6031   1.215   5.438   5.200  0.4503  0.0951 -1.4255
 2023TIP3   OH2 6032   7.071   6.778   2.648 -0.0947  0.4713  0.2371
 2023TIP3    H1 6033   7.012   6.783   2.572 -0.9227 -0.5368  0.7937
 2023TIP3    H2 6034   7.130   6.705   2.627 -0.3212  0.1954  0.5544
 2024TIP3   OH2 6035   4.897   0.396   3.140  0.3703 -0.1409 -0.1046
 2024TIP3    H1 6036   4.964   0.393   3.072  1.2651  0.7009  0.7139
 2024TIP3    H2 6037   4.942   0.371   3.220 -0.4553 -0.2006  0.3554
 2025TIP3   OH2 6038   2.221   0.415   4.978  0.0923 -0.1402 -0.1164
 2025TIP3    H1 6039   2.140   0.422   5.028  0.3115  1.0680  0.1066
 2025TIP3    H2 6040   2.290   0.434   5.042  0.4520  0.1755 -0.5915
 2026TIP3   OH2 6041   1.210   0.217   5.715  0.0096  0.3079  0.6711
 2026TIP3    H1 6042   1.220   0.262   5.631 -1.4856 -0.7668 -0.1376
 2026TIP3    H2 6043   1.191   0.287   5.778 -0.3932  0.9870 -0.1857
 2027TIP3   OH2 6044   2.257   3.923   2.787 -0.5178  0.0509 -0.1769
 2027TIP3    H1 6045   2.227   3.960   2.870  0.5213  0.5858 -0.0134
 2027TIP3    H2 6046   2.178   3.887   2.747 -1.0482 -0.1826  1.0169
 2028TIP3   OH2 6047   2.079   4.564   1.124 -0.1240 -0.2137  0.7742
 2028TIP3    H1 6048   2.030   4.617   1.186 -0.8772  0.1743 -0.1182
 2028TIP3    H2 6049   2.056   4.474   1.145 -0.6812 -0.0640  0.8160
 2029TIP3   OH2 6050   5.120   6.426   3.626 -0.2314 -0.2477 -0.3101
 2029TIP3    H1 6051   5.152   6.482   3.696  0.4796  1.1718 -1.6864
 2029TIP3    H2 6052   5.192   6.366   3.608  0.2340  0.4586 -0.8747
 2030TIP3   OH2 6053   0.539   0.867   4.967  0.0355  0.2678  0.1443
 2030TIP3    H1 6054   0.498   0.930   5.026  0.3209 -1.0511  1.8271
 2030TIP3    H2 6055   0.466   0.825   4.921 -0.2958  0.3068  0.6284
 2031TIP3   OH2 6056   5.470   3.492   2.667 -0.4907 -0.3315 -0.3440
 2031TIP3    H1 6057   5.508   3.462   2.584 -2.6179 -1.6670 -0.9027
 2031TIP3    H2 6058   5.458   3.586   2.654  2.0191  0.0733 -0.3220
 2032TIP3   OH2 6059   2.032   5.682   3.744 -0.1056  0.6020  0.3622
 2032TIP3    H1 6060   2.009   5.770   3.713  0.2414 -0.2694 -2.6837
 2032TIP3    H2 6061   1.997   5.623   3.677 -0.3841 -1.6398  2.3530
 2033TIP3   OH2 6062   6.449   3.596   2.823 -0.0646 -0.4969 -0.7777
 2033TIP3    H1 6063   6.378   3.660   2.823  1.8810  2.1314  3.9913
 2033TIP3    H2 6064   6.405   3.512   2.806 -4.1582  1.0434  0.9298
 2034TIP3   OH2 6065   3.004   3.696   5.462  0.3479  0.0965 -0.2450
 2034TIP3    H1 6066   2.917   3.734   5.455  0.7297  1.0035 -0.2416
 2034TIP3    H2 6067   3.063   3.767   5.436  1.0382 -0.8073 -1.2235
 2035TIP3   OH2 6068   0.328   4.349   4.787  0.0692  0.3173  0.5281
 2035TIP3    H1 6069   0.280   4.428   4.761  1.2810  1.3117  1.1807
 2035TIP3    H2 6070   0.346   4.361   4.881  0.6649 -0.5149  0.5374
 2036TIP3   OH2 6071   0.778   3.875   5.805 -0.0835 -0.3054  0.0312
 2036TIP3    H1 6072   0.831   3.884   5.884  2.0876  0.3207 -1.3935
 2036TIP3    H2 6073   0.830   3.917   5.736 -0.7499 -2.8148 -2.2043
 2037TIP3   OH2 6074   5.499   1.736   4.270 -0.2081  0.4484  0.2902
 2037TIP3    H1 6075   5.519   1.708   4.181 -1.3765 -2.0224  0.7118
 2037TIP3    H2 6076   5.577   1.712   4.321 -0.5947 -0.6838  0.3725
 2038TIP3   OH2 6077   3.842   0.962   2.583  0.3736  0.2548 -0.2006
 2038TIP3    H1 6078   3.775   0.900   2.610  0.1232  1.0276  1.0211
 2038TIP3    H2 6079   3.793   1.037   2.550  0.6184  0.7990  0.6420
 2039TIP3   OH2 6080   4.409   2.646   1.143  0.4201  0.3391  0.7176
 2039TIP3    H1 6081   4.343   2.641   1.073 -0.3561 -0.7611  1.4991
 2039TIP3    H2 6082   4.425   2.740   1.154  0.8601  0.5294 -1.2014
 2040TIP3   OH2 6083   6.879   4.115   5.904  0.2156 -0.6422 -0.2323
 2040TIP3    H1 6084   6.965   4.086   5.934 -0.0251 -2.1508 -0.8626
 2040TIP3    H2 6085   6.880   4.098   5.809 -1.2375 -2.0886 -0.0492
 2041TIP3   OH2 6086   1.838   3.923   1.630  0.0335 -0.2606 -0.8740
 2041TIP3    H1 6087   1.810   3.855   1.569  1.0034 -0.4253 -1.1605
 2041TIP3    H2 6088   1.779   3.916   1.704  0.3292 -1.6492 -0.7483
 2042TIP3   OH2 6089   4.026   4.631   2.293  0.1074  0.3093 -0.0313
 2042TIP3    H1 6090   3.997   4.587   2.213  0.3797 -0.5650  0.3353
 2042TIP3    H2 6091   3.946   4.650   2.341  0.0439 -1.0310  0.4332
 2043TIP3   OH2 6092   0.464   5.941   0.835 -0.9225 -0.3900 -0.0706
 2043TIP3    H1 6093   0.483   5.851   0.862 -1.7651 -0.1766  1.3122
 2043TIP3    H2 6094   0.464   5.937   0.739  1.4276 -1.3467 -0.1073
 2044TIP3   OH2 6095   0.550   6.727   5.724  0.3563  0.1747 -0.0702
 2044TIP3    H1 6096   0.512   6.789   5.661 -0.6605 -0.6247 -0.2688
 2044TIP3    H2 6097   0.626   6.773   5.760 -1.6876  2.5204  1.5351
 2045TIP3   OH2 6098   6.233   1.046   5.475  0.5288 -0.4430 -0.1147
 2045TIP3    H1 6099   6.173   1.010   5.540  0.0670 -0.5015 -0.5707
 2045TIP3    H2 6100   6.216   1.140   5.475  0.7456 -0.4031  0.0674
 2046TIP3   OH2 6101   4.490   3.155   1.412 -0.0784  0.0999 -0.0468
 2046TIP3    H1 6102   4.511   3.219   1.480 -0.9088  1.8256 -1.3271
 2046TIP3    H2 6103   4.575   3.136   1.371  0.1204  0.8105  0.0147
 2047TIP3   OH2 6104   5.909   1.152   2.542 -0.2685 -0.7570  0.1674
 2047TIP3    H1 6105   5.894   1.184   2.631  0.0589 -1.0026  0.3119
 2047TIP3    H2 6106   5.821   1.139   2.506 -0.4371 -2.4732  1.1124
 2048TIP3   OH2 6107   2.995   3.505   2.544  0.1439  0.3873  0.4102
 2048TIP3    H1 6108   3.043   3.584   2.520 -0.6117  0.4783 -0.8280
 2048TIP3    H2 6109   2.910   3.513   2.501  0.1307 -1.1929  0.0732
 2049TIP3   OH2 6110   5.014   3.482   3.643  0.2940 -0.2871  0.4115
 2049TIP3    H1 6111   4.973   3.408   3.597 -1.9594 -1.0409  3.3595
 2049TIP3    H2 6112   4.989   3.559   3.591  0.0570 -1.2977 -1.0302
 2050TIP3   OH2 6113   1.243   2.413   2.477 -0.1216  0.6713 -0.2518
 2050TIP3    H1 6114   1.291   2.337   2.509  2.6433  3.2576  2.3723
 2050TIP3    H2 6115   1.296   2.446   2.404 -1.4577  0.0335 -1.5673
 2051TIP3   OH2 6116   4.560   5.240   2.259  0.1289 -0.3101  0.1008
 2051TIP3    H1 6117   4.611   5.192   2.324  1.0815 -0.0005 -0.3903
 2051TIP3    H2 6118   4.593   5.330   2.264 -1.3795  0.2358  0.7568
 2052TIP3   OH2 6119   5.282   4.578   2.295  0.3198 -0.3382 -0.1640
 2052TIP3    H1 6120   5.293   4.573   2.390  0.5951 -1.8971 -0.2598
 2052TIP3    H2 6121   5.369   4.598   2.261  0.0983  0.8677 -0.0703
 2053TIP3   OH2 6122   5.521   2.022   4.304  0.1081 -0.0328  0.5529
 2053TIP3    H1 6123   5.500   1.928   4.307  0.0736 -0.0367  0.1852
 2053TIP3    H2 6124   5.455   2.062   4.361 -0.7982 -0.0699 -0.4402
 2054TIP3   OH2 6125   2.151   6.317   1.969  0.0052  0.5225 -0.3885
 2054TIP3    H1 6126   2.114   6.401   1.995 -1.9592 -0.7839  1.3471
 2054TIP3    H2 6127   2.141   6.261   2.046 -0.7538 -1.9275 -2.1342
 2055TIP3   OH2 6128   6.830   1.901   0.526 -0.2697  0.0806 -0.3041
 2055TIP3    H1 6129   6.885   1.870   0.454 -1.0944 -2.3902  0.0063
 2055TIP3    H2 6130   6.744   1.863   0.509 -1.1941  1.6302  0.6258
 2056TIP3   OH2 6131   3.395   2.233   0.214 -0.0539 -0.4042 -0.0988
 2056TIP3    H1 6132   3.479   2.214   0.173  0.2275 -2.1074  1.1365
 2056TIP3    H2 6133   3.360   2.307   0.165  1.5926 -0.4537 -1.4325
 2057TIP3   OH2 6134   4.960   2.206   2.513 -0.3021  0.7542 -0.8167
 2057TIP3    H1 6135   5.033   2.214   2.574 -1.5346 -1.0223  1.0482
 2057TIP3    H2 6136   4.938   2.296   2.490  1.0611  1.4270  0.3437
 2058TIP3   OH2 6137   1.734   2.327   3.489 -0.5479 -0.2266 -0.4551
 2058TIP3    H1 6138   1.709   2.292   3.404  0.0376 -0.2956 -0.6032
 2058TIP3    H2 6139   1.750   2.249   3.543 -0.0759 -0.1846 -0.5352
 2059TIP3   OH2 6140   3.885   1.154   1.972  0.3248 -0.0032  0.6008
 2059TIP3    H1 6141   3.806   1.207   1.972  0.6422  0.5351  2.5176
 2059TIP3    H2 6142   3.940   1.192   1.903 -0.1813  1.0203  0.7496
 2060TIP3   OH2 6143   2.777   3.205   0.294 -0.1478  0.3171  0.1743
 2060TIP3    H1 6144   2.682   3.193   0.298  0.0952 -2.1995 -0.3518
 2060TIP3    H2 6145   2.810   3.127   0.249  2.2562  0.7893  0.9467
 2061TIP3   OH2 6146   7.111   4.523   5.514 -0.0137  0.2659  0.6946
 2061TIP3    H1 6147   7.152   4.524   5.601  0.4724 -0.4995  0.4791
 2061TIP3    H2 6148   7.019   4.504   5.531  0.2775 -0.9337  0.9712
 2062TIP3   OH2 6149   0.791   6.326   2.270 -0.3950 -0.0766 -0.0024
 2062TIP3    H1 6150   0.697   6.341   2.273 -0.2973  0.5697 -0.1203
 2062TIP3    H2 6151   0.830   6.412   2.287  0.1693 -0.2444 -0.4147
 2063TIP3   OH2 6152   3.587   3.442   1.316  1.2857 -0.4442  0.1427
 2063TIP3    H1 6153   3.522   3.457   1.385  0.4943 -1.2045 -0.4041
 2063TIP3    H2 6154   3.649   3.514   1.324  1.8739 -1.1263  2.3812
 2064TIP3   OH2 6155   6.237   2.047   2.492 -0.0646 -0.0640  0.2175
 2064TIP3    H1 6156   6.229   1.954   2.514  1.6422 -0.6618 -1.4373
 2064TIP3    H2 6157   6.317   2.075   2.537  0.4798  0.0903 -0.8287
 2065TIP3   OH2 6158   2.185   4.068   3.943  0.3599  0.0972 -0.3583
 2065TIP3    H1 6159   2.146   4.155   3.936  0.0122  0.0383  0.6659
 2065TIP3    H2 6160   2.194   4.039   3.852  0.1412  1.0494 -0.6983
 2066TIP3   OH2 6161   0.375   0.403   0.689  0.4579 -0.5438  0.6127
 2066TIP3    H1 6162   0.337   0.487   0.663  1.1792  0.2138  1.9062
 2066TIP3    H2 6163   0.392   0.413   0.782  3.4941 -0.9661  0.1815
 2067TIP3   OH2 6164   0.550   0.470   4.562 -0.0530 -0.1382  0.2483
 2067TIP3    H1 6165   0.527   0.457   4.654  2.2931 -1.1230  0.7598
 2067TIP3    H2 6166   0.642   0.443   4.556 -0.1137  0.0056 -2.3731
 2068TIP3   OH2 6167   1.346   6.171   3.753 -0.3175  0.4118 -0.6512
 2068TIP3    H1 6168   1.391   6.255   3.742  1.2263 -0.1020  1.1808
 2068TIP3    H2 6169   1.360   6.148   3.845 -2.7866 -0.7169 -0.4741
 2069TIP3   OH2 6170   2.196   2.365   1.016  0.0740 -0.2759  0.5395
 2069TIP3    H1 6171   2.172   2.330   1.102  1.4948 -0.4129  0.9059
 2069TIP3    H2 6172   2.214   2.458   1.031 -0.6013 -0.0880  0.1988
 2070TIP3   OH2 6173   3.590   0.399   2.592  0.0378  0.2109  0.1663
 2070TIP3    H1 6174   3.578   0.371   2.683  1.9264 -2.3451 -0.2799
 2070TIP3    H2 6175   3.510   0.447   2.571 -1.6384 -1.4264  2.3488
 2071TIP3   OH2 6176   6.209   1.425   1.267 -0.2618 -0.8272  0.3287
 2071TIP3    H1 6177   6.164   1.452   1.186  0.4177 -1.1414 -0.1622
 2071TIP3    H2 6178   6.163   1.346   1.295 -1.1289 -0.1681  0.7987
 2072TIP3   OH2 6179   3.022   2.941   3.126 -0.0100 -0.1575  0.0888
 2072TIP3    H1 6180   2.977   2.907   3.049 -1.3959 -0.7400  1.1097
 2072TIP3    H2 6181   3.101   2.887   3.133  0.0583 -0.1877 -0.8454
 2073TIP3   OH2 6182   5.971   1.103   0.048 -0.0297  0.0305 -0.4783
 2073TIP3    H1 6183   5.950   1.056  -0.033 -0.7936  1.1209 -0.9230
 2073TIP3    H2 6184   5.926   1.187   0.040  0.2033  0.3075  0.9134
 2074TIP3   OH2 6185   6.114   6.134   5.654 -0.4417  0.1839  0.4035
 2074TIP3    H1 6186   6.056   6.183   5.596  1.3763  1.4310 -0.4354
 2074TIP3    H2 6187   6.148   6.200   5.714 -0.2171 -0.6142  1.1615
 2075TIP3   OH2 6188   2.056   0.838   1.735  0.0228  0.1046  0.8732
 2075TIP3    H1 6189   2.038   0.744   1.727  1.1462 -0.0642  0.0033
 2075TIP3    H2 6190   2.001   0.878   1.668  0.4410 -0.0820  0.4021
 2076TIP3   OH2 6191   2.114   2.033   0.113  0.4349 -0.1742 -0.6362
 2076TIP3    H1 6192   2.086   2.040   0.021  0.6597  1.8458 -0.6011
 2076TIP3    H2 6193   2.200   2.076   0.115 -0.5298  1.8433  0.8812
 2077TIP3   OH2 6194   3.148   3.465   0.927  0.3985 -0.1883  0.6760
 2077TIP3    H1 6195   3.193   3.540   0.966  0.3809 -0.2229  0.7632
 2077TIP3    H2 6196   3.201   3.389   0.953  0.3634 -0.2155  0.6679
 2078TIP3   OH2 6197   4.956   5.899   1.303 -0.0153  0.4698 -0.3349
 2078TIP3    H1 6198   4.980   5.885   1.394  1.0600  1.1037 -0.4981
 2078TIP3    H2 6199   4.879   5.843   1.289  1.4997 -1.8959  0.1651
 2079TIP3   OH2 6200   6.737   3.116   4.398  0.0749 -0.1096  0.4122
 2079TIP3    H1 6201   6.782   3.048   4.348  0.1786 -1.1528  1.8494
 2079TIP3    H2 6202   6.780   3.114   4.484 -0.8643  0.8129  0.9173
 2080TIP3   OH2 6203   1.484   2.591   0.426  0.2066  0.7657  0.0003
 2080TIP3    H1 6204   1.450   2.619   0.511  0.4872  0.3763  0.2457
 2080TIP3    H2 6205   1.548   2.658   0.403  0.6753  0.4884  0.4555
 2081TIP3   OH2 6206   1.757   5.425   0.113  0.2851 -0.5019 -0.0415
 2081TIP3    H1 6207   1.673   5.386   0.088 -0.4686 -0.7567  2.5859
 2081TIP3    H2 6208   1.733   5.504   0.163  1.7254  1.2360 -1.9012
 2082TIP3   OH2 6209   5.958   1.777   1.771  0.2552  0.1232  0.4361
 2082TIP3    H1 6210   6.004   1.695   1.791 -0.9032 -0.2381  1.8288
 2082TIP3    H2 6211   5.907   1.796   1.850 -1.7649  0.6346 -0.8947
 2083TIP3   OH2 6212   6.224   4.841   0.647 -0.6143 -0.2304  0.4444
 2083TIP3    H1 6213   6.168   4.888   0.708 -0.4882 -0.4685  0.7422
 2083TIP3    H2 6214   6.272   4.911   0.601 -0.7697 -0.0494  0.5543
 2084TIP3   OH2 6215   6.732   1.723   5.007 -0.3632  0.0030 -0.1492
 2084TIP3    H1 6216   6.693   1.637   5.023 -1.8313  0.8126  0.8495
 2084TIP3    H2 6217   6.798   1.707   4.939  0.9503 -2.2800  1.5327
 2085TIP3   OH2 6218   1.557   3.486   0.858 -0.5489  0.2285  0.1769
 2085TIP3    H1 6219   1.585   3.528   0.940 -1.4189  0.5031  0.3449
 2085TIP3    H2 6220   1.583   3.547   0.790  4.4111 -1.9297 -0.3287
 2086TIP3   OH2 6221   3.217   5.295   2.174  0.6021 -0.2626 -0.6531
 2086TIP3    H1 6222   3.297   5.244   2.184  1.3967  1.0815  0.1717
 2086TIP3    H2 6223   3.207   5.306   2.079  1.6497 -0.0733 -0.7502
 2087TIP3   OH2 6224   6.457   6.092   2.398  0.0588 -0.1278 -0.5298
 2087TIP3    H1 6225   6.447   6.105   2.304  0.0900  3.7769 -0.1772
 2087TIP3    H2 6226   6.370   6.067   2.429  0.1808 -2.0064 -1.6133
 2088TIP3   OH2 6227   2.244   5.173   5.638  0.0672  0.4234  0.4189
 2088TIP3    H1 6228   2.259   5.099   5.579  0.5570  1.1576 -0.4001
 2088TIP3    H2 6229   2.152   5.165   5.662  0.6374 -1.7645  2.2006
 2089TIP3   OH2 6230   4.223   5.090   1.447  0.4501 -0.2469 -0.3252
 2089TIP3    H1 6231   4.158   5.115   1.512  1.0195 -0.5630  0.3875
 2089TIP3    H2 6232   4.207   5.148   1.373  0.1727  0.5319  0.3311
 2090TIP3   OH2 6233   0.194   2.243   4.082  0.2222 -0.0549 -0.4761
 2090TIP3    H1 6234   0.183   2.290   3.999  1.4475  0.6061 -0.2855
 2090TIP3    H2 6235   0.276   2.195   4.072 -0.0912 -0.6998  0.0206
 2091TIP3   OH2 6236   6.180   3.361   5.735 -0.0689  0.2371  0.6244
 2091TIP3    H1 6237   6.196   3.271   5.707  0.7072  0.5191  0.1116
 2091TIP3    H2 6238   6.147   3.404   5.656 -1.9062  0.0695  1.2400
 2092TIP3   OH2 6239   0.605   4.152   2.345  0.9239  0.2273  0.0544
 2092TIP3    H1 6240   0.635   4.123   2.259  0.5420  0.6224 -0.2141
 2092TIP3    H2 6241   0.621   4.246   2.345  1.8590  0.0781  0.7986
 2093TIP3   OH2 6242   7.061   6.163   2.428 -0.0379 -0.8609 -0.4096
 2093TIP3    H1 6243   7.072   6.217   2.507 -0.3179 -1.4375  0.0342
 2093TIP3    H2 6244   6.967   6.165   2.410  0.2452  1.1372 -2.1008
 2094TIP3   OH2 6245   4.537   6.448   4.439  0.4230  0.3307  0.1744
 2094TIP3    H1 6246   4.452   6.414   4.466  0.7863 -1.5830 -0.8850
 2094TIP3    H2 6247   4.519   6.501   4.362  0.1385  0.1413  0.1066
 2095TIP3   OH2 6248   3.334   2.920   1.377 -0.5674 -0.0028  0.1798
 2095TIP3    H1 6249   3.289   2.914   1.460 -1.5916 -1.2128 -0.4265
 2095TIP3    H2 6250   3.427   2.918   1.400 -0.7345 -3.6807  1.2142
 2096TIP3   OH2 6251   5.158   0.441   1.974 -0.0837 -0.3997  0.1383
 2096TIP3    H1 6252   5.089   0.383   2.007 -2.8132  0.9302 -2.6767
 2096TIP3    H2 6253   5.199   0.391   1.903  0.0397 -0.1995  0.0675
 2097TIP3   OH2 6254   1.596   5.121   0.741 -0.1896  0.1403 -0.0599
 2097TIP3    H1 6255   1.586   5.215   0.757  0.6621  0.1856  0.2601
 2097TIP3    H2 6256   1.534   5.102   0.670  0.1794  1.1002 -0.6549
 2098TIP3   OH2 6257   1.594   2.166   0.676  0.1082 -0.2158  0.0938
 2098TIP3    H1 6258   1.674   2.207   0.709  1.0212 -2.0000  0.1728
 2098TIP3    H2 6259   1.574   2.215   0.596 -0.9305  2.7427  1.9868
 2099TIP3   OH2 6260   6.514   0.798   4.188 -0.0046  0.2563  0.3253
 2099TIP3    H1 6261   6.453   0.824   4.119 -1.3934  0.0635  1.4183
 2099TIP3    H2 6262   6.493   0.857   4.261  1.4543  0.4851  0.5784
 2100TIP3   OH2 6263   0.167   0.612   0.685 -0.1886  0.4732  0.3588
 2100TIP3    H1 6264   0.093   0.588   0.741 -0.5320  0.9179  0.1077
 2100TIP3    H2 6265   0.131   0.678   0.626  0.4912  0.9004  0.4178
 2101TIP3   OH2 6266   4.715   1.520   1.712  0.0889 -0.1485  0.1275
 2101TIP3    H1 6267   4.626   1.552   1.725  0.2525  0.3131  0.1282
 2101TIP3    H2 6268   4.716   1.489   1.621 -0.2938 -0.8976  0.3710
 2102TIP3   OH2 6269   6.805   5.243   0.346 -0.0902  0.2056 -0.3022
 2102TIP3    H1 6270   6.716   5.229   0.314 -0.2773 -1.6719  0.8752
 2102TIP3    H2 6271   6.823   5.167   0.401  2.4396  0.3045 -0.8849
 2103TIP3   OH2 6272   1.955   5.809   5.060  0.3295  0.0229  0.0382
 2103TIP3    H1 6273   1.978   5.896   5.093 -0.4252  0.5467 -0.7913
 2103TIP3    H2 6274   1.933   5.823   4.969 -0.6860 -0.9026  0.1271
 2104TIP3   OH2 6275   5.223   3.401   2.360 -0.4441  0.2044  0.1127
 2104TIP3    H1 6276   5.246   3.312   2.332 -0.2972  0.2011  0.2450
 2104TIP3    H2 6277   5.160   3.431   2.294  0.1860  0.3380 -0.4297
 2105TIP3   OH2 6278   3.536   6.798   4.141  0.0231  0.5455  0.1433
 2105TIP3    H1 6279   3.442   6.791   4.125 -0.0236  0.3375  0.4872
 2105TIP3    H2 6280   3.577   6.750   4.068 -0.1660  0.0057  0.3850
 2106TIP3   OH2 6281   7.056   0.396   4.246  0.3426  0.2281  0.8502
 2106TIP3    H1 6282   7.102   0.463   4.296  1.5898 -0.7645  1.0759
 2106TIP3    H2 6283   6.973   0.384   4.293 -0.9583  3.1527 -0.4524
 2107TIP3   OH2 6284   5.850   1.054   0.298 -0.1836  0.0517  0.0774
 2107TIP3    H1 6285   5.791   1.127   0.317 -3.1284 -1.6579 -1.6682
 2107TIP3    H2 6286   5.878   1.068   0.207 -1.2301 -1.1780 -0.4719
 2108TIP3   OH2 6287   2.135   1.554   0.929 -0.2956 -0.2121 -0.5344
 2108TIP3    H1 6288   2.061   1.504   0.962  0.1049  0.6437  1.8636
 2108TIP3    H2 6289   2.096   1.621   0.873 -1.0370 -1.5292 -1.6473
 2109TIP3   OH2 6290   1.025   2.623   4.374 -0.2111  0.4562  0.5317
 2109TIP3    H1 6291   0.978   2.703   4.352  0.8851  1.1456  0.6374
 2109TIP3    H2 6292   1.011   2.565   4.299 -0.2678  1.0817  0.0592
 2110TIP3   OH2 6293   0.613   1.963   0.224  0.4875  0.3031 -0.4593
 2110TIP3    H1 6294   0.600   2.010   0.307 -0.4640  0.1130 -0.4897
 2110TIP3    H2 6295   0.708   1.959   0.214  0.6170  2.0052 -0.3299
 2111TIP3   OH2 6296   3.964   5.315   0.811 -0.2736 -0.3372  0.6249
 2111TIP3    H1 6297   3.911   5.238   0.831 -0.7395 -0.4982 -1.0874
 2111TIP3    H2 6298   3.909   5.389   0.836 -0.2925 -0.5248  1.1699
 2112TIP3   OH2 6299   6.435   2.813   2.172 -0.0312  0.1277 -0.0044
 2112TIP3    H1 6300   6.389   2.882   2.124 -1.6931 -0.1235  1.1573
 2112TIP3    H2 6301   6.480   2.859   2.243 -0.5957  0.1037  0.3743
 2113TIP3   OH2 6302   3.941   6.349   3.421 -0.3684  0.0086 -0.0854
 2113TIP3    H1 6303   3.846   6.343   3.411 -0.6859  2.0018  1.1905
 2113TIP3    H2 6304   3.971   6.388   3.339 -0.3369 -2.4308 -1.3243
 2114TIP3   OH2 6305   5.709   3.618   1.668 -0.3778  0.0736  0.2891
 2114TIP3    H1 6306   5.701   3.702   1.714 -1.4560 -0.0094  0.2963
 2114TIP3    H2 6307   5.800   3.593   1.679  0.1971  1.6870 -0.4888
 2115TIP3   OH2 6308   4.177   6.562   4.740 -0.1644  0.2026  0.0530
 2115TIP3    H1 6309   4.117   6.510   4.687 -0.5319  1.0092 -0.3338
 2115TIP3    H2 6310   4.194   6.641   4.688  0.8898  0.1842  0.3506
 2116TIP3   OH2 6311   3.482   4.390   2.871 -0.1139 -0.3977 -0.2563
 2116TIP3    H1 6312   3.406   4.395   2.930  1.4346 -1.6281  2.0186
 2116TIP3    H2 6313   3.513   4.481   2.865  0.0210 -0.3069  1.3501
 2117TIP3   OH2 6314   6.234   3.875   2.534 -0.0538 -0.1044 -0.4132
 2117TIP3    H1 6315   6.201   3.958   2.500 -0.8090 -0.0158  0.4926
 2117TIP3    H2 6316   6.327   3.876   2.514 -0.0408  1.0009 -0.3356
 2118TIP3   OH2 6317   5.849   1.060   3.741  0.0720  0.5323  0.2888
 2118TIP3    H1 6318   5.790   1.048   3.816  1.6146  0.1802  1.5129
 2118TIP3    H2 6319   5.854   0.974   3.699  1.8420 -0.2314  1.8942
 2119TIP3   OH2 6320   3.532   3.070   4.319  0.1111 -0.3743  0.1629
 2119TIP3    H1 6321   3.598   3.058   4.251 -0.8676 -0.1291 -0.8507
 2119TIP3    H2 6322   3.564   3.145   4.370  0.3928  0.0290 -0.5917
 2120TIP3   OH2 6323   0.461   5.809   5.220  0.1845 -0.3414 -0.5556
 2120TIP3    H1 6324   0.475   5.849   5.134 -0.9310 -0.1678 -0.6724
 2120TIP3    H2 6325   0.474   5.715   5.205  1.9944 -0.1377 -0.4557
 2121TIP3   OH2 6326   1.285   2.766   3.258 -0.2990 -0.1090  0.0592
 2121TIP3    H1 6327   1.349   2.809   3.314 -1.8310  1.9759  0.3561
 2121TIP3    H2 6328   1.303   2.673   3.268  0.8676  0.2779  2.3210
 2122TIP3   OH2 6329   5.111   5.719   4.447 -0.2045  0.7284 -0.1284
 2122TIP3    H1 6330   5.180   5.681   4.393 -1.0474 -2.4742  0.8691
 2122TIP3    H2 6331   5.042   5.741   4.385 -0.8556 -2.2137 -0.5860
 2123TIP3   OH2 6332   3.486   2.518   3.306  0.3999  0.6268  0.0688
 2123TIP3    H1 6333   3.551   2.564   3.358 -0.1109 -0.2275  1.5038
 2123TIP3    H2 6334   3.402   2.539   3.347  0.2438 -2.9451  2.0152
 2124TIP3   OH2 6335   5.573   2.911   3.339 -0.5502 -0.0142  0.0493
 2124TIP3    H1 6336   5.536   2.847   3.399 -0.5631  0.1343  0.1997
 2124TIP3    H2 6337   5.596   2.986   3.394 -1.5409  0.5412 -0.2824
 2125TIP3   OH2 6338   3.487   2.575   2.288  0.1372  0.1990  0.4059
 2125TIP3    H1 6339   3.557   2.545   2.346 -0.9780 -1.2954  1.0208
 2125TIP3    H2 6340   3.434   2.633   2.343 -0.0581 -0.0040  0.4309
 2126TIP3   OH2 6341   4.027   0.846   4.478 -0.0263  0.6643  0.0275
 2126TIP3    H1 6342   4.029   0.906   4.553 -0.9151  0.7005  0.0330
 2126TIP3    H2 6343   3.973   0.772   4.508  2.4511 -1.0138  0.6421
 2127TIP3   OH2 6344   2.111   4.540   4.506  0.3249 -0.3632 -0.3600
 2127TIP3    H1 6345   2.135   4.498   4.589  0.2664  0.2004 -0.0566
 2127TIP3    H2 6346   2.021   4.510   4.489  0.1762 -0.1274  0.0068
 2128TIP3   OH2 6347   6.263   1.412   1.867  0.0249  0.0584 -0.0568
 2128TIP3    H1 6348   6.260   1.496   1.821 -0.9256  0.2589  0.3434
 2128TIP3    H2 6349   6.285   1.436   1.957  2.1903 -0.3571 -0.4285
 2129TIP3   OH2 6350   4.638   0.388   1.195 -0.4011  0.1391  0.2096
 2129TIP3    H1 6351   4.722   0.398   1.238 -0.2528  0.2888 -0.1118
 2129TIP3    H2 6352   4.648   0.310   1.141 -0.3537  0.3511 -0.0913
 2130TIP3   OH2 6353   5.366   1.336   1.439  0.8077 -0.9493 -0.5015
 2130TIP3    H1 6354   5.356   1.261   1.380  1.5402 -1.8816  0.5389
 2130TIP3    H2 6355   5.332   1.305   1.523 -1.3323  0.7375 -0.6601
 2131TIP3   OH2 6356   6.084   3.230   1.674 -0.0671  0.3975  0.4494
 2131TIP3    H1 6357   6.033   3.176   1.614 -0.7274  0.4555  0.9483
 2131TIP3    H2 6358   6.127   3.166   1.732 -0.9649  0.3914  1.1340
 2132TIP3   OH2 6359   2.661   5.779   2.119  0.1865  0.0644  0.0725
 2132TIP3    H1 6360   2.649   5.815   2.207  2.1047  0.0885  0.3650
 2132TIP3    H2 6361   2.572   5.773   2.083 -0.6471 -0.1522  2.0734
 2133TIP3   OH2 6362   2.384   0.768   4.443  0.2131 -0.2650 -0.4811
 2133TIP3    H1 6363   2.293   0.745   4.420 -0.2276  0.6486  0.2726
 2133TIP3    H2 6364   2.432   0.760   4.360 -0.0906 -2.7809 -0.4975
 2134TIP3   OH2 6365   3.201   1.397   5.247  0.1051  0.3890 -0.7041
 2134TIP3    H1 6366   3.252   1.431   5.321 -0.3390 -1.1294  0.3593
 2134TIP3    H2 6367   3.150   1.471   5.217 -0.8289  0.7209  1.4997
 2135TIP3   OH2 6368   5.518   1.162   0.297  0.2773  0.1672  0.2863
 2135TIP3    H1 6369   5.516   1.258   0.307 -0.9787  0.1994 -0.1431
 2135TIP3    H2 6370   5.476   1.146   0.213 -0.5286 -0.8204  0.8566
 2136TIP3   OH2 6371   1.745   5.054   2.818  0.5394 -0.3237 -0.1284
 2136TIP3    H1 6372   1.777   5.007   2.741  1.5495 -0.9718  0.6633
 2136TIP3    H2 6373   1.812   5.120   2.835  1.3047 -1.4365  1.3197
 2137TIP3   OH2 6374   4.230   4.079   3.093  0.4748 -0.5098 -0.5621
 2137TIP3    H1 6375   4.237   4.129   3.012  1.8181 -0.5492 -0.4927
 2137TIP3    H2 6376   4.307   4.023   3.094  1.0285  0.2000  1.2097
 2138TIP3   OH2 6377   1.486   5.055   4.759 -0.1164 -0.3148  0.4946
 2138TIP3    H1 6378   1.441   4.977   4.791 -1.4574  0.5143  0.7360
 2138TIP3    H2 6379   1.429   5.127   4.784  0.2119  0.6197 -1.2733
 2139TIP3   OH2 6380   1.866   1.163   5.147 -0.1127  0.2935  0.2417
 2139TIP3    H1 6381   1.927   1.162   5.074 -0.0438  0.0328  0.3026
 2139TIP3    H2 6382   1.791   1.110   5.117 -0.8240  1.5457 -0.2698
 2140TIP3   OH2 6383   5.619   1.001   1.006 -0.2070  0.0064 -0.2748
 2140TIP3    H1 6384   5.543   0.944   0.999 -0.5692  0.5813 -1.2846
 2140TIP3    H2 6385   5.671   0.982   0.928  0.8526 -0.6104  0.5727
 2141TIP3   OH2 6386   5.980   6.343   5.268 -0.5770 -0.0215 -0.2938
 2141TIP3    H1 6387   5.887   6.361   5.260 -0.3432  0.7858 -1.3944
 2141TIP3    H2 6388   6.001   6.285   5.195 -0.6077 -1.9993  1.1820
 2142TIP3   OH2 6389   3.313   0.887   0.185  0.2804 -0.3766  0.3252
 2142TIP3    H1 6390   3.365   0.934   0.120 -0.6281 -0.1591 -0.2563
 2142TIP3    H2 6391   3.353   0.800   0.190  0.0633 -0.5641 -0.8941
 2143TIP3   OH2 6392   5.183   3.864   3.824 -0.1957  0.3063  0.1460
 2143TIP3    H1 6393   5.270   3.828   3.842 -0.2875  0.9006  1.9155
 2143TIP3    H2 6394   5.125   3.787   3.822  0.3832 -0.1252 -1.3835
 2144TIP3   OH2 6395   1.672   2.998   2.000 -0.3023 -0.3067  0.5717
 2144TIP3    H1 6396   1.684   3.088   1.971  1.0233 -0.1745  1.4425
 2144TIP3    H2 6397   1.647   3.005   2.092 -2.8024 -0.7720 -0.0014
 2145TIP3   OH2 6398   6.587   2.060   5.662  0.0056  0.5512  0.3007
 2145TIP3    H1 6399   6.498   2.043   5.692  0.3714  0.3523  1.3053
 2145TIP3    H2 6400   6.583   2.049   5.567 -1.0512  0.6164  0.3301
 2146TIP3   OH2 6401   2.801   6.415   3.906 -0.2446  0.0730 -0.2412
 2146TIP3    H1 6402   2.788   6.481   3.973 -0.0187  0.0778 -0.2019
 2146TIP3    H2 6403   2.777   6.332   3.948 -0.0538  0.0700 -0.1403
 2147TIP3   OH2 6404   5.943   2.980   1.062  0.5298 -0.5180 -0.1563
 2147TIP3    H1 6405   5.865   2.944   1.021 -0.3199  1.6515 -0.5844
 2147TIP3    H2 6406   5.955   2.928   1.141 -2.3122  0.0646  0.7657
 2148TIP3   OH2 6407   1.790   1.401   3.229 -0.2210  0.0015 -0.5680
 2148TIP3    H1 6408   1.796   1.488   3.189  0.0056 -0.9124 -2.5973
 2148TIP3    H2 6409   1.865   1.396   3.288  1.6602  0.0270 -2.8381
 2149TIP3   OH2 6410   1.459   3.270   2.146 -0.0202  0.1054 -0.2557
 2149TIP3    H1 6411   1.489   3.187   2.182  1.3847  0.0574 -1.4510
 2149TIP3    H2 6412   1.439   3.251   2.055  0.9980  1.2079 -0.7331
 2150TIP3   OH2 6413   3.954   4.039   2.177 -0.3331  0.2110  0.0018
 2150TIP3    H1 6414   3.997   3.996   2.251 -0.7887 -0.3492 -0.0530
 2150TIP3    H2 6415   3.933   3.968   2.116 -1.0817  0.5011 -0.0981
 2151TIP3   OH2 6416   2.253   2.576   2.145  0.1713 -0.7569 -0.4280
 2151TIP3    H1 6417   2.290   2.543   2.227 -0.2566 -0.8591 -0.2736
 2151TIP3    H2 6418   2.192   2.645   2.172 -0.6614 -1.4079 -0.5921
 2152TIP3   OH2 6419   3.590   4.593   2.720  0.5153 -0.3658  0.3465
 2152TIP3    H1 6420   3.510   4.644   2.712 -0.4132 -1.8612 -0.3193
 2152TIP3    H2 6421   3.637   4.633   2.794 -0.6371  0.7950  0.4730
 2153TIP3   OH2 6422   4.315   2.228   0.875 -0.1735 -0.4861  0.6065
 2153TIP3    H1 6423   4.247   2.293   0.859 -1.0057 -1.4563  0.0612
 2153TIP3    H2 6424   4.391   2.279   0.904 -0.1712  0.9320 -1.6526
 2154TIP3   OH2 6425   6.919   0.213   3.233 -0.0446 -0.2086 -0.1902
 2154TIP3    H1 6426   6.838   0.259   3.210 -1.3739 -2.1091  0.4376
 2154TIP3    H2 6427   6.960   0.267   3.300 -0.8942  0.6753 -0.3660
 2155TIP3   OH2 6428   1.150   2.376   0.736  0.6137 -0.1400 -0.3094
 2155TIP3    H1 6429   1.101   2.309   0.785 -0.3375  1.4561  1.0409
 2155TIP3    H2 6430   1.218   2.327   0.690 -0.1182 -2.0467  0.5127
 2156TIP3   OH2 6431   5.330   1.015   5.439 -0.2723  0.0237  0.0173
 2156TIP3    H1 6432   5.296   1.033   5.352 -0.7627  1.0584  0.4099
 2156TIP3    H2 6433   5.390   1.087   5.458  1.5154 -1.2890 -0.2928
 2157TIP3   OH2 6434   0.082   4.813   4.552 -0.4892 -0.2561 -0.2720
 2157TIP3    H1 6435   0.116   4.868   4.622 -1.2444 -2.3345  1.8853
 2157TIP3    H2 6436   0.160   4.782   4.505  0.1700 -0.2341  0.7905
 2158TIP3   OH2 6437   1.000   0.521   0.905 -0.1200 -1.4868  1.0904
 2158TIP3    H1 6438   1.015   0.460   0.833 -0.0963 -0.9350  0.6190
 2158TIP3    H2 6439   1.074   0.509   0.964  0.0184 -1.7263  0.8654
 2159TIP3   OH2 6440   3.890   3.349   5.827  0.4738  0.2982 -0.5381
 2159TIP3    H1 6441   3.871   3.436   5.793  1.8200  0.4320 -0.9849
 2159TIP3    H2 6442   3.982   3.351   5.851  0.1995 -0.6037  0.7145
 2160TIP3   OH2 6443   4.139   0.027   0.732 -0.0205 -0.2353  0.0357
 2160TIP3    H1 6444   4.176   0.115   0.723  1.1062 -0.7333 -0.2547
 2160TIP3    H2 6445   4.134  -0.007   0.643 -0.4637 -0.4724  0.1460
 2161TIP3   OH2 6446   0.029   3.214   2.591  0.0940  0.3517 -0.3025
 2161TIP3    H1 6447   0.063   3.263   2.517 -1.3517 -0.3557 -1.5091
 2161TIP3    H2 6448  -0.066   3.209   2.574 -0.0239 -1.3452  0.6640
 2162TIP3   OH2 6449   5.091   4.537   3.969 -0.3559  0.4110  0.8232
 2162TIP3    H1 6450   5.045   4.482   4.032 -1.0498  0.7292  0.6016
 2162TIP3    H2 6451   5.183   4.509   3.975 -0.6951 -0.7927  0.6748
 2163TIP3   OH2 6452   7.107   4.309   2.110  0.6397 -0.1750 -0.0675
 2163TIP3    H1 6453   7.112   4.304   2.205 -0.6347  0.0576  0.0251
 2163TIP3    H2 6454   7.080   4.399   2.092  1.2810 -0.0956 -0.6796
 2164TIP3   OH2 6455   2.488   1.177   5.521 -0.4997 -0.1811 -0.1320
 2164TIP3    H1 6456   2.544   1.128   5.461  2.3261  1.2815  1.1015
 2164TIP3    H2 6457   2.413   1.120   5.537  0.6976 -2.3480 -1.7763
 2165TIP3   OH2 6458   1.386   1.211   0.355  0.5010  0.3302 -0.1796
 2165TIP3    H1 6459   1.303   1.223   0.307  0.0640 -1.3815  0.0796
 2165TIP3    H2 6460   1.433   1.146   0.303  1.4615  0.8699 -0.0059
 2166TIP3   OH2 6461   1.672   2.037   2.281 -0.0497 -0.0637  0.3320
 2166TIP3    H1 6462   1.585   2.002   2.262  0.3717 -1.0721  0.1999
 2166TIP3    H2 6463   1.706   2.065   2.196 -1.2211  2.7540  0.6914
 2167TIP3   OH2 6464   6.985   3.604   3.159  0.6808 -0.5683  0.1504
 2167TIP3    H1 6465   6.986   3.632   3.251  2.3336  0.7948 -0.2132
 2167TIP3    H2 6466   7.077   3.584   3.140  0.3382 -0.9666 -1.1722
 2168TIP3   OH2 6467   2.676   3.374   3.663  0.2644  0.2900 -0.3919
 2168TIP3    H1 6468   2.709   3.322   3.589 -1.0752 -2.3887  0.7288
 2168TIP3    H2 6469   2.710   3.329   3.740 -4.0865 -1.4913  0.7607
 2169TIP3   OH2 6470   4.046   0.424   3.289 -0.2435 -0.0350 -0.4206
 2169TIP3    H1 6471   4.108   0.429   3.216  0.0939 -0.4824 -0.1678
 2169TIP3    H2 6472   4.069   0.344   3.335 -1.0687 -0.2561 -0.3728
 2170TIP3   OH2 6473   0.442   0.729   0.644  0.6706  0.4974  0.0904
 2170TIP3    H1 6474   0.368   0.727   0.704  0.8479 -2.8730  0.3908
 2170TIP3    H2 6475   0.517   0.754   0.698  0.4096 -0.0691  0.7260
 2171TIP3   OH2 6476   3.968   4.438   1.178 -0.6259  0.6993  0.0705
 2171TIP3    H1 6477   4.020   4.389   1.114 -2.3039 -1.2677  0.1247
 2171TIP3    H2 6478   3.941   4.518   1.132  1.8051  1.4841 -0.1594
 2172TIP3   OH2 6479   1.221   3.591   2.457  0.0929 -0.5724  0.2884
 2172TIP3    H1 6480   1.249   3.639   2.379  1.0255 -1.6437 -0.0655
 2172TIP3    H2 6481   1.303   3.560   2.496 -0.4557 -1.3833  0.8125
 2173TIP3   OH2 6482   0.756   6.649   3.092 -1.0093  0.5583  0.1439
 2173TIP3    H1 6483   0.786   6.713   3.028 -1.6267  1.0281  0.3194
 2173TIP3    H2 6484   0.696   6.592   3.043  1.2303 -1.3334 -0.6113
 2174TIP3   OH2 6485   4.821   5.871   0.508  0.1172  0.5984 -0.2197
 2174TIP3    H1 6486   4.878   5.892   0.434 -1.0354  0.7233 -1.1062
 2174TIP3    H2 6487   4.762   5.804   0.474 -0.6191  0.8696  0.5010
 2175TIP3   OH2 6488   4.117   4.610   5.485 -0.6783  0.5625 -0.2728
 2175TIP3    H1 6489   4.124   4.526   5.441  1.2437  0.8095 -0.5197
 2175TIP3    H2 6490   4.080   4.669   5.419 -1.3176  0.1063 -0.3364
 2176TIP3   OH2 6491   2.991   5.697   5.551 -0.2269  0.1495  0.2657
 2176TIP3    H1 6492   3.037   5.623   5.512  0.0570  0.6220 -0.3102
 2176TIP3    H2 6493   2.928   5.725   5.484  0.3673  1.0585  0.0555
 2177TIP3   OH2 6494   3.776   4.680   2.907  0.3502  0.6556 -0.2606
 2177TIP3    H1 6495   3.854   4.681   2.962 -0.5217 -1.9155  1.2050
 2177TIP3    H2 6496   3.707   4.714   2.963 -0.2636 -0.5728 -0.2532
 2178TIP3   OH2 6497   5.198   4.124   0.690 -0.0412  0.2888 -0.2553
 2178TIP3    H1 6498   5.199   4.135   0.595  0.7576  0.1436 -0.2699
 2178TIP3    H2 6499   5.187   4.213   0.724  0.7750  0.4770 -0.4689
 2179TIP3   OH2 6500   7.091   4.882   2.674  0.0146 -0.3077  0.2919
 2179TIP3    H1 6501   7.107   4.976   2.682 -2.7246  0.4711 -1.8263
 2179TIP3    H2 6502   7.110   4.862   2.582  0.8720 -1.9240  0.7897
 2180TIP3   OH2 6503   2.939   5.583   4.821  0.1882  0.0717  0.8223
 2180TIP3    H1 6504   2.945   5.594   4.916  0.6960 -0.0258  0.7992
 2180TIP3    H2 6505   3.006   5.519   4.799  1.7424  1.8444  0.0942
 2181TIP3   OH2 6506   3.096   1.667   4.375 -0.1462 -0.4376 -0.3173
 2181TIP3    H1 6507   3.087   1.572   4.385 -0.8229 -0.5022 -1.4343
 2181TIP3    H2 6508   3.190   1.683   4.382 -0.1451 -0.9717  1.5338
 2182TIP3   OH2 6509   2.191   5.874   1.171  0.2261 -0.6375  0.4469
 2182TIP3    H1 6510   2.223   5.958   1.202  2.2855 -0.9847 -0.5662
 2182TIP3    H2 6511   2.267   5.816   1.177 -0.6949 -1.9838 -0.4109
 2183TIP3   OH2 6512   0.090   1.749   2.624  0.0643  0.2388  0.2437
 2183TIP3    H1 6513   0.037   1.810   2.675 -2.1319 -0.9060 -0.5575
 2183TIP3    H2 6514   0.072   1.664   2.662  0.4921 -0.3049 -0.7448
 2184TIP3   OH2 6515   2.619   2.670   3.699  0.1327 -0.4051  0.9212
 2184TIP3    H1 6516   2.617   2.748   3.753 -1.4106  1.5119 -1.6407
 2184TIP3    H2 6517   2.576   2.602   3.752  1.5956  0.3906  3.2385
 2185TIP3   OH2 6518   4.706   5.695   3.229  0.5417  0.8298  0.2555
 2185TIP3    H1 6519   4.641   5.761   3.208 -0.6942 -0.2685  0.5012
 2185TIP3    H2 6520   4.655   5.616   3.248  1.8806  0.2261  1.5678
 2186TIP3   OH2 6521   6.314   3.397   0.233 -0.3839  0.0525  0.1040
 2186TIP3    H1 6522   6.403   3.422   0.255 -0.3748  0.0454  0.0749
 2186TIP3    H2 6523   6.279   3.359   0.314 -0.1710 -0.4817 -0.0510
 2187TIP3   OH2 6524   4.301   0.312   0.786  0.0814 -0.2132 -0.3519
 2187TIP3    H1 6525   4.348   0.245   0.835  0.5633  0.0140 -0.4975
 2187TIP3    H2 6526   4.363   0.341   0.719 -0.0743  0.4749 -0.2052
 2188TIP3   OH2 6527   1.070   2.803   5.709  0.3129 -0.0395 -0.0500
 2188TIP3    H1 6528   1.000   2.738   5.715  0.9452 -0.5511  2.9496
 2188TIP3    H2 6529   1.026   2.887   5.722  0.0307 -0.1816 -0.0907
 2189TIP3   OH2 6530   0.514   5.623   5.741 -0.9417 -0.4800  0.2248
 2189TIP3    H1 6531   0.446   5.640   5.806 -1.8835 -0.4268 -0.7434
 2189TIP3    H2 6532   0.467   5.587   5.666  0.0242  0.1277 -0.6989
 2190TIP3   OH2 6533   2.095   5.564   4.841 -0.1380 -0.2177 -0.0787
 2190TIP3    H1 6534   2.117   5.474   4.817 -1.0733 -0.5162  0.1252
 2190TIP3    H2 6535   2.098   5.564   4.936  0.4149  0.1228 -0.0934
 2191TIP3   OH2 6536   5.106   1.035   5.209 -0.4689  0.4467 -0.2768
 2191TIP3    H1 6537   5.039   1.003   5.269 -1.5668  1.2665 -1.0338
 2191TIP3    H2 6538   5.086   1.128   5.196 -1.6051 -0.1087 -3.5203
 2192TIP3   OH2 6539   5.674   5.721   0.023  0.1949 -0.4740  0.3405
 2192TIP3    H1 6540   5.584   5.737   0.051  0.1582  0.2349 -0.1642
 2192TIP3    H2 6541   5.667   5.703  -0.071  0.6433  0.2291  0.1662
 2193TIP3   OH2 6542   2.075   6.485   3.141  0.1191 -0.3923  1.0312
 2193TIP3    H1 6543   2.158   6.510   3.100 -0.2944 -0.6358  0.0058
 2193TIP3    H2 6544   2.013   6.483   3.068 -0.5633 -1.1926  1.6267
 2194TIP3   OH2 6545   2.899   0.168   5.522 -0.0326  0.2277  0.4960
 2194TIP3    H1 6546   2.837   0.112   5.476  0.8185 -0.4636  0.1518
 2194TIP3    H2 6547   2.967   0.187   5.457  0.2444  0.7561  0.9314
 2195TIP3   OH2 6548   6.528   5.909   5.406  0.1979 -0.4012  0.2502
 2195TIP3    H1 6549   6.607   5.949   5.370 -0.5677  2.6707  1.6519
 2195TIP3    H2 6550   6.456   5.959   5.367 -0.7890  0.2307  2.7113
 2196TIP3   OH2 6551   0.726   5.776   4.592  0.0106 -0.1870 -0.6041
 2196TIP3    H1 6552   0.718   5.726   4.511  0.8903 -1.8868  0.2890
 2196TIP3    H2 6553   0.718   5.710   4.661 -0.7678  1.2178  0.7089
 2197TIP3   OH2 6554   5.769   6.385   3.064 -0.0019 -0.1491  0.7780
 2197TIP3    H1 6555   5.763   6.480   3.052 -1.5218 -0.3458 -0.3722
 2197TIP3    H2 6556   5.690   6.362   3.114  0.2884 -0.8274  0.9376
 2198TIP3   OH2 6557   0.039   0.057   3.357 -0.2975 -0.3923 -0.8590
 2198TIP3    H1 6558   0.083   0.111   3.423  1.0751 -1.7928 -0.5499
 2198TIP3    H2 6559   0.029   0.114   3.281 -1.3031  1.0616  0.2929
 2199TIP3   OH2 6560   4.666   2.753   5.638  0.2896 -0.0403 -0.4765
 2199TIP3    H1 6561   4.717   2.753   5.719 -0.7197  0.4202  0.1803
 2199TIP3    H2 6562   4.681   2.667   5.600 -0.5212 -0.9072  1.0681
 2200TIP3   OH2 6563   6.138   6.217   3.701 -0.2536  0.5118 -0.1822
 2200TIP3    H1 6564   6.144   6.290   3.639 -0.2939  0.9095  0.2793
 2200TIP3    H2 6565   6.163   6.254   3.785  1.0028 -0.3122 -0.1607
 2201TIP3   OH2 6566   3.961   1.910   1.913 -0.5043  0.0475  0.4623
 2201TIP3    H1 6567   4.024   1.912   1.841 -1.7543  0.8415 -0.6627
 2201TIP3    H2 6568   4.005   1.957   1.984  0.0103  0.9782 -0.4377
 2202TIP3   OH2 6569   5.697   0.543   3.668 -0.9106 -0.5588 -0.5567
 2202TIP3    H1 6570   5.746   0.481   3.722 -0.8938  0.0982  0.2045
 2202TIP3    H2 6571   5.669   0.492   3.592  0.0500 -1.2081 -0.4894
 2203TIP3   OH2 6572   3.166   4.373   0.007 -0.3778 -0.3520  0.4635
 2203TIP3    H1 6573   3.216   4.360   0.087  1.2265 -0.5606 -0.5412
 2203TIP3    H2 6574   3.232   4.383  -0.061 -1.7008  0.6164 -0.7252
 2204TIP3   OH2 6575   6.597   2.523   3.150  0.3766 -0.0864  0.3044
 2204TIP3    H1 6576   6.557   2.606   3.125 -0.5644 -0.3649  0.8553
 2204TIP3    H2 6577   6.645   2.543   3.231  0.9240  0.1275 -0.0703
 2205TIP3   OH2 6578   3.480   3.566   5.447  0.1885 -0.5771 -0.2417
 2205TIP3    H1 6579   3.392   3.547   5.479 -0.6229  0.2681 -1.8197
 2205TIP3    H2 6580   3.522   3.481   5.438 -0.2376 -0.9497  1.0989
 2206TIP3   OH2 6581   4.664   6.098   1.408  0.3562 -0.0638 -0.4853
 2206TIP3    H1 6582   4.693   6.026   1.351  0.0260 -0.9353  0.4397
 2206TIP3    H2 6583   4.603   6.148   1.353  0.2292 -0.7508 -0.9907
 2207TIP3   OH2 6584   1.860   6.675   1.924  0.3027  0.2730 -0.9960
 2207TIP3    H1 6585   1.773   6.706   1.901  0.3290  0.0570 -1.3997
 2207TIP3    H2 6586   1.915   6.753   1.920 -0.1655  0.7466  0.9162
 2208TIP3   OH2 6587   0.809   6.359   3.535  0.1343 -0.0660  0.2848
 2208TIP3    H1 6588   0.832   6.290   3.597 -0.3740  0.0726  0.6257
 2208TIP3    H2 6589   0.770   6.428   3.588  0.7351  0.5360 -0.0398
 2209TIP3   OH2 6590   1.055   2.292   5.286  0.6649  0.4287  0.3108
 2209TIP3    H1 6591   1.125   2.356   5.294  0.4845  0.7516 -0.5454
 2209TIP3    H2 6592   1.100   2.208   5.275  0.9417 -0.0410  3.9305
 2210TIP3   OH2 6593   3.743   1.831   0.605 -0.1089 -0.1202  0.4706
 2210TIP3    H1 6594   3.724   1.840   0.512  0.9842  1.1033  0.3204
 2210TIP3    H2 6595   3.764   1.921   0.633 -2.1054 -0.1400  2.3092
 2211TIP3   OH2 6596   0.767   0.978   3.179 -0.1991  0.4813 -0.3724
 2211TIP3    H1 6597   0.735   0.922   3.108 -1.9951  0.6217  0.2750
 2211TIP3    H2 6598   0.711   0.956   3.254  2.4274 -0.5724  1.4112
 2212TIP3   OH2 6599   1.458   1.488   5.444 -0.2691  0.3347 -0.8032
 2212TIP3    H1 6600   1.483   1.576   5.473 -0.2460  0.8397 -2.2711
 2212TIP3    H2 6601   1.542   1.442   5.434 -0.3506 -0.7922  2.5486
 2213TIP3   OH2 6602   1.924   0.069   2.018  0.5348  0.3511 -0.5157
 2213TIP3    H1 6603   1.948   0.160   2.038  0.0983  0.2293  0.6199
 2213TIP3    H2 6604   1.928   0.064   1.923 -1.0946  2.0354 -0.7323
 2214TIP3   OH2 6605   2.209   2.943   5.184 -0.2009  0.1441 -0.2534
 2214TIP3    H1 6606   2.131   2.976   5.140  0.2436  0.5378 -0.7690
 2214TIP3    H2 6607   2.281   2.962   5.123  0.2501 -0.5366  0.0515
 2215TIP3   OH2 6608   6.594   0.161   2.608  0.3800  0.3059 -0.0212
 2215TIP3    H1 6609   6.512   0.140   2.653  0.8492  0.2064  0.8033
 2215TIP3    H2 6610   6.582   0.127   2.520 -0.1367 -0.4866  0.3445
 2216TIP3   OH2 6611   2.731   4.092   5.326  0.3050 -0.1079  0.0009
 2216TIP3    H1 6612   2.698   4.007   5.297 -1.3052  0.0314  1.2810
 2216TIP3    H2 6613   2.673   4.155   5.283 -0.5507  0.1800  1.5183
 2217TIP3   OH2 6614   4.392   4.757   5.454 -0.3527 -0.1460  0.6502
 2217TIP3    H1 6615   4.365   4.761   5.362  0.7470 -0.1421  0.3195
 2217TIP3    H2 6616   4.325   4.703   5.496 -1.5591  0.8712  0.1088
 2218TIP3   OH2 6617   2.488   4.876   4.680 -0.0350 -0.3452  0.1590
 2218TIP3    H1 6618   2.540   4.867   4.600 -0.1224 -3.2248  0.3108
 2218TIP3    H2 6619   2.400   4.900   4.648  0.0708 -0.8890 -0.5700
 2219TIP3   OH2 6620   3.187   3.129   4.264 -0.1159  0.0112  0.3595
 2219TIP3    H1 6621   3.246   3.192   4.305  0.0466 -0.1860  0.4306
 2219TIP3    H2 6622   3.133   3.097   4.336 -0.0007 -0.1468  0.3769
 2220TIP3   OH2 6623   3.602   1.851   1.439  0.0675  0.0936  0.7004
 2220TIP3    H1 6624   3.603   1.786   1.509 -1.0639  0.7152  1.3336
 2220TIP3    H2 6625   3.548   1.922   1.473 -0.6296  0.3558 -0.8470
 2221TIP3   OH2 6626   2.453   4.110   2.743 -0.0436 -0.0345  0.1411
 2221TIP3    H1 6627   2.372   4.062   2.759 -0.4686  0.5644 -0.1403
 2221TIP3    H2 6628   2.453   4.126   2.648  1.2967 -1.5640 -0.1466
 2222TIP3   OH2 6629   5.340   2.050   1.286 -0.0215 -0.5850  0.2624
 2222TIP3    H1 6630   5.358   1.965   1.325  0.7862 -0.0296  1.1325
 2222TIP3    H2 6631   5.360   2.038   1.193 -0.0342 -1.3734  0.3529
 2223TIP3   OH2 6632   7.069   5.624   3.141  0.6637  0.0324  0.5739
 2223TIP3    H1 6633   7.118   5.699   3.176  0.6466 -0.0009  0.6688
 2223TIP3    H2 6634   7.115   5.547   3.175  0.2808  0.0025  1.0330
 2224TIP3   OH2 6635   6.566   5.681   0.416  0.1177  0.3193 -0.0647
 2224TIP3    H1 6636   6.593   5.671   0.508  1.6675  0.4870 -0.4701
 2224TIP3    H2 6637   6.621   5.751   0.383  0.0993 -0.2421 -1.3256
 2225TIP3   OH2 6638   3.612   4.597   1.573 -0.0601  0.0522 -0.0509
 2225TIP3    H1 6639   3.645   4.604   1.662 -1.0098  0.2327  0.3025
 2225TIP3    H2 6640   3.675   4.644   1.519 -0.6176  1.9023  0.8300
 2226TIP3   OH2 6641   6.171   2.328   0.209  0.6401  0.2391 -0.0106
 2226TIP3    H1 6642   6.176   2.239   0.173 -0.9369 -0.8203  2.1618
 2226TIP3    H2 6643   6.082   2.356   0.189  1.2801  1.5842 -1.1141
 2227TIP3   OH2 6644   1.566   0.683   2.914 -0.0564 -0.0886  0.2545
 2227TIP3    H1 6645   1.647   0.658   2.958  0.6325  1.3317 -0.1480
 2227TIP3    H2 6646   1.496   0.654   2.974  0.8316  1.2444  2.0294
 2228TIP3   OH2 6647   3.490   0.990   1.138 -0.0622 -0.1427 -0.0450
 2228TIP3    H1 6648   3.397   0.964   1.141 -0.5740  1.4612 -0.9383
 2228TIP3    H2 6649   3.501   1.046   1.214  0.4827 -1.1920  0.6712
 2229TIP3   OH2 6650   3.067   5.789   1.021  0.2844 -1.0339  0.0946
 2229TIP3    H1 6651   3.027   5.719   1.074 -0.1196 -0.7885  0.1154
 2229TIP3    H2 6652   3.150   5.808   1.065  0.6346 -1.8452 -0.1917
 2230TIP3   OH2 6653   0.415   1.442   5.152 -0.3536  0.1477 -0.7451
 2230TIP3    H1 6654   0.477   1.372   5.173 -0.8570 -0.1176 -0.1370
 2230TIP3    H2 6655   0.448   1.478   5.070 -0.8363 -1.7055 -1.8324
 2231TIP3   OH2 6656   6.649   3.780   4.758  0.2054  0.2580 -0.4944
 2231TIP3    H1 6657   6.729   3.823   4.788  0.0744  0.2388 -0.1122
 2231TIP3    H2 6658   6.669   3.752   4.669  1.4632 -1.8298  0.3638
 2232TIP3   OH2 6659   5.922   1.448   0.720 -0.1382 -0.5375  0.3144
 2232TIP3    H1 6660   5.834   1.485   0.714 -0.4129 -1.2475 -0.2892
 2232TIP3    H2 6661   5.980   1.523   0.729 -0.6320  0.0845 -1.4106
 2233TIP3   OH2 6662   6.230   2.675   1.313 -0.6622 -0.1373 -0.6703
 2233TIP3    H1 6663   6.297   2.672   1.245  2.9175  0.8403  2.4723
 2233TIP3    H2 6664   6.177   2.597   1.299  1.6436 -1.4257 -2.8684
 2234TIP3   OH2 6665   6.126   0.376   1.268  0.1230 -0.4444 -0.3749
 2234TIP3    H1 6666   6.065   0.363   1.340 -0.9389 -1.0313 -1.3460
 2234TIP3    H2 6667   6.184   0.446   1.298 -0.7061 -0.2217  0.7754
 2235TIP3   OH2 6668   4.677   2.493   5.559 -0.2234  0.7773  0.2867
 2235TIP3    H1 6669   4.751   2.433   5.563 -1.1970 -0.5574 -0.8691
 2235TIP3    H2 6670   4.605   2.445   5.599 -0.6253  1.8436  0.8924
 2236TIP3   OH2 6671   1.029   5.741   0.117 -0.2418  0.1982  0.3390
 2236TIP3    H1 6672   0.971   5.684   0.067  0.2734  1.6619 -2.0641
 2236TIP3    H2 6673   0.974   5.816   0.141  0.3621  1.2114 -1.2602
 2237TIP3   OH2 6674   5.429   6.620   5.785  0.3121  0.2983  0.1715
 2237TIP3    H1 6675   5.522   6.631   5.767  0.1319 -0.0328 -1.0023
 2237TIP3    H2 6676   5.400   6.552   5.725 -1.1514  1.8618 -0.9842
 2238TIP3   OH2 6677   5.587   2.882   4.965  0.4391  0.2708 -0.1751
 2238TIP3    H1 6678   5.517   2.878   4.899 -1.1070  0.6786  1.3781
 2238TIP3    H2 6679   5.657   2.930   4.921  0.7196 -2.0749 -2.5776
 2239TIP3   OH2 6680   4.746   5.693   5.151 -0.4607 -0.2273  0.8526
 2239TIP3    H1 6681   4.685   5.628   5.187  0.4663 -0.9553  1.1223
 2239TIP3    H2 6682   4.801   5.643   5.090 -0.0348  0.3979  0.7215
 2240TIP3   OH2 6683   6.219   5.704   2.872 -0.6365  0.0284 -0.7448
 2240TIP3    H1 6684   6.224   5.757   2.792  1.2037 -0.5088 -1.0330
 2240TIP3    H2 6685   6.248   5.764   2.941 -1.2466  0.1937 -0.6261
 2241TIP3   OH2 6686   5.681   3.909   5.010  0.3052 -0.0966  0.1099
 2241TIP3    H1 6687   5.660   4.002   5.006  0.2672  0.0553  2.5884
 2241TIP3    H2 6688   5.685   3.882   4.918  2.4703  2.7899 -0.8035
 2242TIP3   OH2 6689   0.974   4.894   2.941  0.5346  0.6232  0.5312
 2242TIP3    H1 6690   0.894   4.849   2.970  0.8730 -0.9964 -0.8986
 2242TIP3    H2 6691   1.036   4.880   3.013  0.2668 -0.2340  0.6121
 2243TIP3   OH2 6692   1.746   0.712   3.461 -0.0231 -0.0635 -0.4938
 2243TIP3    H1 6693   1.723   0.754   3.378 -0.7426 -0.0060 -0.2711
 2243TIP3    H2 6694   1.777   0.625   3.436 -3.1895 -1.2714 -0.6735
 2244TIP3   OH2 6695   0.388   3.103   0.566  0.4714 -0.6528 -0.5280
 2244TIP3    H1 6696   0.367   3.022   0.518 -0.5005 -0.5759 -0.2606
 2244TIP3    H2 6697   0.315   3.113   0.627  0.0929  0.9175 -1.1877
 2245TIP3   OH2 6698   4.716   0.196   2.042 -0.5784 -0.6489 -0.2160
 2245TIP3    H1 6699   4.711   0.105   2.069 -0.0348 -0.3104  1.0976
 2245TIP3    H2 6700   4.781   0.196   1.972  0.1958 -1.1388  0.4748
 2246TIP3   OH2 6701   0.219   4.906   4.758  0.5734  0.2054 -0.4385
 2246TIP3    H1 6702   0.310   4.935   4.753  0.1866  1.7240  0.7971
 2246TIP3    H2 6703   0.219   4.839   4.827  0.4780  1.4372  0.7845
 2247TIP3   OH2 6704   6.815   4.191   3.947 -0.6667 -0.2647 -0.0319
 2247TIP3    H1 6705   6.793   4.104   3.980  0.2676  0.1475  1.7761
 2247TIP3    H2 6706   6.883   4.223   4.007 -0.6442  1.5166 -0.9575
 2248TIP3   OH2 6707   2.183   6.776   3.344 -0.1867  0.3341 -0.3666
 2248TIP3    H1 6708   2.161   6.683   3.343  0.1421  0.2577 -1.0183
 2248TIP3    H2 6709   2.265   6.781   3.295 -0.6402  1.0827 -1.0687
 2249TIP3   OH2 6710   0.201   2.786   0.724 -0.2896  0.2238  0.1045
 2249TIP3    H1 6711   0.201   2.691   0.738  1.3508  0.2092  0.2219
 2249TIP3    H2 6712   0.137   2.800   0.655 -1.0840 -0.8784  0.5898
 2250TIP3   OH2 6713   1.576   4.095   4.168  0.2007  0.2521  0.3285
 2250TIP3    H1 6714   1.636   4.059   4.232 -0.2631  0.8970  1.1415
 2250TIP3    H2 6715   1.622   4.089   4.085  0.5054 -1.3030  0.5969
 2251TIP3   OH2 6716   6.911   2.347   0.189 -0.0204 -0.5048 -0.1846
 2251TIP3    H1 6717   6.884   2.344   0.097  0.8960  1.7519 -0.6128
 2251TIP3    H2 6718   6.872   2.270   0.229 -1.4007 -0.9274 -2.2139
 2252TIP3   OH2 6719   2.440   2.282   1.585 -0.0585 -0.2436 -0.0494
 2252TIP3    H1 6720   2.424   2.300   1.492  0.1868  0.7978  0.1031
 2252TIP3    H2 6721   2.523   2.234   1.585 -0.9964 -1.9430 -0.4993
 2253TIP3   OH2 6722   6.616   6.801   5.405  0.2050 -0.2445  0.3907
 2253TIP3    H1 6723   6.531   6.759   5.394 -0.1513  0.5303  0.0943
 2253TIP3    H2 6724   6.675   6.730   5.431 -0.4855 -0.8240  0.4027
 2254TIP3   OH2 6725   2.140   0.662   1.975 -0.5918 -0.0984  0.0865
 2254TIP3    H1 6726   2.125   0.689   2.065 -0.0300  1.9599 -0.3970
 2254TIP3    H2 6727   2.062   0.691   1.927  0.1676  1.0186 -0.5089
 2255TIP3   OH2 6728   5.535   5.852   5.699  0.2973 -0.2366  0.7633
 2255TIP3    H1 6729   5.459   5.894   5.657  0.8357 -1.4462 -1.5751
 2255TIP3    H2 6730   5.610   5.903   5.669  0.6501 -0.7600  0.7468
 2256TIP3   OH2 6731   1.485   5.178   2.078 -0.1567  0.1719  0.2811
 2256TIP3    H1 6732   1.495   5.264   2.038  1.7969 -0.1097  0.0545
 2256TIP3    H2 6733   1.530   5.185   2.162 -2.9438  0.3196  1.8704
 2257TIP3   OH2 6734   6.854   1.080   0.439 -0.2486  0.2746  0.4943
 2257TIP3    H1 6735   6.824   1.001   0.395  1.4769 -0.0652 -0.1627
 2257TIP3    H2 6736   6.950   1.074   0.436 -0.0597  2.7640 -0.2832
 2258TIP3   OH2 6737   0.178   1.935   0.260  0.1727 -0.3087  1.0073
 2258TIP3    H1 6738   0.183   1.841   0.275 -0.5349 -0.7554 -1.1485
 2258TIP3    H2 6739   0.093   1.961   0.295 -0.8385 -1.0463 -0.7545
 2259TIP3   OH2 6740   0.091   4.674   5.399 -0.3165 -0.5606 -0.2052
 2259TIP3    H1 6741   0.019   4.621   5.434  0.5572 -2.6013 -1.3637
 2259TIP3    H2 6742   0.105   4.741   5.466 -0.3622 -2.7998  2.2340
 2260TIP3   OH2 6743   0.781   2.502   3.179  0.3390  0.1210  0.2817
 2260TIP3    H1 6744   0.774   2.499   3.083 -0.2481  0.5444  0.3069
 2260TIP3    H2 6745   0.771   2.595   3.200 -0.8104 -0.1241  0.8573
 2261TIP3   OH2 6746   5.605   0.507   2.908 -0.0022  0.1325 -0.0106
 2261TIP3    H1 6747   5.655   0.524   2.828 -0.9334 -1.1049 -0.9103
 2261TIP3    H2 6748   5.668   0.468   2.969  0.8439  1.5943  0.0893
 2262TIP3   OH2 6749   5.490   3.402   2.402 -0.6410  1.0622  0.1832
 2262TIP3    H1 6750   5.517   3.414   2.311 -0.9436 -1.7406 -0.3400
 2262TIP3    H2 6751   5.395   3.409   2.400 -0.6629  0.7835  0.2413
 2263TIP3   OH2 6752   1.533   3.107   3.243 -0.3202 -0.0539  0.3275
 2263TIP3    H1 6753   1.628   3.112   3.247 -0.4146  3.1851  0.5421
 2263TIP3    H2 6754   1.510   3.041   3.309  1.6944  0.0564  1.2232
 2264TIP3   OH2 6755   6.141   5.462   2.728  0.6872  0.0667 -0.8765
 2264TIP3    H1 6756   6.062   5.504   2.694  0.3529  0.4454  0.3393
 2264TIP3    H2 6757   6.196   5.534   2.758 -0.5312 -0.3168  2.6466
 2265TIP3   OH2 6758   2.546   0.344   0.290 -0.0683  0.5694 -0.3228
 2265TIP3    H1 6759   2.537   0.436   0.313 -0.1741  0.3850  0.4224
 2265TIP3    H2 6760   2.632   0.338   0.249  0.4500  0.8067  0.6970
 2266TIP3   OH2 6761   2.442   6.046   4.001 -0.8159 -0.0702 -0.6473
 2266TIP3    H1 6762   2.440   5.979   4.069 -0.0174 -1.0031 -1.4984
 2266TIP3    H2 6763   2.439   6.129   4.048 -1.3359 -0.6940  0.4574
 2267TIP3   OH2 6764   2.536   1.450   3.871 -0.1022  0.1723  0.1765
 2267TIP3    H1 6765   2.523   1.444   3.965  2.9875 -0.6135  0.6474
 2267TIP3    H2 6766   2.569   1.364   3.845 -1.9578  0.0042 -1.8707
 2268TIP3   OH2 6767   3.530   2.571   5.311 -0.1869  0.3068 -0.0697
 2268TIP3    H1 6768   3.574   2.542   5.231 -1.3302 -1.1145 -0.2505
 2268TIP3    H2 6769   3.463   2.504   5.326  0.6712 -0.0532  2.6753
 2269TIP3   OH2 6770   1.357   6.496   5.782 -0.2357 -0.0157 -0.7376
 2269TIP3    H1 6771   1.434   6.523   5.832 -0.7614  0.0557  0.0570
 2269TIP3    H2 6772   1.387   6.421   5.731  0.8576  1.1233 -1.8717
 2270TIP3   OH2 6773   1.680   1.589   5.807  0.0605  0.1499  0.5001
 2270TIP3    H1 6774   1.697   1.566   5.715  0.3772 -1.1076  0.8450
 2270TIP3    H2 6775   1.714   1.677   5.817  2.1887 -0.5588 -0.0258
 2271TIP3   OH2 6776   4.043   4.834   0.160  0.0951 -0.0524  0.3862
 2271TIP3    H1 6777   4.053   4.756   0.105  0.3878 -0.8476  1.5340
 2271TIP3    H2 6778   4.029   4.905   0.098  1.3268 -0.7678 -0.7716
 2272TIP3   OH2 6779   6.175   3.652   4.203 -0.5694 -0.1979 -0.3214
 2272TIP3    H1 6780   6.235   3.631   4.275 -1.7805  0.3790  0.9054
 2272TIP3    H2 6781   6.216   3.725   4.157  0.6784 -1.1827 -0.8420
 2273TIP3   OH2 6782   4.573   1.776   0.696 -0.6068  0.3123 -1.0056
 2273TIP3    H1 6783   4.577   1.821   0.611 -0.5795  2.2184 -0.0563
 2273TIP3    H2 6784   4.578   1.847   0.760 -1.8373 -0.9775  0.5901
 2274TIP3   OH2 6785   2.019   4.224   3.688  0.5023 -0.3555  0.5620
 2274TIP3    H1 6786   2.097   4.202   3.638 -0.4686  1.8804 -2.1940
 2274TIP3    H2 6787   2.030   4.316   3.710 -0.6617 -0.4257  1.5310
 2275TIP3   OH2 6788   1.932   4.597   5.588  0.0790 -0.2328 -0.5267
 2275TIP3    H1 6789   2.003   4.550   5.543  0.9779  0.7676 -0.1698
 2275TIP3    H2 6790   1.923   4.552   5.672  0.2601 -0.3816 -0.5865
 2276TIP3   OH2 6791   2.346   2.986   1.430  0.4634  0.2373 -0.2510
 2276TIP3    H1 6792   2.328   2.992   1.523 -0.0435  0.3719 -0.3571
 2276TIP3    H2 6793   2.346   2.892   1.411 -0.0093  0.2357 -0.2311
 2277TIP3   OH2 6794   1.647   1.323   1.458 -0.6010  0.4383  0.0263
 2277TIP3    H1 6795   1.736   1.359   1.459 -1.1756  1.9287 -0.0967
 2277TIP3    H2 6796   1.608   1.350   1.541  0.2440 -3.5915  2.0175
 2278TIP3   OH2 6797   4.523   2.664   1.647 -0.6379  0.2606 -0.0707
 2278TIP3    H1 6798   4.587   2.652   1.578 -0.8336 -3.1734  0.1755
 2278TIP3    H2 6799   4.575   2.671   1.727 -0.4642 -1.7221  0.0362
 2279TIP3   OH2 6800   6.170   6.163   5.119  0.1983  0.3839  0.0632
 2279TIP3    H1 6801   6.203   6.079   5.085 -0.5680  0.0674  0.0811
 2279TIP3    H2 6802   6.146   6.213   5.041  1.1503  0.8073  0.0274
 2280TIP3   OH2 6803   7.056   1.207   3.218 -0.1507  0.3733 -0.7732
 2280TIP3    H1 6804   7.083   1.135   3.161  0.8945  0.5844 -0.5667
 2280TIP3    H2 6805   7.049   1.168   3.305 -0.1942  0.3854 -0.7713
 2281TIP3   OH2 6806   1.961   6.252   1.369  0.1948 -0.6590 -0.0417
 2281TIP3    H1 6807   2.041   6.233   1.417 -0.0262 -0.9021  0.2342
 2281TIP3    H2 6808   1.902   6.179   1.390  0.2626 -1.0385 -1.0667
 2282TIP3   OH2 6809   3.420   4.698   4.948  0.0159  0.1577  0.2503
 2282TIP3    H1 6810   3.427   4.708   5.043  0.2565  1.9398  0.0892
 2282TIP3    H2 6811   3.483   4.761   4.913 -1.8407  1.3991 -1.0694
 2283TIP3   OH2 6812   3.328   3.794   4.278  0.3830  0.1203  0.1296
 2283TIP3    H1 6813   3.297   3.713   4.237  3.4342 -0.8972 -0.4608
 2283TIP3    H2 6814   3.286   3.795   4.364 -0.1397 -1.8521 -0.0483
 2284TIP3   OH2 6815   4.474   4.082   4.997 -0.0593 -0.2202  0.2535
 2284TIP3    H1 6816   4.525   4.073   5.077  1.8600 -0.3558 -0.9375
 2284TIP3    H2 6817   4.500   4.166   4.960 -0.4231 -0.4593 -0.5738
 2285TIP3   OH2 6818   2.863   1.497   2.786  0.8955 -0.0578  0.0849
 2285TIP3    H1 6819   2.865   1.585   2.748  1.3965  0.0064  0.2504
 2285TIP3    H2 6820   2.833   1.510   2.876  1.4988  0.0113  0.2786
 2286TIP3   OH2 6821   3.822   5.547   5.033  0.2694  0.2240 -0.4884
 2286TIP3    H1 6822   3.854   5.500   4.956  1.3094 -0.2392  0.2098
 2286TIP3    H2 6823   3.892   5.609   5.054  0.2107 -0.0023  0.3842
 2287TIP3   OH2 6824   4.514   5.981   5.195 -0.3916 -0.5347  0.5516
 2287TIP3    H1 6825   4.587   5.947   5.143 -0.5279  0.1483 -0.0940
 2287TIP3    H2 6826   4.534   5.954   5.285 -0.4645 -2.2841  0.0930
 2288TIP3   OH2 6827   6.529   1.943   4.286  0.3465 -0.7536 -0.1882
 2288TIP3    H1 6828   6.464   1.906   4.227  0.0107  0.5821 -0.6849
 2288TIP3    H2 6829   6.480   1.966   4.365  0.4336 -0.8124 -0.1168
 2289TIP3   OH2 6830   2.199   1.144   1.560 -0.3130 -0.1212  0.3500
 2289TIP3    H1 6831   2.163   1.084   1.494 -1.6458  1.3282 -0.3161
 2289TIP3    H2 6832   2.292   1.124   1.563 -0.6481 -1.9126 -0.1612
 2290TIP3   OH2 6833   3.263   6.657   2.790 -0.1501  0.0962  0.5271
 2290TIP3    H1 6834   3.329   6.589   2.779 -1.5425 -1.4052  1.0319
 2290TIP3    H2 6835   3.271   6.711   2.711 -0.0946 -1.6438 -0.7228
 2291TIP3   OH2 6836   6.773   2.885   3.183 -0.2104 -0.7505 -0.6163
 2291TIP3    H1 6837   6.798   2.972   3.149  0.1875 -1.0423 -1.0870
 2291TIP3    H2 6838   6.703   2.903   3.246 -0.2580 -0.1022 -0.8466
 2292TIP3   OH2 6839   3.459   2.273   0.824 -0.0909 -0.5653 -0.1310
 2292TIP3    H1 6840   3.474   2.367   0.820  1.6174 -0.8420 -1.8204
 2292TIP3    H2 6841   3.546   2.235   0.837 -0.8906 -1.8995  1.8172
 2293TIP3   OH2 6842   1.283   2.283   3.769 -0.5326  0.0377  0.6486
 2293TIP3    H1 6843   1.305   2.193   3.795  1.1011 -0.0555 -0.9166
 2293TIP3    H2 6844   1.353   2.336   3.806  1.7947 -0.0818 -3.1088
 2294TIP3   OH2 6845   5.328   2.634   1.650 -0.5340  0.0564 -0.0913
 2294TIP3    H1 6846   5.323   2.667   1.740 -3.5090 -0.5311  0.0798
 2294TIP3    H2 6847   5.409   2.582   1.647 -0.8123 -0.6693  2.5479
 2295TIP3   OH2 6848   3.718   1.460   5.748 -0.7432  0.3057 -0.1796
 2295TIP3    H1 6849   3.788   1.525   5.746  0.2720 -0.7739 -1.4327
 2295TIP3    H2 6850   3.638   1.512   5.755  0.1042  1.6299  0.0611
 2296TIP3   OH2 6851   2.770   4.170   3.126  0.3656 -0.2247 -0.1280
 2296TIP3    H1 6852   2.758   4.208   3.039  0.5810 -0.8854 -0.4618
 2296TIP3    H2 6853   2.682   4.143   3.153  0.3687 -0.5112 -0.3875
 2297TIP3   OH2 6854   6.174   3.045   5.852 -0.2544  0.0371 -0.5900
 2297TIP3    H1 6855   6.189   3.024   5.760  0.7865 -0.1392 -0.3956
 2297TIP3    H2 6856   6.111   3.117   5.851 -0.5396 -0.2180 -1.4245
 2298TIP3   OH2 6857   4.958   1.465   2.114  0.0573  0.5828  0.2204
 2298TIP3    H1 6858   5.008   1.543   2.138 -0.4654  0.4856  1.7340
 2298TIP3    H2 6859   5.000   1.394   2.162 -0.0217  0.0766 -0.4468
 2299TIP3   OH2 6860   5.044   5.787   0.167  0.2283  0.3461  0.4610
 2299TIP3    H1 6861   5.099   5.860   0.140 -0.0620  0.1785 -0.6229
 2299TIP3    H2 6862   5.050   5.724   0.095 -2.8178  1.1056 -0.6515
 2300TIP3   OH2 6863   4.904   1.279   5.270  0.1547  0.5909  0.2105
 2300TIP3    H1 6864   4.874   1.337   5.200  0.6204 -1.5076 -1.8829
 2300TIP3    H2 6865   4.837   1.211   5.276  1.5833 -0.9724 -0.4745
 2301TIP3   OH2 6866   4.196   0.862   5.824  0.3562 -0.4146  0.1436
 2301TIP3    H1 6867   4.243   0.915   5.888  0.8563 -0.4357 -0.2017
 2301TIP3    H2 6868   4.130   0.815   5.876  1.7099 -1.5578  0.9078
 2302TIP3   OH2 6869   3.961   6.688   5.772  0.0674  0.2794  0.3169
 2302TIP3    H1 6870   3.964   6.594   5.757 -0.6098  0.3137 -0.0561
 2302TIP3    H2 6871   3.868   6.709   5.779  0.1592  1.0676 -0.5922
 2303TIP3   OH2 6872   1.823   1.222   3.532 -0.0120  0.3361 -0.3924
 2303TIP3    H1 6873   1.855   1.201   3.445  1.1199 -1.6140  0.4244
 2303TIP3    H2 6874   1.902   1.233   3.585 -0.6542  2.4396  0.2224
 2304TIP3   OH2 6875   0.714   3.309   0.625  0.1207 -0.3232  0.3115
 2304TIP3    H1 6876   0.683   3.220   0.646  0.1872 -0.2466  0.7557
 2304TIP3    H2 6877   0.640   3.350   0.581  0.4495 -0.9399 -0.8676
 2305TIP3   OH2 6878   3.837   6.338   1.884  0.3777 -0.4503 -0.4593
 2305TIP3    H1 6879   3.927   6.321   1.913 -0.1968 -2.3867  0.2947
 2305TIP3    H2 6880   3.818   6.267   1.822 -0.1621  0.7658 -1.7412
 2306TIP3   OH2 6881   2.227   3.614   2.488 -0.0037  0.3665 -0.2921
 2306TIP3    H1 6882   2.272   3.538   2.525  1.2897  0.8507 -0.7937
 2306TIP3    H2 6883   2.145   3.619   2.537  0.4384 -0.6123  0.6075
 2307TIP3   OH2 6884   5.989   1.673   1.397  0.0180  0.2548  0.0750
 2307TIP3    H1 6885   6.003   1.767   1.388 -1.4557  0.3089 -2.6627
 2307TIP3    H2 6886   6.075   1.638   1.423  0.4302  2.3500  1.8721
 2308TIP3   OH2 6887   1.217   3.292   4.404  0.5406  0.1294  0.0707
 2308TIP3    H1 6888   1.166   3.344   4.342  0.6438 -1.9859 -1.9410
 2308TIP3    H2 6889   1.300   3.338   4.412  0.6530  0.2852 -1.6954
 2309TIP3   OH2 6890   5.902   4.946   2.307 -0.4295  0.3110 -0.1178
 2309TIP3    H1 6891   5.987   4.904   2.316 -1.0421 -0.7760  0.9388
 2309TIP3    H2 6892   5.847   4.881   2.264 -0.5597  1.2696 -1.4460
 2310TIP3   OH2 6893   6.444   3.073   0.070  0.8139 -0.0559  0.1134
 2310TIP3    H1 6894   6.456   3.168   0.072  2.0173 -0.2015  0.0062
 2310TIP3    H2 6895   6.524   3.039   0.030 -1.1930 -0.8406 -3.7354
 2311TIP3   OH2 6896   4.151   2.765   1.374 -0.2869  0.0977 -0.3239
 2311TIP3    H1 6897   4.172   2.836   1.313  0.1976 -0.1829 -0.4899
 2311TIP3    H2 6898   4.166   2.685   1.324 -1.1437 -0.1310 -0.2394
 2312TIP3   OH2 6899   1.287   3.937   0.681  0.8256  0.0393 -0.5507
 2312TIP3    H1 6900   1.275   3.883   0.602 -0.5343  0.1997 -0.4793
 2312TIP3    H2 6901   1.330   3.878   0.743 -1.7293 -1.4426 -0.0505
 2313TIP3   OH2 6902   3.629   5.575   3.187  0.3496 -0.1226 -0.0710
 2313TIP3    H1 6903   3.709   5.625   3.206  0.7162 -0.7033 -0.0814
 2313TIP3    H2 6904   3.657   5.484   3.191 -0.4008 -0.3389  0.3140
 2314TIP3   OH2 6905   3.513   6.293   5.450  0.4534  0.3589 -0.4363
 2314TIP3    H1 6906   3.524   6.387   5.466  1.3753  0.5122 -1.8718
 2314TIP3    H2 6907   3.440   6.287   5.388 -1.4915 -0.0954  1.7314
 2315TIP3   OH2 6908   2.832   1.639   0.637 -0.0102 -0.3537  0.4501
 2315TIP3    H1 6909   2.758   1.581   0.620  0.4778 -0.9368  0.2653
 2315TIP3    H2 6910   2.804   1.725   0.605 -0.0502 -0.8934 -1.0429
 2316TIP3   OH2 6911   5.081   1.839   5.609  0.3609 -0.2704  0.0662
 2316TIP3    H1 6912   5.071   1.749   5.640 -0.2279 -0.2126  0.0604
 2316TIP3    H2 6913   5.135   1.881   5.676 -0.8258 -0.1708  1.0060
 2317TIP3   OH2 6914   4.083   0.012   3.213  0.6420 -0.5809  0.0395
 2317TIP3    H1 6915   4.004  -0.000   3.161  0.2272 -1.5171  0.8644
 2317TIP3    H2 6916   4.119   0.095   3.182 -1.1821  0.3645  0.2979
 2318TIP3   OH2 6917   4.787   3.536   4.758  0.0710 -0.0255  0.0903
 2318TIP3    H1 6918   4.881   3.549   4.742  0.3385  0.9290  2.0570
 2318TIP3    H2 6919   4.744   3.588   4.690  0.9324 -0.8310 -1.1116
 2319TIP3   OH2 6920   2.429   0.196   0.510  0.5277 -0.2777 -0.2231
 2319TIP3    H1 6921   2.467   0.112   0.485 -1.0102 -0.9984 -0.3046
 2319TIP3    H2 6922   2.444   0.252   0.434  0.0025 -1.0477 -0.9284
 2320TIP3   OH2 6923   0.335   3.110   2.843  0.0315  0.0751  0.0129
 2320TIP3    H1 6924   0.410   3.060   2.811  0.0464 -0.1115  0.3367
 2320TIP3    H2 6925   0.332   3.187   2.786 -0.8422 -0.9622 -1.4085
 2321TIP3   OH2 6926   7.229   6.240   1.694  0.2513 -0.2701  0.0010
 2321TIP3    H1 6927   7.160   6.239   1.761 -1.0992 -0.4628 -1.3370
 2321TIP3    H2 6928   7.182   6.232   1.611  1.7902  1.0178 -1.0642
 2322TIP3   OH2 6929   4.968   4.072   5.537 -0.0112  0.4652  0.4799
 2322TIP3    H1 6930   4.934   4.103   5.453 -0.7123 -1.2886  0.0810
 2322TIP3    H2 6931   4.967   4.150   5.593 -0.9075  1.3438 -0.6981
 2323TIP3   OH2 6932   6.975   4.377   0.424  0.3641 -0.4628 -0.0062
 2323TIP3    H1 6933   6.909   4.412   0.364 -1.4648  0.4315  2.3515
 2323TIP3    H2 6934   7.037   4.331   0.368 -1.0855  0.4995 -2.5595
 2324TIP3   OH2 6935   5.582   1.702   2.275  0.1511 -0.4320 -0.2393
 2324TIP3    H1 6936   5.665   1.700   2.228 -0.5810  1.5066 -1.7974
 2324TIP3    H2 6937   5.583   1.786   2.321 -0.2405 -1.1682  1.1496
 2325TIP3   OH2 6938   2.004   6.007   5.310  0.0034 -0.1665 -0.7160
 2325TIP3    H1 6939   1.914   6.041   5.309  0.4526  1.0563 -1.3150
 2325TIP3    H2 6940   2.059   6.085   5.311  1.0744 -0.8735 -1.6539
 2326TIP3   OH2 6941   6.731   5.234   3.106 -0.1943  0.0192 -0.5974
 2326TIP3    H1 6942   6.686   5.241   3.022 -1.4834  1.3816  0.1723
 2326TIP3    H2 6943   6.661   5.223   3.170  0.6924  0.3020  0.4452
 2327TIP3   OH2 6944   4.489   1.723   3.171 -0.7379 -0.7741  0.3815
 2327TIP3    H1 6945   4.488   1.698   3.079 -0.1243  1.2464 -0.2300
 2327TIP3    H2 6946   4.518   1.814   3.171  0.6040 -1.1136  2.6892
 2328TIP3   OH2 6947   0.464   1.383   0.097  0.2559  0.3782  0.6365
 2328TIP3    H1 6948   0.449   1.453   0.033  0.4032 -0.3929 -0.2640
 2328TIP3    H2 6949   0.379   1.340   0.105  0.9226 -1.5025 -1.4665
 2329TIP3   OH2 6950   1.594   3.418   2.765  0.0894  0.4792  0.3982
 2329TIP3    H1 6951   1.582   3.323   2.777 -0.4800  0.5619  0.4863
 2329TIP3    H2 6952   1.519   3.457   2.808 -0.4866  0.9030 -0.9683
 2330TIP3   OH2 6953   3.064   2.712   4.273  0.0648  0.2469 -0.5291
 2330TIP3    H1 6954   3.016   2.724   4.354  0.0162 -0.8583 -0.3798
 2330TIP3    H2 6955   3.156   2.727   4.296  0.2803 -1.9325  0.1858
 2331TIP3   OH2 6956   0.445   6.416   3.829  0.2646 -0.0969  0.4468
 2331TIP3    H1 6957   0.536   6.396   3.808  0.4561  1.1817 -0.0310
 2331TIP3    H2 6958   0.398   6.405   3.746 -0.2660 -1.9763  0.9565
 2332TIP3   OH2 6959   2.516   6.430   4.407 -0.4281  0.9303  0.3214
 2332TIP3    H1 6960   2.551   6.512   4.372  0.0280  0.7997  0.4535
 2332TIP3    H2 6961   2.594   6.383   4.440 -0.5645  0.0994 -0.4787
 2333TIP3   OH2 6962   3.217   2.465   4.552 -0.5315 -0.3794 -0.5573
 2333TIP3    H1 6963   3.156   2.534   4.578  1.1930  0.2552  2.2173
 2333TIP3    H2 6964   3.298   2.510   4.531 -0.0807 -1.4070 -1.1276
 2334TIP3   OH2 6965   5.980   2.057   1.030 -0.1501  0.0773 -0.5297
 2334TIP3    H1 6966   5.914   2.116   0.994  0.5263  0.1099 -1.7486
 2334TIP3    H2 6967   6.055   2.066   0.972 -0.3296 -2.6330 -1.2870
 2335TIP3   OH2 6968   4.938   1.602   1.864 -0.0254 -0.4041  0.0934
 2335TIP3    H1 6969   4.863   1.592   1.805 -3.1901  2.8941  3.0120
 2335TIP3    H2 6970   4.932   1.528   1.923  0.7461 -1.5752 -1.2293
 2336TIP3   OH2 6971   4.391   4.263   3.612  0.3556  0.7129 -0.4525
 2336TIP3    H1 6972   4.405   4.253   3.518  0.2940  0.0926 -0.4028
 2336TIP3    H2 6973   4.305   4.222   3.628  0.7577  0.0063  0.0016
 2337TIP3   OH2 6974   6.286   3.862   0.925 -0.3022 -0.1008  0.1653
 2337TIP3    H1 6975   6.264   3.881   1.016  0.2015 -0.0341  0.2752
 2337TIP3    H2 6976   6.231   3.922   0.874  1.1537  1.5861  0.4912
 2338TIP3   OH2 6977   0.995   1.388   5.144 -0.2155  0.2775 -0.1508
 2338TIP3    H1 6978   0.956   1.414   5.227  0.6873  1.5538 -0.1008
 2338TIP3    H2 6979   1.089   1.405   5.155  0.1129 -0.8412 -0.9583
 2339TIP3   OH2 6980   4.272   4.371   0.576 -0.6760  0.8438  0.0253
 2339TIP3    H1 6981   4.233   4.329   0.654 -0.0798  0.2371  0.0092
 2339TIP3    H2 6982   4.366   4.372   0.594 -0.3782 -0.5297 -1.2494
 2340TIP3   OH2 6983   0.656   4.667   3.006  0.1900  0.3372 -0.5424
 2340TIP3    H1 6984   0.661   4.573   2.993  1.3538  0.6281 -2.5158
 2340TIP3    H2 6985   0.679   4.680   3.099 -0.6855 -1.3370 -0.0628
 2341TIP3   OH2 6986   6.682   6.170   3.129 -0.5086  0.0737 -0.1401
 2341TIP3    H1 6987   6.641   6.225   3.196 -1.0917  0.7963 -1.0756
 2341TIP3    H2 6988   6.653   6.207   3.046  2.7051  1.1840 -0.9192
 2342TIP3   OH2 6989   1.612   3.613   4.496  0.5216 -0.3035 -0.0991
 2342TIP3    H1 6990   1.599   3.707   4.482  0.1490 -0.7025 -3.0869
 2342TIP3    H2 6991   1.679   3.608   4.565 -0.6006  2.0824  1.2812
 2343TIP3   OH2 6992   0.700   2.344   3.621  0.5701  0.0609  0.4070
 2343TIP3    H1 6993   0.614   2.374   3.650 -0.8108 -1.7165 -1.4697
 2343TIP3    H2 6994   0.730   2.286   3.691  0.1006  0.4710  0.9579
 2344TIP3   OH2 6995   2.271   0.419   1.230 -0.0772 -0.1004 -0.5094
 2344TIP3    H1 6996   2.310   0.334   1.247  0.7100  0.2071 -0.7078
 2344TIP3    H2 6997   2.333   0.462   1.170 -1.8373 -0.4656 -2.7442
 2345TIP3   OH2 6998   3.128   6.085   3.104 -0.5478  0.0310 -0.1527
 2345TIP3    H1 6999   3.105   6.144   3.175  0.4319  1.4827 -0.9811
 2345TIP3    H2 7000   3.169   6.010   3.147 -3.2488 -0.8903  1.0494
 2346TIP3   OH2 7001   7.086   6.653   3.390  0.2077  0.3866 -0.1602
 2346TIP3    H1 7002   7.011   6.595   3.374 -0.6314  0.3361  3.2091
 2346TIP3    H2 7003   7.094   6.705   3.309 -2.0633 -1.0947 -1.4428
 2347TIP3   OH2 7004   6.319   2.719   0.801 -0.3474 -0.1208  0.1850
 2347TIP3    H1 7005   6.270   2.750   0.876 -2.4660 -1.0875 -0.7285
 2347TIP3    H2 7006   6.378   2.791   0.780 -1.2913  1.0558  1.4145
 2348TIP3   OH2 7007   6.291   2.406   2.823  0.4703 -0.1620 -0.0599
 2348TIP3    H1 7008   6.288   2.425   2.917  2.2014  3.3060 -0.5485
 2348TIP3    H2 7009   6.201   2.416   2.793  0.2893  1.2980  0.8796
 2349TIP3   OH2 7010   4.273   0.687   5.611  0.4872  0.4681 -0.4511
 2349TIP3    H1 7011   4.335   0.759   5.624 -0.5566  1.5304 -1.0256
 2349TIP3    H2 7012   4.205   0.702   5.677 -1.6276  2.2507 -2.8334
 2350TIP3   OH2 7013   4.010   1.043   3.258  0.2900 -0.2671  0.0165
 2350TIP3    H1 7014   3.997   1.107   3.188  1.4567  0.6832  0.6288
 2350TIP3    H2 7015   4.094   1.003   3.238 -0.3036 -1.4416 -0.2062
 2351TIP3   OH2 7016   1.541   1.420   1.677 -0.4194  0.0341 -0.8723
 2351TIP3    H1 7017   1.538   1.503   1.725 -0.4213  0.0458 -0.8930
 2351TIP3    H2 7018   1.521   1.354   1.744 -3.0152  0.2323 -1.3314
 2352TIP3   OH2 7019   6.970   3.790   5.908 -0.2702 -0.0071 -0.5943
 2352TIP3    H1 7020   6.890   3.820   5.864  0.6615  2.0792 -0.9373
 2352TIP3    H2 7021   7.006   3.724   5.849 -2.1910 -1.7006  0.0139
 2353TIP3   OH2 7022   0.652   2.084   0.474  0.6540 -0.2456 -0.0550
 2353TIP3    H1 7023   0.686   2.020   0.537 -1.9203 -2.4283 -0.7130
 2353TIP3    H2 7024   0.583   2.129   0.522  0.0489 -0.5007 -0.6745
 2354TIP3   OH2 7025   4.095   6.605   3.258 -0.3255 -0.5634  0.1889
 2354TIP3    H1 7026   4.037   6.624   3.332  0.7293 -0.7833  1.0884
 2354TIP3    H2 7027   4.042   6.549   3.201 -0.9672 -0.8781  1.0619
 2355TIP3   OH2 7028   4.098   0.543   2.652 -0.3271  0.2106  0.1136
 2355TIP3    H1 7029   4.006   0.536   2.677 -1.5857  2.0776 -3.2790
 2355TIP3    H2 7030   4.118   0.636   2.658  1.1545 -0.0807  0.1527
 2356TIP3   OH2 7031   6.755   4.119   0.987 -0.2024  0.7034  0.5439
 2356TIP3    H1 7032   6.815   4.158   1.050 -0.4591  1.5149  0.3108
 2356TIP3    H2 7033   6.769   4.170   0.907 -1.1230  0.8584  0.4665
 2357TIP3   OH2 7034   4.859   3.623   1.262 -0.8188 -0.6678  0.1326
 2357TIP3    H1 7035   4.912   3.626   1.342  0.0120  3.1015 -0.3553
 2357TIP3    H2 7036   4.924   3.617   1.192 -1.3452 -0.8569 -0.3396
 2358TIP3   OH2 7037   0.962   3.401   0.665 -0.0264  0.1182  0.1819
 2358TIP3    H1 7038   0.873   3.366   0.660  0.3212 -0.7104 -0.3787
 2358TIP3    H2 7039   1.013   3.332   0.709  1.0675 -0.9848 -2.5863
 2359TIP3   OH2 7040   3.833   0.845   2.939  0.0551 -0.0632  0.3016
 2359TIP3    H1 7041   3.873   0.826   2.854 -0.3501  0.0430  0.0858
 2359TIP3    H2 7042   3.781   0.923   2.925  0.3737  0.2402  0.7755
 2360TIP3   OH2 7043   4.698   3.634   3.768 -0.2989 -0.0441 -0.1925
 2360TIP3    H1 7044   4.667   3.724   3.756 -0.4949 -0.1590 -0.5614
 2360TIP3    H2 7045   4.715   3.603   3.679 -1.6452 -0.8599 -0.1955
 2361TIP3   OH2 7046   6.738   5.745   2.702 -0.3202 -0.1948  0.3016
 2361TIP3    H1 7047   6.698   5.825   2.667  0.6352 -0.4294 -1.4616
 2361TIP3    H2 7048   6.820   5.775   2.741  0.1303 -0.3090 -0.5303
 2362TIP3   OH2 7049   1.434   1.154   2.125  0.1136  0.0943  0.2234
 2362TIP3    H1 7050   1.505   1.104   2.165 -1.4062 -1.4498  1.1295
 2362TIP3    H2 7051   1.366   1.089   2.108 -1.6265  1.7238  0.6318
 2363TIP3   OH2 7052   3.754   6.605   3.229 -1.0387 -0.0727  0.6870
 2363TIP3    H1 7053   3.691   6.650   3.173 -0.7334  1.4260  1.5038
 2363TIP3    H2 7054   3.797   6.543   3.171 -0.5786  1.5668 -0.8124
 2364TIP3   OH2 7055   4.352   3.534   3.813 -0.0953 -0.7465 -0.4342
 2364TIP3    H1 7056   4.383   3.533   3.723 -0.0694 -0.0586 -0.4333
 2364TIP3    H2 7057   4.433   3.533   3.866 -0.0249  1.3824 -0.4322
 2365TIP3   OH2 7058   2.538   0.042   4.677 -0.0695 -0.4045 -0.0077
 2365TIP3    H1 7059   2.567  -0.005   4.755  1.0617  0.3775  0.0653
 2365TIP3    H2 7060   2.476   0.107   4.710  1.5251  0.9449  0.5103
 2366TIP3   OH2 7061   7.003   5.653   5.837 -0.1095  0.3124  0.1507
 2366TIP3    H1 7062   6.935   5.684   5.897 -1.2164 -0.9975 -0.3404
 2366TIP3    H2 7063   6.996   5.557   5.842  1.7669  0.1534  0.1217
 2367TIP3   OH2 7064   0.955   5.527   1.104  0.1899 -0.5442  0.0778
 2367TIP3    H1 7065   1.004   5.451   1.137 -0.8952 -0.2926  2.4574
 2367TIP3    H2 7066   0.875   5.489   1.067 -0.5652 -0.6043  1.6741
 2368TIP3   OH2 7067   0.188   2.494   5.135  0.0850 -0.3539 -0.7935
 2368TIP3    H1 7068   0.104   2.474   5.177  1.4990 -1.9534  1.5030
 2368TIP3    H2 7069   0.192   2.589   5.132 -2.6218 -0.1841 -2.8582
 2369TIP3   OH2 7070   3.729   6.197   5.647  1.1238  0.6060  0.1202
 2369TIP3    H1 7071   3.680   6.213   5.566  0.1778 -0.2205  0.5157
 2369TIP3    H2 7072   3.781   6.119   5.629  0.8077  0.3397  0.3444
 2370TIP3   OH2 7073   5.367   5.390   0.635 -0.0859 -0.0331  0.1924
 2370TIP3    H1 7074   5.367   5.297   0.613 -0.5054  0.3287 -1.5584
 2370TIP3    H2 7075   5.286   5.404   0.685 -0.4559 -0.4672 -0.2777
 2371TIP3   OH2 7076   6.501   2.091   0.662  0.7350 -0.0436 -0.2340
 2371TIP3    H1 7077   6.486   2.155   0.593  0.3039 -0.1201 -0.2111
 2371TIP3    H2 7078   6.502   2.007   0.617  1.0158 -0.0478 -0.2231
 2372TIP3   OH2 7079   4.332   1.655   3.901 -0.0961  0.1237  0.0901
 2372TIP3    H1 7080   4.266   1.593   3.870  0.6217 -0.2091 -0.8349
 2372TIP3    H2 7081   4.404   1.599   3.932  0.6250  0.4740 -0.9031
 2373TIP3   OH2 7082   6.616   4.294   1.996  0.0992 -0.9990  0.1016
 2373TIP3    H1 7083   6.700   4.249   2.007  0.0684 -0.9581  0.5061
 2373TIP3    H2 7084   6.560   4.257   2.064 -0.1998 -0.9949 -0.1398
 2374TIP3   OH2 7085   2.498   5.100   2.285  0.1258  0.7748 -0.1173
 2374TIP3    H1 7086   2.451   5.183   2.288 -1.6252 -0.1809  2.2766
 2374TIP3    H2 7087   2.551   5.099   2.365 -0.9541 -0.9588  0.6201
 2375TIP3   OH2 7088   5.430   6.443   4.093  0.0144 -0.0583  0.0345
 2375TIP3    H1 7089   5.357   6.389   4.064 -0.3425  0.7574 -0.6575
 2375TIP3    H2 7090   5.501   6.381   4.109 -0.3365 -0.7290 -0.8694
 2376TIP3   OH2 7091   7.112   3.647   2.365 -0.6165 -0.2791  0.3436
 2376TIP3    H1 7092   7.098   3.618   2.455  1.9558 -0.2115  0.8561
 2376TIP3    H2 7093   7.064   3.584   2.312 -0.4339 -1.6349  1.7090
 2377TIP3   OH2 7094   7.096   1.159   4.223  0.2095  0.3275  0.1476
 2377TIP3    H1 7095   7.028   1.214   4.183  0.6400  0.8292  0.0887
 2377TIP3    H2 7096   7.123   1.207   4.301  1.0435  0.5262 -0.2481
 2378TIP3   OH2 7097   2.750   6.338   1.816  0.1083  0.2333 -0.3268
 2378TIP3    H1 7098   2.834   6.377   1.838  0.7320 -1.1148 -0.2453
 2378TIP3    H2 7099   2.710   6.319   1.901 -0.2230  0.7082 -0.3674
 2379TIP3   OH2 7100   7.112   1.820   2.854  0.3233  0.8185 -0.1249
 2379TIP3    H1 7101   7.104   1.817   2.949 -0.3782  0.6306 -0.1843
 2379TIP3    H2 7102   7.047   1.757   2.822 -0.6231  2.0812 -0.7807
 2380TIP3   OH2 7103   2.711   4.913   3.434  0.3247 -0.3868 -0.1504
 2380TIP3    H1 7104   2.715   4.907   3.529  1.0978 -0.3098 -0.1665
 2380TIP3    H2 7105   2.761   4.992   3.413 -0.2388 -0.1409 -0.5938
 2381TIP3   OH2 7106   3.003   6.415   5.344  0.5017 -0.0386 -0.1666
 2381TIP3    H1 7107   3.005   6.458   5.429 -1.2620 -0.2255  0.0124
 2381TIP3    H2 7108   2.952   6.335   5.358  1.4164 -0.8254 -1.0911
 2382TIP3   OH2 7109   1.735   5.049   1.761  0.8696  0.2613  0.3814
 2382TIP3    H1 7110   1.724   4.956   1.739  0.3553  0.3461  0.2763
 2382TIP3    H2 7111   1.660   5.092   1.721  0.8779  0.6669  0.8017
 2383TIP3   OH2 7112   4.631   2.687   4.437  0.0996 -0.3789 -0.0774
 2383TIP3    H1 7113   4.702   2.751   4.432  0.7982 -1.1803 -0.7721
 2383TIP3    H2 7114   4.577   2.716   4.511  1.2552  0.1253  0.5898
 2384TIP3   OH2 7115   4.341   2.241   5.356 -0.0450  0.7545  0.2049
 2384TIP3    H1 7116   4.387   2.290   5.288  1.7333  0.8780  1.4265
 2384TIP3    H2 7117   4.379   2.153   5.353 -3.0150 -0.6371 -1.7813
 2385TIP3   OH2 7118   5.817   0.501   4.770  0.3201 -0.0710  0.2672
 2385TIP3    H1 7119   5.827   0.479   4.678 -0.0474 -0.1780  0.2527
 2385TIP3    H2 7120   5.907   0.505   4.803  0.4665  0.3414 -0.1755
 2386TIP3   OH2 7121   2.891   6.407   2.849 -0.0575 -0.4652  0.7740
 2386TIP3    H1 7122   2.845   6.451   2.920  1.2733  1.3366  0.5884
 2386TIP3    H2 7123   2.908   6.319   2.882  0.7414  0.3918  2.8179
 2387TIP3   OH2 7124   5.992   2.345   3.768 -0.4104 -0.3673  0.2249
 2387TIP3    H1 7125   5.987   2.428   3.721  0.3203  1.4280  3.0596
 2387TIP3    H2 7126   5.911   2.342   3.819 -0.0008 -0.9314  0.8486
 2388TIP3   OH2 7127   4.966   2.016   3.715  0.4278 -0.0009  0.1632
 2388TIP3    H1 7128   4.920   2.093   3.750  1.9931  0.4242  1.4009
 2388TIP3    H2 7129   4.958   1.950   3.783 -0.9211 -1.0000 -0.9013
 2389TIP3   OH2 7130   3.256   4.319   2.739 -0.2925 -0.6387  0.1039
 2389TIP3    H1 7131   3.262   4.251   2.672  0.0734 -0.5396  0.0323
 2389TIP3    H2 7132   3.280   4.400   2.693 -0.9564 -0.4225  0.1310
 2390TIP3   OH2 7133   4.293   2.075   3.915 -0.1301  0.0972 -0.1417
 2390TIP3    H1 7134   4.385   2.055   3.898 -1.0223 -1.9944 -3.5907
 2390TIP3    H2 7135   4.256   1.993   3.948 -1.1026  0.3478 -0.5546
 2391TIP3   OH2 7136   0.896   5.912   0.567 -0.2441  0.0573 -0.7975
 2391TIP3    H1 7137   0.865   5.827   0.597 -0.8050  0.1187 -1.1910
 2391TIP3    H2 7138   0.985   5.919   0.601 -1.0846  0.4323  1.4655
 2392TIP3   OH2 7139   3.883  -0.017   2.603  0.0320 -0.0022  0.1538
 2392TIP3    H1 7140   3.908   0.051   2.665 -1.1909 -0.2165  0.9049
 2392TIP3    H2 7141   3.873   0.029   2.519  1.4035  0.3343  0.1500
 2393TIP3   OH2 7142   5.131   2.962   4.667 -0.1159  0.0713 -0.1305
 2393TIP3    H1 7143   5.098   2.960   4.757  0.3106 -0.6487  0.0184
 2393TIP3    H2 7144   5.071   3.020   4.621 -0.4953  0.2378  0.5599
 2394TIP3   OH2 7145   0.840   0.641   4.295  0.4169  0.3492 -0.2286
 2394TIP3    H1 7146   0.894   0.602   4.363 -1.6804 -2.2763  0.1176
 2394TIP3    H2 7147   0.751   0.613   4.316 -0.7500  2.1530 -2.2812
 2395TIP3   OH2 7148   6.677   0.019   0.433  0.1022  0.3120 -0.3844
 2395TIP3    H1 7149   6.663   0.090   0.495 -0.0498 -2.2015  2.6674
 2395TIP3    H2 7150   6.589  -0.005   0.404 -0.1283 -0.5893  0.9939
 2396TIP3   OH2 7151   4.626   1.097   5.613  0.1566 -0.2223  0.4491
 2396TIP3    H1 7152   4.713   1.083   5.652  0.1901 -1.5413 -0.0518
 2396TIP3    H2 7153   4.614   1.022   5.555 -0.7090  0.7203 -0.6144
 2397TIP3   OH2 7154   0.517   3.236   4.986 -0.2079 -0.1731 -0.5397
 2397TIP3    H1 7155   0.497   3.254   4.894  1.1706  0.0871 -0.8162
 2397TIP3    H2 7156   0.433   3.217   5.026 -0.9548  0.7233 -1.6380
 2398TIP3   OH2 7157   5.326   1.777   1.381 -0.0259  0.6762 -0.1044
 2398TIP3    H1 7158   5.289   1.714   1.319 -1.9117  2.0833 -0.4911
 2398TIP3    H2 7159   5.259   1.785   1.449  0.6862  1.4389  0.5216
 2399TIP3   OH2 7160   4.190   2.068   0.065 -0.0707 -0.2586  0.6589
 2399TIP3    H1 7161   4.260   2.097   0.122 -0.4366  1.5442  0.2443
 2399TIP3    H2 7162   4.169   2.144   0.011 -0.5873 -1.5302 -1.0159
 2400TIP3   OH2 7163   6.380   3.394   3.627 -0.2736 -0.2637 -0.0857
 2400TIP3    H1 7164   6.376   3.485   3.656 -2.0854 -0.3019 -0.0952
 2400TIP3    H2 7165   6.294   3.358   3.648  0.2324 -1.8446 -0.5411
 2401TIP3   OH2 7166   5.098   5.168   5.552  0.1661  0.1509  0.1171
 2401TIP3    H1 7167   5.171   5.216   5.591  1.1927  0.2600 -1.8198
 2401TIP3    H2 7168   5.078   5.100   5.616  3.1815 -1.0196  0.0132
 2402TIP3   OH2 7169   4.433   5.800   5.654 -0.2545  0.4034  0.2123
 2402TIP3    H1 7170   4.376   5.756   5.590 -1.0503  0.3168  0.9673
 2402TIP3    H2 7171   4.512   5.746   5.656  0.5854  1.4067 -2.0547
 2403TIP3   OH2 7172   3.041   6.183   0.165  0.3222  0.1458 -0.5491
 2403TIP3    H1 7173   3.120   6.233   0.186  0.9327 -0.5711 -1.0807
 2403TIP3    H2 7174   3.051   6.101   0.212 -0.8541  0.6317  0.6236
 2404TIP3   OH2 7175   5.353   0.633   0.676  0.0300  0.5031  0.4640
 2404TIP3    H1 7176   5.263   0.651   0.703 -0.1519 -0.0565  0.2467
 2404TIP3    H2 7177   5.344   0.583   0.594  0.5458  1.0165  0.0818
 2405TIP3   OH2 7178   3.830   6.512   0.179  0.3008 -0.0082  0.4352
 2405TIP3    H1 7179   3.898   6.447   0.196  2.5080  1.6433 -1.4206
 2405TIP3    H2 7180   3.866   6.568   0.110 -1.6906  2.8552  1.5011
 2406TIP3   OH2 7181   2.040   3.745   4.655  0.4633  0.0077  0.0841
 2406TIP3    H1 7182   2.086   3.733   4.572  2.7379 -1.0972  1.3927
 2406TIP3    H2 7183   1.989   3.825   4.643  1.7311  0.5957 -1.9487
 2407TIP3   OH2 7184   2.293   2.416   3.353 -0.1088 -0.3817 -0.4280
 2407TIP3    H1 7185   2.257   2.458   3.431 -1.0337 -0.1472 -0.9651
 2407TIP3    H2 7186   2.282   2.322   3.368  0.1430 -0.3533 -0.0734
 2408TIP3   OH2 7187   0.030   6.347   5.320  0.2240 -0.0620  0.2310
 2408TIP3    H1 7188   0.099   6.328   5.385  1.2431  0.1558 -0.7590
 2408TIP3    H2 7189  -0.007   6.262   5.299  1.9912 -0.5620 -1.1463
 2409TIP3   OH2 7190   5.813   2.794   5.601 -0.0319 -0.4534 -0.3004
 2409TIP3    H1 7191   5.853   2.849   5.668 -1.5017 -0.7867  0.8935
 2409TIP3    H2 7192   5.724   2.829   5.590 -0.3126 -1.3347 -0.9980
 2410TIP3   OH2 7193   2.424   5.073   5.896  0.0435  0.0948 -0.3843
 2410TIP3    H1 7194   2.511   5.090   5.858  0.1849 -1.0024 -0.6092
 2410TIP3    H2 7195   2.363   5.095   5.826  0.2628 -1.1080 -0.9823
 2411TIP3   OH2 7196   6.428   6.472   1.478  0.8013  0.3196 -0.1652
 2411TIP3    H1 7197   6.398   6.382   1.474  2.8175 -0.4424  0.2953
 2411TIP3    H2 7198   6.352   6.522   1.505 -0.2202 -1.3293  0.1382
 2412TIP3   OH2 7199   5.382   0.467   0.385  0.1805  0.3614  0.0545
 2412TIP3    H1 7200   5.474   0.495   0.381  0.3464 -0.0897  0.5513
 2412TIP3    H2 7201   5.344   0.498   0.303  0.6530  0.9799  0.0617
 2413TIP3   OH2 7202   4.303   6.080   4.348 -0.3948  0.4569  0.0399
 2413TIP3    H1 7203   4.283   6.162   4.392 -3.5862 -0.3401  0.3872
 2413TIP3    H2 7204   4.266   6.090   4.260 -0.0454 -0.3015 -0.2070
 2414TIP3   OH2 7205   3.322   4.267   0.180 -0.0168 -0.5511 -0.9737
 2414TIP3    H1 7206   3.395   4.315   0.219  0.2369 -1.9863  0.4048
 2414TIP3    H2 7207   3.364   4.194   0.134 -0.5606 -1.5639  0.0832
 2415TIP3   OH2 7208   0.176   5.471   3.595  0.3938 -0.3423 -0.1837
 2415TIP3    H1 7209   0.144   5.502   3.680  0.1399  1.9545 -1.0372
 2415TIP3    H2 7210   0.258   5.520   3.582  0.3842 -0.6028 -1.2998
 2416TIP3   OH2 7211   4.247   4.921   3.815 -0.2204 -0.3548  0.3972
 2416TIP3    H1 7212   4.233   4.903   3.908  0.8298  0.8631  0.8265
 2416TIP3    H2 7213   4.226   5.014   3.806 -0.7337 -0.5644 -0.6822
 2417TIP3   OH2 7214   7.137   5.805   0.497 -0.0930 -0.4477 -0.0927
 2417TIP3    H1 7215   7.134   5.872   0.428  2.0392 -1.3499 -1.1547
 2417TIP3    H2 7216   7.230   5.797   0.518 -0.3468 -2.6607  0.3948
 2418TIP3   OH2 7217   2.908   4.275   0.086 -0.0139 -0.7518 -0.4149
 2418TIP3    H1 7218   2.890   4.215   0.013 -2.7711  0.0421 -0.4773
 2418TIP3    H2 7219   2.994   4.312   0.065  1.0000 -3.3308 -1.2561
 2419TIP3   OH2 7220   0.510   4.964   5.493 -0.1539 -0.0323 -0.1345
 2419TIP3    H1 7221   0.471   4.959   5.580 -0.6556  1.3363 -0.2698
 2419TIP3    H2 7222   0.483   4.882   5.450  0.1127 -0.7295  0.9805
 2420TIP3   OH2 7223   0.176   1.538   2.850  0.6130  0.1289 -0.3365
 2420TIP3    H1 7224   0.224   1.528   2.933  0.2741  2.0576  0.1275
 2420TIP3    H2 7225   0.084   1.525   2.875  0.4590  1.2612 -0.2894
 2421TIP3   OH2 7226   2.971   5.575   3.511 -0.1180  0.1020 -0.0096
 2421TIP3    H1 7227   2.902   5.599   3.450  0.2692  0.4483 -0.3210
 2421TIP3    H2 7228   2.929   5.517   3.574 -0.8605  0.8955  0.2377
 2422TIP3   OH2 7229   4.154   6.406   2.495 -0.0027 -0.0736  0.4227
 2422TIP3    H1 7230   4.223   6.472   2.503  0.0971 -0.2470  1.0822
 2422TIP3    H2 7231   4.200   6.323   2.491 -0.1056 -0.0721 -1.0560
 2423TIP3   OH2 7232   6.893   1.728   1.645  0.1376  0.1070  0.0682
 2423TIP3    H1 7233   6.912   1.763   1.558  1.3954 -0.0949  0.2432
 2423TIP3    H2 7234   6.798   1.737   1.654  0.1329  1.2289 -0.8419
 2424TIP3   OH2 7235   0.020   4.137   5.698  0.1423 -0.4053 -0.3922
 2424TIP3    H1 7236  -0.005   4.149   5.789  0.0038 -0.7998 -0.3730
 2424TIP3    H2 7237   0.105   4.094   5.702 -0.3366 -1.3891 -0.4323
 2425TIP3   OH2 7238   1.300   3.550   5.249 -0.2460  0.3092 -0.3055
 2425TIP3    H1 7239   1.218   3.501   5.237  0.0998 -0.3620  0.0198
 2425TIP3    H2 7240   1.277   3.621   5.309 -0.3767 -0.4501  0.5661
 2426TIP3   OH2 7241   4.735   4.493   3.031  0.7990 -0.0885  0.2762
 2426TIP3    H1 7242   4.700   4.497   3.120  0.2154  0.9046  0.0132
 2426TIP3    H2 7243   4.718   4.580   2.994  0.1050 -0.8051 -1.1568
 2427TIP3   OH2 7244   6.376   4.151   0.073 -0.1242  0.6211  0.1713
 2427TIP3    H1 7245   6.290   4.182   0.042  0.2238  1.7890  0.3027
 2427TIP3    H2 7246   6.378   4.059   0.049 -1.2929  0.6453 -0.1229
 2428TIP3   OH2 7247   1.131   3.117   1.935 -0.0779 -0.2247  1.1830
 2428TIP3    H1 7248   1.121   3.027   1.905 -2.0831  0.1615  0.5654
 2428TIP3    H2 7249   1.194   3.155   1.873 -1.4791 -0.4140 -0.4320
 2429TIP3   OH2 7250   2.191   0.792   5.598  0.1783  0.3049  0.4722
 2429TIP3    H1 7251   2.181   0.811   5.505 -0.8417 -0.1111  0.4816
 2429TIP3    H2 7252   2.213   0.699   5.602  0.2657  0.3320  0.6385
 2430TIP3   OH2 7253   6.165   5.370   2.064  0.1496  1.0255 -0.4229
 2430TIP3    H1 7254   6.260   5.379   2.063  0.2846 -0.1849 -1.0876
 2430TIP3    H2 7255   6.145   5.331   2.149  0.2546  1.2346 -0.3029
 2431TIP3   OH2 7256   1.677   2.866   3.039  0.3697  0.0699  0.3414
 2431TIP3    H1 7257   1.742   2.823   3.094  0.4584 -0.2436 -0.0013
 2431TIP3    H2 7258   1.710   2.955   3.028  0.0076  0.3390  1.3415
 2432TIP3   OH2 7259   6.653   5.311   1.437  0.0384 -0.2205  0.1953
 2432TIP3    H1 7260   6.660   5.301   1.532 -0.4425 -0.2847  0.2301
 2432TIP3    H2 7261   6.674   5.403   1.421  0.7522 -0.3615  0.2908
 2433TIP3   OH2 7262   2.861   1.219   0.951  0.6277  0.2576 -0.3905
 2433TIP3    H1 7263   2.925   1.267   1.003  1.8369  0.1151 -1.6805
 2433TIP3    H2 7264   2.784   1.276   0.947  1.0938  0.9350  0.2383
 2434TIP3   OH2 7265   6.026   0.252   4.161  0.3450  0.1278 -0.5089
 2434TIP3    H1 7266   5.987   0.165   4.147 -0.7360  0.6590 -0.8944
 2434TIP3    H2 7267   6.024   0.293   4.075  0.5141  0.6830 -0.2527
 2435TIP3   OH2 7268   3.816   4.601   5.812 -0.2487 -0.0900  0.7342
 2435TIP3    H1 7269   3.836   4.690   5.840 -0.2966 -0.0906  0.7708
 2435TIP3    H2 7270   3.901   4.560   5.798 -0.0014  1.4647 -4.2379
 2436TIP3   OH2 7271   0.574   3.435   2.087 -0.0225 -0.1564 -0.8137
 2436TIP3    H1 7272   0.598   3.346   2.112  1.3247  0.5928  0.6787
 2436TIP3    H2 7273   0.647   3.466   2.032 -0.3963  0.1069 -1.1777
 2437TIP3   OH2 7274   4.201   5.534   0.376  0.0381  0.2798  0.0419
 2437TIP3    H1 7275   4.247   5.608   0.337  0.6551  0.0570  0.3326
 2437TIP3    H2 7276   4.242   5.457   0.337  0.7386  0.0485  1.1767
 2438TIP3   OH2 7277   0.814   2.360   0.311 -0.3871 -0.2837 -0.4925
 2438TIP3    H1 7278   0.832   2.346   0.404  0.5795 -0.0937 -0.6383
 2438TIP3    H2 7279   0.895   2.334   0.267 -1.0684 -1.0351 -1.3470
 2439TIP3   OH2 7280   0.911   0.792   1.074  0.0108  0.1690 -0.4026
 2439TIP3    H1 7281   0.924   0.766   0.983  1.8015  1.1696 -0.4801
 2439TIP3    H2 7282   0.962   0.728   1.124 -1.7108 -0.9331  0.0038
 2440TIP3   OH2 7283   1.255   4.855   4.585 -0.0113  0.2971  0.0177
 2440TIP3    H1 7284   1.324   4.849   4.519 -2.1766 -0.7865 -2.2959
 2440TIP3    H2 7285   1.216   4.941   4.571  0.4131  0.6399  0.8768
 2441TIP3   OH2 7286   3.405   1.521   0.495  0.7636  0.0286 -0.0693
 2441TIP3    H1 7287   3.388   1.516   0.589  0.2800 -1.9629 -0.2212
 2441TIP3    H2 7288   3.334   1.573   0.460  1.8366  2.2144  0.8386
 2442TIP3   OH2 7289   3.575   3.550   5.147  0.2045  0.3662 -0.3665
 2442TIP3    H1 7290   3.548   3.482   5.086  1.8248 -1.0392  0.3956
 2442TIP3    H2 7291   3.655   3.586   5.108  0.8781 -0.0841  0.5740
 2443TIP3   OH2 7292   2.913   3.216   5.503  0.4421  0.0186 -0.1338
 2443TIP3    H1 7293   2.889   3.270   5.427 -0.1457 -1.7041 -1.2183
 2443TIP3    H2 7294   3.000   3.183   5.483  0.1775 -0.6552 -0.1881
 2444TIP3   OH2 7295   3.670   2.022   0.376  0.3419 -0.9448  0.2646
 2444TIP3    H1 7296   3.740   2.088   0.380 -1.5440  1.2910 -0.9761
 2444TIP3    H2 7297   3.699   1.960   0.309  0.8790  0.3082 -0.7010
 2445TIP3   OH2 7298   4.671   2.539   1.156  0.1203  0.2268 -0.4122
 2445TIP3    H1 7299   4.707   2.573   1.074 -0.1765  0.9044 -0.2679
 2445TIP3    H2 7300   4.580   2.568   1.156  0.1428  0.2965  0.1966
 2446TIP3   OH2 7301   5.255   1.845   4.323 -0.1588 -0.4752 -0.3822
 2446TIP3    H1 7302   5.334   1.797   4.299  0.4742  0.6509 -0.6507
 2446TIP3    H2 7303   5.218   1.796   4.396  0.9108 -0.9054 -0.1086
 2447TIP3   OH2 7304   1.731   2.002   2.677  0.5276 -0.0434  0.1811
 2447TIP3    H1 7305   1.742   2.097   2.667  0.5852 -0.0254  0.4073
 2447TIP3    H2 7306   1.791   1.964   2.612  0.9751  0.0708  0.5183
 2448TIP3   OH2 7307   0.509   0.869   3.742  0.1237 -0.0600 -0.0529
 2448TIP3    H1 7308   0.495   0.950   3.789  0.9723  1.1262 -1.7332
 2448TIP3    H2 7309   0.595   0.839   3.770  0.1051 -0.0061  0.0601
 2449TIP3   OH2 7310   5.672   2.319   3.651  0.5241  0.1508 -0.0384
 2449TIP3    H1 7311   5.728   2.246   3.676 -0.1633 -0.8660 -1.3074
 2449TIP3    H2 7312   5.689   2.387   3.716  0.5504 -1.4553  1.7089
 2450TIP3   OH2 7313   5.411   1.544   4.953  0.6946 -0.6481  0.6547
 2450TIP3    H1 7314   5.400   1.449   4.957  1.3133 -0.7024  1.2403
 2450TIP3    H2 7315   5.469   1.559   4.878  0.9791 -0.7793  0.8440
 2451TIP3   OH2 7316   6.824   3.164   2.057  0.4195  0.1695 -0.4888
 2451TIP3    H1 7317   6.791   3.197   2.140  1.0014  0.4073 -0.3528
 2451TIP3    H2 7318   6.883   3.093   2.080 -0.9048 -1.0925 -0.7832
 2452TIP3   OH2 7319   5.314   0.302   3.410  0.5599 -0.1448  0.1856
 2452TIP3    H1 7320   5.220   0.320   3.412  0.2261 -1.5335 -1.0315
 2452TIP3    H2 7321   5.346   0.346   3.332  0.1909 -2.5241 -1.4245
 2453TIP3   OH2 7322   0.952   3.771   4.437  0.1462 -0.9795  0.0921
 2453TIP3    H1 7323   0.895   3.803   4.507  1.5581 -0.1170  0.8836
 2453TIP3    H2 7324   0.901   3.784   4.357 -1.0751 -0.9889  0.8405
 2454TIP3   OH2 7325   5.053   3.337   4.121 -0.3181  0.5656  0.3200
 2454TIP3    H1 7326   5.097   3.348   4.036  1.0665 -1.3416  0.7246
 2454TIP3    H2 7327   5.031   3.244   4.124 -1.4605  0.8545  1.5564
 2455TIP3   OH2 7328   4.096   0.981   3.871  1.0522  0.5138  0.1419
 2455TIP3    H1 7329   4.084   0.995   3.777 -0.6449  1.7996  0.5063
 2455TIP3    H2 7330   4.034   0.911   3.893  0.4824  1.1342  0.5281
 2456TIP3   OH2 7331   5.804   0.204   1.872  0.2114 -0.5557  0.3716
 2456TIP3    H1 7332   5.820   0.278   1.813 -4.0285  0.0664 -0.3343
 2456TIP3    H2 7333   5.796   0.128   1.814 -0.2381 -0.6467  0.5507
 2457TIP3   OH2 7334   6.903   4.156   1.985  0.1033  0.0068 -0.0860
 2457TIP3    H1 7335   6.969   4.220   2.012  0.3472 -1.0870  2.0924
 2457TIP3    H2 7336   6.927   4.133   1.895  1.0214  1.6633 -0.2963
 2458TIP3   OH2 7337   3.585   4.606   5.655 -0.7176  0.3411  0.1007
 2458TIP3    H1 7338   3.663   4.646   5.692  0.7938 -0.1393 -2.3354
 2458TIP3    H2 7339   3.528   4.591   5.730  1.4382  0.8820  1.9583
 2459TIP3   OH2 7340   7.028   0.699   1.561  0.2216 -0.4378 -0.4174
 2459TIP3    H1 7341   6.937   0.723   1.581  0.3156  0.2459 -0.8215
 2459TIP3    H2 7342   7.027   0.675   1.469  0.3400 -1.0101 -0.2776
 2460TIP3   OH2 7343   2.420   0.676   5.350  0.5517  0.8420 -0.4170
 2460TIP3    H1 7344   2.484   0.654   5.418 -0.1983  0.3844  0.1512
 2460TIP3    H2 7345   2.335   0.657   5.389  0.0436  1.7154 -1.0649
 2461TIP3   OH2 7346   4.449   4.614   4.255  0.2158  0.5440 -0.2318
 2461TIP3    H1 7347   4.489   4.696   4.226 -0.5510  1.1325  0.3434
 2461TIP3    H2 7348   4.512   4.577   4.316  0.8944  0.3296 -1.0358
 2462TIP3   OH2 7349   5.937   2.989   5.342  0.5464  0.6639 -0.4973
 2462TIP3    H1 7350   5.881   3.007   5.418 -0.1371 -0.9958 -0.5544
 2462TIP3    H2 7351   5.901   3.044   5.273 -0.7542 -0.0245 -0.3998
 2463TIP3   OH2 7352   0.634   0.064   3.793  0.1628  0.6174  0.3419
 2463TIP3    H1 7353   0.704   0.117   3.756 -1.0351  1.3853 -0.9336
 2463TIP3    H2 7354   0.679  -0.005   3.841  1.7695  1.5832  0.2893
 2464TIP3   OH2 7355   4.002   0.772   5.464  0.4339  0.3542  0.0807
 2464TIP3    H1 7356   4.092   0.749   5.484 -0.2639 -0.9191  2.0149
 2464TIP3    H2 7357   3.980   0.721   5.386  1.7405  1.6914 -1.2181
 2465TIP3   OH2 7358   3.520   4.485   4.559 -0.1108  0.0374  0.1772
 2465TIP3    H1 7359   3.527   4.498   4.465  0.0618 -1.0449  0.0263
 2465TIP3    H2 7360   3.481   4.566   4.592 -0.9021  0.1177 -0.9203
 2466TIP3   OH2 7361   0.187   5.912   2.313 -0.3358 -0.1953 -0.2303
 2466TIP3    H1 7362   0.107   5.961   2.293 -0.7325 -0.4572  0.6640
 2466TIP3    H2 7363   0.227   5.895   2.228 -0.9667  0.3885 -0.6499
 2467TIP3   OH2 7364   3.417   4.999   1.359 -0.9260 -0.6244 -0.3945
 2467TIP3    H1 7365   3.434   4.907   1.340  0.8289 -0.3316 -0.3635
 2467TIP3    H2 7366   3.391   5.001   1.451 -3.4590 -1.3257 -0.9935
 2468TIP3   OH2 7367   6.730   0.936   5.091 -0.4088 -0.2206  0.5575
 2468TIP3    H1 7368   6.658   0.967   5.036  0.3183  1.5651  0.5170
 2468TIP3    H2 7369   6.799   1.002   5.079  0.7691 -1.2175  1.5391
 2469TIP3   OH2 7370   2.299   1.631   1.144  0.0643  0.0504  0.0552
 2469TIP3    H1 7371   2.254   1.716   1.140 -0.4907 -0.2627 -0.4477
 2469TIP3    H2 7372   2.239   1.570   1.101 -0.0691 -0.8456  1.4700
 2470TIP3   OH2 7373   4.012   2.946   2.764  0.0897  0.5739 -0.0938
 2470TIP3    H1 7374   4.066   2.872   2.793 -1.2728 -0.3889  0.0952
 2470TIP3    H2 7375   3.932   2.939   2.815  1.4039  4.7010  3.1310
 2471TIP3   OH2 7376   6.516   1.752   1.213  0.2730  0.1574  0.1540
 2471TIP3    H1 7377   6.484   1.675   1.168 -0.3785  0.0907  0.7170
 2471TIP3    H2 7378   6.578   1.792   1.152 -0.0193 -0.3435 -0.4780
 2472TIP3   OH2 7379   3.293   1.518   3.542 -0.6238 -0.2929 -0.5765
 2472TIP3    H1 7380   3.333   1.603   3.524 -1.3425 -0.1351 -1.5256
 2472TIP3    H2 7381   3.295   1.509   3.637  0.6411  0.1968 -0.5350
 2473TIP3   OH2 7382   6.548   0.381   1.663  0.0663 -0.1426 -0.3131
 2473TIP3    H1 7383   6.555   0.353   1.754 -0.3260  1.2974  0.1837
 2473TIP3    H2 7384   6.469   0.435   1.661  1.1229  1.4170 -1.0721
 2474TIP3   OH2 7385   5.396   1.420   3.068 -0.4663 -0.9715  0.2907
 2474TIP3    H1 7386   5.453   1.367   3.123 -0.0395  0.3487  1.1892
 2474TIP3    H2 7387   5.443   1.428   2.985  0.0779 -0.9169  0.5974
 2475TIP3   OH2 7388   1.570   6.365   4.863  0.2609 -1.0141 -0.5813
 2475TIP3    H1 7389   1.489   6.404   4.831  1.0205  0.8694 -0.3675
 2475TIP3    H2 7390   1.635   6.386   4.795  1.1062 -0.1458  0.4549
 2476TIP3   OH2 7391   5.423   4.710   3.069  0.2683  0.1746  0.5832
 2476TIP3    H1 7392   5.336   4.725   3.106  0.1572  0.1160  0.3421
 2476TIP3    H2 7393   5.434   4.781   3.006 -0.1973 -0.6615 -0.4584
 2477TIP3   OH2 7394   2.384   2.181   0.681 -0.7845  0.6956 -0.2394
 2477TIP3    H1 7395   2.303   2.231   0.690 -0.9331  0.4491 -0.1791
 2477TIP3    H2 7396   2.356   2.089   0.688 -0.1664  0.6133  2.8219
 2478TIP3   OH2 7397   4.316   4.505   5.263 -0.2453 -0.2150 -0.2878
 2478TIP3    H1 7398   4.295   4.588   5.220  0.2821 -0.4592 -1.0305
 2478TIP3    H2 7399   4.412   4.505   5.269 -0.0983 -1.5998 -2.0054
 2479TIP3   OH2 7400   4.245   3.525   5.700 -0.1519 -0.1993 -0.8349
 2479TIP3    H1 7401   4.200   3.498   5.780  0.0988  0.7867 -0.3531
 2479TIP3    H2 7402   4.179   3.515   5.631 -0.4444 -0.8133 -0.4711
 2480TIP3   OH2 7403   1.959   4.268   4.589 -0.5611  0.0124  0.1187
 2480TIP3    H1 7404   1.920   4.275   4.676  1.8313  4.0154  1.1117
 2480TIP3    H2 7405   1.900   4.316   4.532  0.8096  2.8271  0.8994
 2481TIP3   OH2 7406   5.828   4.718   2.202 -0.4236  0.3515  0.1086
 2481TIP3    H1 7407   5.892   4.677   2.144  0.1455  2.9436 -1.2810
 2481TIP3    H2 7408   5.843   4.677   2.287  0.7599 -1.4819 -0.9072
 2482TIP3   OH2 7409   3.908   2.072   4.457 -0.3060 -0.1006 -0.4619
 2482TIP3    H1 7410   3.868   2.132   4.394 -2.3916  0.2713  1.1086
 2482TIP3    H2 7411   3.988   2.117   4.484 -0.7312  0.9834 -0.9157
 2483TIP3   OH2 7412   2.885   0.283   5.787  0.1943  0.0822 -0.2103
 2483TIP3    H1 7413   2.878   0.257   5.695 -1.5741  1.5319 -0.5362
 2483TIP3    H2 7414   2.854   0.374   5.789  1.5154  0.5567  1.6208
 2484TIP3   OH2 7415   4.192   4.587   4.077  0.3315  0.0258 -0.2006
 2484TIP3    H1 7416   4.285   4.580   4.096  0.3168  0.7017  0.1377
 2484TIP3    H2 7417   4.153   4.509   4.116  0.6700  0.0527  0.1941
 2485TIP3   OH2 7418   2.028   5.387   5.336  0.0574 -0.4345  0.5661
 2485TIP3    H1 7419   2.026   5.460   5.275  2.5673 -0.2880  0.5625
 2485TIP3    H2 7420   1.962   5.409   5.402 -0.0805  1.2298 -0.0734
 2486TIP3   OH2 7421   2.767   4.348   3.842  0.3346 -0.6652 -0.1158
 2486TIP3    H1 7422   2.728   4.336   3.929 -0.9905  0.2698 -0.5512
 2486TIP3    H2 7423   2.714   4.293   3.784 -0.2106  0.4169 -0.6701
 2487TIP3   OH2 7424   2.517   0.521   3.632  0.5757 -0.5963  0.1976
 2487TIP3    H1 7425   2.423   0.503   3.639  0.5991 -1.0417 -0.5086
 2487TIP3    H2 7426   2.524   0.587   3.562  0.6670  0.6652  1.3563
 2488TIP3   OH2 7427   4.660   2.903   0.035 -0.1497 -0.0286 -0.1592
 2488TIP3    H1 7428   4.697   2.921  -0.051  0.6708 -0.5717  0.0764
 2488TIP3    H2 7429   4.717   2.837   0.074 -0.5962  0.0912  0.7452
 2489TIP3   OH2 7430   1.118   1.678   4.802  0.1184 -0.0260  0.4828
 2489TIP3    H1 7431   1.049   1.639   4.856 -0.8948  1.3530  0.2529
 2489TIP3    H2 7432   1.076   1.693   4.717  1.0328 -0.1268 -0.0008
 2490TIP3   OH2 7433   1.317   6.369   1.187 -0.5002  0.2409  0.5688
 2490TIP3    H1 7434   1.267   6.401   1.263 -2.1328 -0.6862 -0.0517
 2490TIP3    H2 7435   1.321   6.445   1.128 -1.5193  0.2500  0.4857
 2491TIP3   OH2 7436   3.814   0.575   3.330  0.2477  0.3823 -0.2741
 2491TIP3    H1 7437   3.863   0.500   3.297 -1.2743  0.0467 -1.9187
 2491TIP3    H2 7438   3.872   0.650   3.317  1.4209 -0.3444  0.5281
 2492TIP3   OH2 7439   0.488   0.998   1.779 -0.0911 -0.1368 -0.7727
 2492TIP3    H1 7440   0.570   1.011   1.732  0.5746  0.1647  0.4341
 2492TIP3    H2 7441   0.431   1.069   1.748  1.0349  1.3148  0.3347
 2493TIP3   OH2 7442   3.782   2.349   0.304  0.7549  0.4053 -0.5663
 2493TIP3    H1 7443   3.825   2.387   0.227  0.7904 -1.1107 -1.3352
 2493TIP3    H2 7444   3.724   2.281   0.268  1.6489 -1.1537  0.7953
 2494TIP3   OH2 7445   6.571   1.042   2.512 -0.7212 -0.0786  0.2619
 2494TIP3    H1 7446   6.647   0.990   2.485  0.0103  0.9181  0.3675
 2494TIP3    H2 7447   6.510   1.034   2.438 -0.5771 -0.9840  0.2288
 2495TIP3   OH2 7448   3.927   3.327   2.472  0.5112  0.1706 -0.0191
 2495TIP3    H1 7449   3.858   3.352   2.410  0.2508  0.1055  0.2418
 2495TIP3    H2 7450   4.007   3.366   2.437  0.3815  0.0551 -0.4474
 2496TIP3   OH2 7451   3.618   6.545   1.080 -0.0845  0.1570  0.4675
 2496TIP3    H1 7452   3.682   6.484   1.043  0.6106  1.1380  0.0047
 2496TIP3    H2 7453   3.598   6.509   1.166  2.5272  0.7778  1.4344
 2497TIP3   OH2 7454   0.371   5.161   0.641  0.8637  0.2310  0.1060
 2497TIP3    H1 7455   0.326   5.089   0.686  1.7809 -0.2610  0.2823
 2497TIP3    H2 7456   0.447   5.119   0.600  0.5701  0.8446 -1.1044
 2498TIP3   OH2 7457   4.768   4.044   5.861 -0.1025  0.2368 -0.1674
 2498TIP3    H1 7458   4.833   4.114   5.857 -0.8144  0.9643  0.5299
 2498TIP3    H2 7459   4.720   4.052   5.778  0.0832  0.3093 -0.2688
 2499TIP3   OH2 7460   4.708   3.608   0.829  0.1040  0.6796  0.0336
 2499TIP3    H1 7461   4.787   3.624   0.881  0.0839 -1.3713  0.7757
 2499TIP3    H2 7462   4.637   3.640   0.883  0.3202  1.3890 -0.0947
 2500TIP3   OH2 7463   6.931   5.630   5.152 -0.0257 -0.3432  0.4308
 2500TIP3    H1 7464   6.939   5.701   5.089  0.8527 -0.3921  0.4814
 2500TIP3    H2 7465   6.980   5.660   5.229 -2.0105  0.2082  1.5474
 2501TIP3   OH2 7466   5.576   4.067   0.505 -0.3946  0.3495  0.0784
 2501TIP3    H1 7467   5.511   4.025   0.448  0.1019 -0.8119  0.3413
 2501TIP3    H2 7468   5.531   4.143   0.540 -1.2104  0.2449 -0.6975
 2502TIP3   OH2 7469   2.161   2.673   1.750 -0.3160  0.6529  0.5711
 2502TIP3    H1 7470   2.164   2.643   1.659 -1.4453  1.2603  0.3136
 2502TIP3    H2 7471   2.211   2.607   1.799  0.3605  0.3585 -0.4913
 2503TIP3   OH2 7472   0.031   1.298   1.695 -0.1119  0.9561  0.3124
 2503TIP3    H1 7473  -0.053   1.324   1.734  0.1917  0.6376  1.2059
 2503TIP3    H2 7474   0.025   1.203   1.687  0.5166  0.8130  1.2887
 2504TIP3   OH2 7475   5.548   1.939   2.060 -0.2956 -0.0019  0.1055
 2504TIP3    H1 7476   5.519   1.898   1.978 -0.2490  2.3145 -1.1556
 2504TIP3    H2 7477   5.500   2.022   2.064  0.2840  0.2884  2.0471
 2505TIP3   OH2 7478   2.370   1.109   2.748 -0.4767 -0.0443 -0.2505
 2505TIP3    H1 7479   2.309   1.052   2.701  0.0963 -0.2495 -0.7749
 2505TIP3    H2 7480   2.363   1.194   2.704 -0.4553 -0.0410 -0.2475
 2506TIP3   OH2 7481   4.389   1.276   2.906 -0.0294 -0.0603 -0.2090
 2506TIP3    H1 7482   4.308   1.273   2.958  0.3985 -0.4188  0.4394
 2506TIP3    H2 7483   4.393   1.367   2.875 -0.6938 -0.0420 -0.2727
 2507TIP3   OH2 7484   2.905   2.915   1.358  0.5005 -0.0319 -0.3026
 2507TIP3    H1 7485   2.889   2.935   1.450  2.0075  0.1338 -0.0573
 2507TIP3    H2 7486   2.907   2.819   1.355  0.1570 -0.0452 -0.2305
 2508TIP3   OH2 7487   5.724   4.224   0.207  0.2248 -0.2256  0.6209
 2508TIP3    H1 7488   5.767   4.142   0.183  0.7448  0.2260 -0.0385
 2508TIP3    H2 7489   5.778   4.260   0.277 -0.5520 -0.9024  1.6021
 2509TIP3   OH2 7490   5.093   3.082   3.106 -0.2282  0.0823 -0.0998
 2509TIP3    H1 7491   5.116   3.168   3.140  0.2953 -0.8045  1.9252
 2509TIP3    H2 7492   5.032   3.100   3.034 -0.9049  2.0953  0.9047
 2510TIP3   OH2 7493   6.157   4.396   5.913  0.4246 -0.3255  0.8291
 2510TIP3    H1 7494   6.198   4.360   5.834  0.1841  0.2774  0.4245
 2510TIP3    H2 7495   6.154   4.491   5.898 -0.5109 -0.2951  1.1387
 2511TIP3   OH2 7496   3.479   4.134   4.538 -0.3015 -0.4564  0.2224
 2511TIP3    H1 7497   3.482   4.152   4.445  0.0472 -0.8954  0.1431
 2511TIP3    H2 7498   3.570   4.138   4.567 -0.5425  1.1489  0.8411
 2512TIP3   OH2 7499   6.689   4.964   3.862  0.0795 -0.3330 -0.1766
 2512TIP3    H1 7500   6.676   5.041   3.807 -0.0864 -0.1160  0.1685
 2512TIP3    H2 7501   6.628   4.899   3.826 -2.4417  0.8161  1.7029
 2513TIP3   OH2 7502   2.341   2.846   5.801 -0.3735  0.3239  0.5905
 2513TIP3    H1 7503   2.375   2.841   5.712  0.1119 -0.0631  0.7917
 2513TIP3    H2 7504   2.295   2.930   5.805 -1.4062 -0.1736 -0.3681
 2514TIP3   OH2 7505   6.089   6.194   4.499  0.0436 -0.0568 -0.0214
 2514TIP3    H1 7506   6.015   6.162   4.447  0.1943 -0.5646  0.0685
 2514TIP3    H2 7507   6.163   6.191   4.439 -0.0890  0.9068 -0.2551
 2515TIP3   OH2 7508   5.560   4.611   5.228 -0.3943 -0.0898  1.0381
 2515TIP3    H1 7509   5.644   4.607   5.273 -0.6456  0.3661  1.5484
 2515TIP3    H2 7510   5.542   4.704   5.217 -0.6656 -0.1858  0.6004
 2516TIP3   OH2 7511   5.311   4.817   4.196 -0.5604  0.1719 -0.1164
 2516TIP3    H1 7512   5.342   4.790   4.109 -0.3465 -0.9243  0.2731
 2516TIP3    H2 7513   5.389   4.811   4.252 -0.3608  2.2711 -0.1208
 2517TIP3   OH2 7514   6.623   4.642   2.798  0.0054 -0.1328  0.4028
 2517TIP3    H1 7515   6.534   4.637   2.762 -0.3251  0.7431  1.0579
 2517TIP3    H2 7516   6.662   4.718   2.753 -0.3134  0.7925  1.6474
 2518TIP3   OH2 7517   4.326   4.970   4.582 -0.3368 -0.3013  0.2389
 2518TIP3    H1 7518   4.243   5.018   4.590 -0.7649 -1.2803  2.5858
 2518TIP3    H2 7519   4.393   5.037   4.590 -0.9156  0.2318  0.7841
 2519TIP3   OH2 7520   6.402   4.823   2.346 -0.1764  0.3437  0.0382
 2519TIP3    H1 7521   6.446   4.757   2.292 -1.0875  0.2359 -0.6132
 2519TIP3    H2 7522   6.351   4.874   2.283 -0.1725  1.1107  0.6467
 2520TIP3   OH2 7523   5.646   3.294   4.313 -0.6774  0.5555 -0.4729
 2520TIP3    H1 7524   5.708   3.333   4.251 -0.6975  0.4712 -0.5459
 2520TIP3    H2 7525   5.565   3.284   4.263 -1.1051  1.7495 -0.0519
 2521TIP3   OH2 7526   5.777   3.041   1.818 -0.0119 -0.6584  0.7630
 2521TIP3    H1 7527   5.764   3.096   1.740 -0.3072 -0.1133  1.1892
 2521TIP3    H2 7528   5.849   2.983   1.794  0.1155 -0.2795  0.1935
 2522TIP3   OH2 7529   5.776   1.832   0.732 -0.1065 -0.7992  0.1875
 2522TIP3    H1 7530   5.814   1.807   0.816  2.2091 -1.3914 -0.9447
 2522TIP3    H2 7531   5.803   1.762   0.672 -0.3879  0.3765 -1.3676
 2523TIP3   OH2 7532   5.216   6.379   1.576 -0.2549 -0.2261  0.7437
 2523TIP3    H1 7533   5.143   6.317   1.582 -3.0852  2.7576 -0.0630
 2523TIP3    H2 7534   5.274   6.341   1.511 -1.9632 -1.9148  0.1144
 2524TIP3   OH2 7535   0.585   5.051   0.515  0.1524 -0.0711 -0.1401
 2524TIP3    H1 7536   0.602   5.138   0.480 -1.7958  0.1781 -0.5520
 2524TIP3    H2 7537   0.643   4.993   0.464  3.2049  1.1437  1.6739
 2525TIP3   OH2 7538   2.080   6.634   3.887 -0.6293  0.0865  0.2305
 2525TIP3    H1 7539   2.017   6.565   3.906  0.5067 -0.7441  1.0995
 2525TIP3    H2 7540   2.129   6.645   3.968  1.0323 -0.0190 -0.7055
 2526TIP3   OH2 7541   7.078   3.349   4.823  0.4022  0.0449  0.1116
 2526TIP3    H1 7542   7.053   3.419   4.763 -2.4188 -0.2405  0.8094
 2526TIP3    H2 7543   7.110   3.279   4.767 -0.5235  0.4301 -0.9299
 2527TIP3   OH2 7544   5.563   6.670   3.988  0.6436  0.0876  0.6858
 2527TIP3    H1 7545   5.632   6.670   4.054  0.0078 -0.8171  1.3971
 2527TIP3    H2 7546   5.508   6.595   4.012  2.0067 -2.2252 -2.6063
 2528TIP3   OH2 7547   2.391   3.880   1.600  0.0424 -0.1067 -0.0128
 2528TIP3    H1 7548   2.394   3.973   1.621 -0.9980  0.0056 -0.2823
 2528TIP3    H2 7549   2.352   3.839   1.678 -1.0389 -0.0828 -0.5190
 2529TIP3   OH2 7550   7.075   6.511   4.341 -0.5174 -0.2147  0.5893
 2529TIP3    H1 7551   7.110   6.499   4.253 -2.6669 -2.6417 -0.0659
 2529TIP3    H2 7552   7.116   6.592   4.373  1.9933 -0.4393 -1.7513
 2530TIP3   OH2 7553   5.631   4.539   0.460 -0.4210 -0.1841  0.0859
 2530TIP3    H1 7554   5.682   4.459   0.452 -1.7944 -1.2037  1.0313
 2530TIP3    H2 7555   5.660   4.594   0.386  1.4376 -1.0074  0.1532
 2531TIP3   OH2 7556   3.643   1.523   3.483 -0.1778 -0.1462  0.1105
 2531TIP3    H1 7557   3.710   1.493   3.544 -2.5554 -2.1414  1.9483
 2531TIP3    H2 7558   3.596   1.443   3.459 -1.3348  1.0519 -1.8559
 2532TIP3   OH2 7559   2.968   5.616   3.067  0.3444 -0.1560  0.3160
 2532TIP3    H1 7560   2.927   5.684   3.015  1.8174 -0.1007 -0.8485
 2532TIP3    H2 7561   2.899   5.585   3.125 -0.9478  0.8156 -0.6434
 2533TIP3   OH2 7562   4.141   5.156   3.731 -0.1673 -0.1924 -0.0385
 2533TIP3    H1 7563   4.046   5.165   3.725 -0.0836  0.2731 -0.7829
 2533TIP3    H2 7564   4.174   5.245   3.729  0.2860 -0.3523  0.2047
 2534TIP3   OH2 7565   6.374   1.033   2.299  0.2675 -0.3569  0.0574
 2534TIP3    H1 7566   6.319   1.099   2.342  0.9953 -1.1657  2.3688
 2534TIP3    H2 7567   6.314   0.985   2.242 -0.8231  0.5105  0.4465
 2535TIP3   OH2 7568   3.407   2.016   1.550 -0.1461  0.0656 -0.1640
 2535TIP3    H1 7569   3.316   1.988   1.546 -0.3200  0.7634 -2.3642
 2535TIP3    H2 7570   3.403   2.104   1.587 -0.0613 -0.8159  2.1138
 2536TIP3   OH2 7571   5.701   3.681   3.250 -0.0041 -0.6128  0.2674
 2536TIP3    H1 7572   5.788   3.721   3.257 -0.6630  1.2136 -1.1563
 2536TIP3    H2 7573   5.680   3.686   3.157 -2.3126  0.5538  0.7897
 2537TIP3   OH2 7574   5.294   4.915   3.228 -0.1680 -0.2225  0.0206
 2537TIP3    H1 7575   5.224   4.850   3.217 -1.1701  0.9302 -0.5987
 2537TIP3    H2 7576   5.259   4.979   3.289  0.3585  0.3377 -0.2494
 2538TIP3   OH2 7577   3.582   5.442   0.116 -0.4277 -0.4365  0.5533
 2538TIP3    H1 7578   3.625   5.407   0.037  0.1815  0.2882  0.5511
 2538TIP3    H2 7579   3.653   5.451   0.179 -0.6232  0.4986  0.6492
 2539TIP3   OH2 7580   2.137   5.737   0.591 -0.1943 -0.0888 -0.0687
 2539TIP3    H1 7581   2.136   5.653   0.546  0.8137 -0.6964  0.9627
 2539TIP3    H2 7582   2.058   5.782   0.561 -0.2791 -1.0236 -1.3273
 2540TIP3   OH2 7583   6.131   4.298   5.658 -0.1137  0.5241 -0.3076
 2540TIP3    H1 7584   6.209   4.304   5.604  1.2825 -1.1887  1.3735
 2540TIP3    H2 7585   6.079   4.228   5.617 -0.9664  1.8355 -1.5726
 2541TIP3   OH2 7586   1.145   2.404   5.635  0.4834  0.3868 -0.1016
 2541TIP3    H1 7587   1.179   2.475   5.580  0.3282  0.7342  0.2460
 2541TIP3    H2 7588   1.205   2.400   5.709  1.3276 -0.8035 -0.8074
 2542TIP3   OH2 7589   1.442   5.431   1.656 -0.3873 -0.3377  0.1439
 2542TIP3    H1 7590   1.377   5.439   1.587  1.7194 -1.4230 -2.1233
 2542TIP3    H2 7591   1.507   5.498   1.636  0.5208 -1.0115  0.7285
 2543TIP3   OH2 7592   5.160   2.281   2.687  0.5482  0.6980 -0.1872
 2543TIP3    H1 7593   5.120   2.219   2.748 -0.0306  2.0772  0.8852
 2543TIP3    H2 7594   5.167   2.363   2.736  2.9625  1.0433 -0.9642
 2544TIP3   OH2 7595   3.205   5.880   1.734 -0.0017 -0.0905 -0.0612
 2544TIP3    H1 7596   3.187   5.834   1.815  0.5390 -1.1279 -0.5116
 2544TIP3    H2 7597   3.119   5.895   1.695 -0.2105 -0.2489  0.3368
 2545TIP3   OH2 7598   7.065   6.664   0.206 -0.2966  0.3607 -0.7386
 2545TIP3    H1 7599   7.038   6.735   0.263 -1.5134  1.1909 -2.2881
 2545TIP3    H2 7600   6.986   6.636   0.161  0.7302  0.2874 -2.6159
 2546TIP3   OH2 7601   0.086   5.357   3.863  0.0181  0.0759 -0.0636
 2546TIP3    H1 7602   0.001   5.313   3.871 -1.1016  2.3472  2.1228
 2546TIP3    H2 7603   0.110   5.379   3.953  2.2591  0.7243 -0.7623
 2547TIP3   OH2 7604   2.585   2.056   2.340 -0.3228  1.0796  0.1319
 2547TIP3    H1 7605   2.525   2.130   2.346  0.5074  1.9394 -1.4361
 2547TIP3    H2 7606   2.640   2.076   2.264  0.2515 -0.9178 -0.0399
 2548TIP3   OH2 7607   7.125   1.119   0.372  0.2150 -0.4192  0.3604
 2548TIP3    H1 7608   7.117   1.027   0.347  0.0550 -0.3029 -0.0227
 2548TIP3    H2 7609   7.212   1.126   0.413  0.4569 -0.6286 -0.1076
 2549TIP3   OH2 7610   3.471   5.243   0.873 -0.1587 -0.0751 -0.2270
 2549TIP3    H1 7611   3.447   5.193   0.951 -1.0049  2.1453  1.0445
 2549TIP3    H2 7612   3.390   5.248   0.822  0.6955 -2.5880 -1.9684
 2550TIP3   OH2 7613   3.150   0.593   1.722 -0.2254  0.6080  0.4603
 2550TIP3    H1 7614   3.098   0.524   1.763 -1.0204  1.3972  0.8249
 2550TIP3    H2 7615   3.114   0.600   1.633  0.4418 -0.0326  0.1335
 2551TIP3   OH2 7616   0.833   6.583   5.736 -0.3654  1.0006 -0.1534
 2551TIP3    H1 7617   0.921   6.563   5.768  0.3746  2.5996 -1.0720
 2551TIP3    H2 7618   0.821   6.676   5.755 -2.6663  0.4271  1.7140
 2552TIP3   OH2 7619   0.197   1.329   0.761 -0.0122  0.3113 -0.0937
 2552TIP3    H1 7620   0.281   1.320   0.806 -0.6389 -1.6001  0.7776
 2552TIP3    H2 7621   0.135   1.350   0.830 -0.7121 -1.0344 -0.2988
 2553TIP3   OH2 7622   5.915   0.032   0.072 -0.4006  0.0358 -0.9010
 2553TIP3    H1 7623   5.838  -0.024   0.061 -0.0040 -0.1242 -3.5706
 2553TIP3    H2 7624   5.898   0.080   0.153 -1.8592 -2.1847  0.2282
 2554TIP3   OH2 7625   3.945   0.027   2.154 -0.5901  0.6440 -0.1738
 2554TIP3    H1 7626   3.971   0.051   2.065 -2.3967 -0.8477 -1.1652
 2554TIP3    H2 7627   3.990  -0.056   2.170 -1.4331  0.1526 -0.2990
 2555TIP3   OH2 7628   1.283   6.734   1.423 -0.3300  0.4737 -0.1463
 2555TIP3    H1 7629   1.375   6.711   1.414 -0.3196  0.8010 -0.9095
 2555TIP3    H2 7630   1.269   6.807   1.363 -1.7731 -1.5087 -2.4157
 2556TIP3   OH2 7631   6.977   4.997   2.011  0.2466  0.1429 -0.3228
 2556TIP3    H1 7632   7.021   5.082   2.021  1.9415 -0.5911 -1.2498
 2556TIP3    H2 7633   7.012   4.943   2.082 -1.9136  0.5672  1.1895
 2557TIP3   OH2 7634   4.934   6.475   2.513 -0.1859  0.7893 -0.8869
 2557TIP3    H1 7635   4.868   6.492   2.446 -0.6030  0.6823 -0.5099
 2557TIP3    H2 7636   4.887   6.427   2.581  0.4460  0.0572 -0.9397
 2558TIP3   OH2 7637   5.935   6.492   4.114 -0.5501 -0.1076 -0.0511
 2558TIP3    H1 7638   5.858   6.527   4.158 -0.7703  0.3773 -0.7993
 2558TIP3    H2 7639   6.009   6.533   4.158 -0.6934 -0.7802  0.8483
 2559TIP3   OH2 7640   3.326   1.285   4.170  0.1256 -0.2697 -0.7278
 2559TIP3    H1 7641   3.356   1.233   4.245  0.5245 -1.6943 -1.8501
 2559TIP3    H2 7642   3.231   1.289   4.181  0.3450  1.8257  1.2680
 2560TIP3   OH2 7643   3.640   3.174   4.001  0.4178  0.0892 -0.1635
 2560TIP3    H1 7644   3.605   3.233   4.068 -1.2418 -1.1572  0.1299
 2560TIP3    H2 7645   3.722   3.141   4.039  1.4149  2.1691 -0.3584
 2561TIP3   OH2 7646   0.867   5.035   2.561  0.2576 -0.1442  0.4567
 2561TIP3    H1 7647   0.806   4.979   2.610  0.5519 -0.3108  0.6345
 2561TIP3    H2 7648   0.829   5.042   2.474  2.0090 -3.5784 -0.7576
 2562TIP3   OH2 7649   2.852   0.730   1.242 -0.0018  0.7247  0.4960
 2562TIP3    H1 7650   2.878   0.797   1.179 -0.3094 -1.4876 -2.2051
 2562TIP3    H2 7651   2.914   0.658   1.227 -2.6541 -1.5492 -0.4275
 2563TIP3   OH2 7652   5.677   1.421   5.744 -0.5667  0.7977 -0.1009
 2563TIP3    H1 7653   5.704   1.367   5.670 -2.0826 -0.3073  0.1083
 2563TIP3    H2 7654   5.708   1.509   5.723 -1.7251  0.7008 -2.4710
 2564TIP3   OH2 7655   1.396   2.570   1.259 -0.1698  0.1011 -0.4006
 2564TIP3    H1 7656   1.413   2.653   1.215 -2.0545  0.6434 -0.2051
 2564TIP3    H2 7657   1.312   2.583   1.303  0.7805 -1.0124  1.9145
 2565TIP3   OH2 7658   3.084   6.551   0.188 -0.1802 -0.1887 -0.3739
 2565TIP3    H1 7659   3.052   6.556   0.278 -1.8545  1.9128 -1.0048
 2565TIP3    H2 7660   3.155   6.487   0.191 -0.9169 -0.9946  2.2027
 2566TIP3   OH2 7661   7.135   0.825   3.200 -0.0015  0.1712  0.1482
 2566TIP3    H1 7662   7.103   0.739   3.172 -0.7626  1.2120 -2.4424
 2566TIP3    H2 7663   7.198   0.851   3.133 -0.0796  1.8095  0.6515
 2567TIP3   OH2 7664   1.588   0.074   2.849  0.3527  0.2248  0.2393
 2567TIP3    H1 7665   1.585   0.097   2.756  1.3307 -0.5333 -0.0038
 2567TIP3    H2 7666   1.682   0.065   2.868  0.2507  1.6225  1.6348
 2568TIP3   OH2 7667   0.986   1.237   2.615  0.4875  0.5355 -0.3252
 2568TIP3    H1 7668   0.893   1.256   2.605  0.3876 -0.3522 -1.1728
 2568TIP3    H2 7669   1.028   1.323   2.619 -0.4925  0.9832  1.5957
 2569TIP3   OH2 7670   4.296   6.331   4.533 -0.1278 -0.1699  0.2840
 2569TIP3    H1 7671   4.216   6.280   4.549  0.4678 -1.3943 -0.5207
 2569TIP3    H2 7672   4.332   6.347   4.621 -0.1934 -1.3851  0.5515
 2570TIP3   OH2 7673   5.539   1.077   4.227 -0.4660  0.0425  0.3645
 2570TIP3    H1 7674   5.471   1.136   4.196 -2.7194 -2.5203  0.0667
 2570TIP3    H2 7675   5.493   1.013   4.281  1.9011 -1.2099  1.0396
 2571TIP3   OH2 7676   0.228   3.852   2.206 -0.2556 -0.0240  0.0414
 2571TIP3    H1 7677   0.203   3.938   2.172 -0.1633 -0.3557 -0.8957
 2571TIP3    H2 7678   0.276   3.871   2.286  0.3989  0.8343 -0.5313
 2572TIP3   OH2 7679   0.158   4.196   4.488 -0.3951 -0.0071 -0.6286
 2572TIP3    H1 7680   0.235   4.252   4.493  0.4801 -1.1708 -0.6998
 2572TIP3    H2 7681   0.165   4.139   4.565 -2.2562  1.1839  0.4899
 2573TIP3   OH2 7682   4.940   6.002   4.510  0.3050 -0.2059 -0.2139
 2573TIP3    H1 7683   4.982   6.067   4.454  1.3833 -0.6772  0.0194
 2573TIP3    H2 7684   4.849   6.000   4.481  0.6568  0.1419 -1.3899
 2574TIP3   OH2 7685   1.243   6.614   3.299 -0.2032 -0.3388 -0.0979
 2574TIP3    H1 7686   1.150   6.615   3.279  0.1648 -0.2627 -2.0018
 2574TIP3    H2 7687   1.261   6.700   3.336 -0.9959 -0.5962  0.9163
 2575TIP3   OH2 7688   3.538   2.882   0.212 -0.3037 -1.0437 -0.3474
 2575TIP3    H1 7689   3.621   2.929   0.207 -0.2978 -1.1252 -1.1931
 2575TIP3    H2 7690   3.484   2.935   0.270 -0.0416 -0.3879 -0.6876
 2576TIP3   OH2 7691   7.202   2.093   3.630  0.5912  0.4229 -0.4176
 2576TIP3    H1 7692   7.205   2.085   3.726  0.3896 -1.4565 -0.5280
 2576TIP3    H2 7693   7.110   2.105   3.610  0.5117 -0.2064 -0.4331
 2577TIP3   OH2 7694   1.459   1.919   3.454  0.4066 -0.1355 -0.0800
 2577TIP3    H1 7695   1.506   1.835   3.457  0.8916  0.1571  1.2837
 2577TIP3    H2 7696   1.527   1.983   3.433  0.3405  0.1072  0.4332
 2578TIP3   OH2 7697   5.979   5.133   1.253 -0.1786  0.1424  0.0511
 2578TIP3    H1 7698   5.911   5.087   1.203 -1.2004  0.2480  1.2822
 2578TIP3    H2 7699   6.011   5.200   1.193 -1.2548  0.1666 -0.5310
 2579TIP3   OH2 7700   2.494   5.150   5.101 -0.0230  0.1311  0.3215
 2579TIP3    H1 7701   2.572   5.156   5.157  0.6130  1.9746 -0.6884
 2579TIP3    H2 7702   2.448   5.233   5.116 -0.4552  0.1440 -0.9662
 2580TIP3   OH2 7703   4.248   0.100   3.697  0.5961  0.1114 -0.2082
 2580TIP3    H1 7704   4.207   0.018   3.724 -0.5730  1.1512  1.3538
 2580TIP3    H2 7705   4.336   0.097   3.735 -0.0460  0.3010  1.3578
 2581TIP3   OH2 7706   2.914   4.792   5.497 -0.1816  0.3579 -0.2226
 2581TIP3    H1 7707   2.853   4.762   5.430 -0.4756 -0.1281  0.2482
 2581TIP3    H2 7708   2.976   4.719   5.508 -0.7355  0.0154  0.7334
 2582TIP3   OH2 7709   2.980   2.953   5.724 -0.3231  0.0067  0.7025
 2582TIP3    H1 7710   2.927   3.032   5.733 -1.4009 -0.5958 -0.0431
 2582TIP3    H2 7711   3.019   2.959   5.637  0.8547  0.4329  1.2365
 2583TIP3   OH2 7712   0.024   4.529   2.303 -0.0593  0.3117  0.4262
 2583TIP3    H1 7713   0.078   4.576   2.239 -1.1020  1.8872  0.6238
 2583TIP3    H2 7714   0.068   4.446   2.316  1.8089  1.1746 -0.0890
 2584TIP3   OH2 7715   7.135   4.863   2.184  0.3994 -0.7629 -0.5059
 2584TIP3    H1 7716   7.182   4.945   2.196  0.0111 -0.7203  0.8604
 2584TIP3    H2 7717   7.174   4.824   2.106  1.2810  0.2330 -0.5773
 2585TIP3   OH2 7718   2.171   0.368   1.639 -0.3120 -0.6549  0.6439
 2585TIP3    H1 7719   2.120   0.309   1.583  0.5149 -0.9152  0.1432
 2585TIP3    H2 7720   2.221   0.310   1.696  0.5425 -0.4562  0.1163
 2586TIP3   OH2 7721   7.124   1.239   5.073 -0.2189 -0.0753  0.3731
 2586TIP3    H1 7722   7.142   1.319   5.023  1.2504 -1.0148 -0.6881
 2586TIP3    H2 7723   7.194   1.179   5.048 -1.4762 -1.8293  0.8601
 2587TIP3   OH2 7724   3.075   1.363   0.721  0.3011 -0.0856  0.2191
 2587TIP3    H1 7725   3.151   1.418   0.740 -0.8473  1.3611  0.8337
 2587TIP3    H2 7726   3.035   1.402   0.643 -0.3159 -0.2715  0.4331
 2588TIP3   OH2 7727   0.177   4.127   4.758  0.3992 -0.5605 -0.2000
 2588TIP3    H1 7728   0.271   4.129   4.737  0.8463 -0.4555  1.6415
 2588TIP3    H2 7729   0.161   4.207   4.807 -1.3449  0.8907 -2.8974
 2589TIP3   OH2 7730   4.292   5.342   4.393 -0.1590 -0.2370 -0.0708
 2589TIP3    H1 7731   4.383   5.339   4.363 -0.4316  1.4497 -1.1505
 2589TIP3    H2 7732   4.298   5.360   4.487  0.6212  0.1407 -0.1890
 2590TIP3   OH2 7733   1.880   5.996   5.777 -0.1304  0.0287 -0.6358
 2590TIP3    H1 7734   1.839   5.921   5.821  1.5472  0.1587  1.2968
 2590TIP3    H2 7735   1.941   5.956   5.715  0.6997 -0.2576  0.3298
 2591TIP3   OH2 7736   4.984   4.011   1.307  0.2708 -0.2669  0.3779
 2591TIP3    H1 7737   4.997   4.055   1.391  3.6150  0.0195 -0.1750
 2591TIP3    H2 7738   4.900   3.965   1.317 -0.1266  0.8954  3.3200
 2592TIP3   OH2 7739   3.075   3.970   2.001  0.3882 -0.2678  0.4158
 2592TIP3    H1 7740   3.036   4.008   1.923  0.0169  0.5004  0.9660
 2592TIP3    H2 7741   3.011   3.904   2.030 -0.0032  0.2299  0.6995
 2593TIP3   OH2 7742   5.952   5.422   5.780  0.1655 -0.1109  0.5777
 2593TIP3    H1 7743   5.924   5.493   5.723  0.3153 -0.2008  0.3921
 2593TIP3    H2 7744   5.989   5.357   5.721  0.4194 -0.1592  0.7872
 2594TIP3   OH2 7745   3.878   1.282   1.750  0.2700 -1.0406 -0.6800
 2594TIP3    H1 7746   3.936   1.301   1.676 -0.6214 -0.2417 -1.2007
 2594TIP3    H2 7747   3.837   1.366   1.771 -0.7257 -1.5854 -0.3602
 2595TIP3   OH2 7748   6.987   5.646   1.815 -0.3989 -0.3214  0.1682
 2595TIP3    H1 7749   7.032   5.562   1.813  1.9711  0.8687  0.3462
 2595TIP3    H2 7750   6.952   5.657   1.726 -1.8426 -1.9788  0.4674
 2596TIP3   OH2 7751   6.008   2.898   5.062 -0.3886 -0.2640 -0.3742
 2596TIP3    H1 7752   5.993   2.934   4.975 -1.5439  1.8867  0.6388
 2596TIP3    H2 7753   5.971   2.963   5.122  3.0553 -0.1255  1.9060
 2597TIP3   OH2 7754   2.100   0.882   1.063 -0.2590 -0.1772 -0.0647
 2597TIP3    H1 7755   2.133   0.792   1.071 -1.0495 -0.6380 -1.5913
 2597TIP3    H2 7756   2.176   0.933   1.037  0.3049 -0.2984  1.2755
 2598TIP3   OH2 7757   4.302   1.282   3.225  0.1726  0.0971 -0.4242
 2598TIP3    H1 7758   4.316   1.242   3.311 -1.6538  2.6062  1.1688
 2598TIP3    H2 7759   4.224   1.239   3.191  0.2944 -0.1681 -0.3747
 2599TIP3   OH2 7760   5.683   4.221   5.733  0.9047  0.2375 -0.0796
 2599TIP3    H1 7761   5.707   4.304   5.775  0.5500  0.9396 -1.2063
 2599TIP3    H2 7762   5.590   4.211   5.752  1.0284 -0.0762  0.3490
 2600TIP3   OH2 7763   2.754   1.584   3.026  0.5394 -0.1130  0.4332
 2600TIP3    H1 7764   2.830   1.641   3.013  1.0121 -0.9598 -0.6158
 2600TIP3    H2 7765   2.688   1.642   3.064  1.3269  0.9057  0.3046
 2601TIP3   OH2 7766   1.865   4.449   4.424  0.5087  0.2486 -0.2206
 2601TIP3    H1 7767   1.893   4.464   4.334 -0.4900  1.2464 -0.3902
 2601TIP3    H2 7768   1.770   4.461   4.421  0.4811  0.4114  0.9934
 2602TIP3   OH2 7769   2.937   1.240   3.944 -0.0331 -0.2353 -0.0822
 2602TIP3    H1 7770   2.938   1.166   4.004  0.9896  0.6185  1.0049
 2602TIP3    H2 7771   3.027   1.246   3.912 -0.0605  0.6441 -0.0063
 2603TIP3   OH2 7772   2.532   0.576   4.588  0.5265 -0.4619 -0.0952
 2603TIP3    H1 7773   2.539   0.509   4.521  0.5902 -0.6400  0.0877
 2603TIP3    H2 7774   2.488   0.649   4.545 -1.2666 -1.3115  0.2281
 2604TIP3   OH2 7775   3.530   5.506   0.874  0.1468  0.6518 -0.1761
 2604TIP3    H1 7776   3.491   5.427   0.910  0.4039  0.6133  0.0154
 2604TIP3    H2 7777   3.475   5.527   0.799  0.2684  0.1099 -0.4210
 2605TIP3   OH2 7778   4.328   3.258   3.309 -0.8299  0.0726 -0.1246
 2605TIP3    H1 7779   4.341   3.164   3.324 -0.1574  0.2657  0.5932
 2605TIP3    H2 7780   4.330   3.267   3.214 -1.4014 -0.7038 -0.2229
 2606TIP3   OH2 7781   2.573   1.485   3.276  0.3786 -0.1009 -0.0768
 2606TIP3    H1 7782   2.649   1.495   3.334  0.0932  0.5825  0.1845
 2606TIP3    H2 7783   2.499   1.520   3.327  0.3101  1.5851 -1.2770
 2607TIP3   OH2 7784   3.756   1.233   4.970  0.2584  0.2273  0.2465
 2607TIP3    H1 7785   3.774   1.280   4.888  1.7855 -0.9035 -0.0973
 2607TIP3    H2 7786   3.669   1.264   4.996  0.7588  2.4486 -0.5074
 2608TIP3   OH2 7787   3.902   5.072   3.898  0.2774  0.2863 -0.5532
 2608TIP3    H1 7788   3.897   5.128   3.821 -0.3997  0.7068 -0.2107
 2608TIP3    H2 7789   3.917   4.984   3.863  0.3028  0.5251 -1.1468
 2609TIP3   OH2 7790   5.024   5.556   4.150 -0.0710  0.5698 -0.3905
 2609TIP3    H1 7791   5.113   5.563   4.117 -0.4781  1.7000 -1.3359
 2609TIP3    H2 7792   5.010   5.638   4.199  0.3489 -0.8353  2.2671
 2610TIP3   OH2 7793   1.345   5.396   5.598 -0.1644  0.5402  0.2013
 2610TIP3    H1 7794   1.334   5.338   5.673  0.4860  0.9708  0.6405
 2610TIP3    H2 7795   1.365   5.482   5.636  1.0447  0.5809 -0.4678
 2611TIP3   OH2 7796   3.630   1.206   5.831 -0.0371  0.7782  0.2614
 2611TIP3    H1 7797   3.663   1.296   5.828 -0.1395  0.7857 -1.2649
 2611TIP3    H2 7798   3.549   1.207   5.780  0.1173 -0.2361 -0.0392
 2612TIP3   OH2 7799   2.197   2.130   5.487 -0.4676 -0.0337  0.0669
 2612TIP3    H1 7800   2.242   2.103   5.407 -0.9444 -1.5664  0.2843
 2612TIP3    H2 7801   2.258   2.108   5.558 -1.6369 -2.5116  0.3958
 2613TIP3   OH2 7802   1.808   0.624   3.032  0.4933 -0.0085  0.7398
 2613TIP3    H1 7803   1.790   0.539   2.990  0.2907  1.1754 -1.7988
 2613TIP3    H2 7804   1.890   0.653   2.991 -0.4641  1.8643  0.0267
 2614TIP3   OH2 7805   5.004   3.425   0.334 -0.5815 -0.3407 -0.1691
 2614TIP3    H1 7806   5.067   3.435   0.262  1.7995 -1.0344  1.6840
 2614TIP3    H2 7807   4.962   3.511   0.341  0.5454  0.3163 -1.1683
 2615TIP3   OH2 7808   5.725   3.636   0.076  0.4115 -0.4319  0.1776
 2615TIP3    H1 7809   5.708   3.721   0.034 -1.8849 -0.9844 -0.1181
 2615TIP3    H2 7810   5.821   3.629   0.076  0.5994  0.7760 -2.6156
 2616TIP3   OH2 7811   2.427   4.859   0.802 -0.1097  0.6073  0.0336
 2616TIP3    H1 7812   2.496   4.879   0.865 -1.8753  1.8645  1.7006
 2616TIP3    H2 7813   2.458   4.897   0.720  1.2148  1.0739  0.7138
 2617TIP3   OH2 7814   6.542   3.990   0.346  0.2241  0.2603 -0.3119
 2617TIP3    H1 7815   6.536   3.919   0.410 -0.0895  0.4114 -0.1726
 2617TIP3    H2 7816   6.492   3.959   0.271  0.2582  0.2510 -0.3310
 2618TIP3   OH2 7817   0.690   6.210   3.909  0.6547 -0.3306  0.3465
 2618TIP3    H1 7818   0.710   6.211   4.002  0.5422  0.5969  0.3689
 2618TIP3    H2 7819   0.614   6.152   3.901  1.0184 -0.8658  0.7504
 2619TIP3   OH2 7820   3.218   4.809   1.512  0.2449 -0.5792 -0.0043
 2619TIP3    H1 7821   3.288   4.861   1.551 -0.0733 -0.7072  0.7502
 2619TIP3    H2 7822   3.190   4.749   1.582  0.2887 -1.4464 -0.7151
 2620TIP3   OH2 7823   0.840   2.167   2.012 -0.1476 -0.0625  0.2852
 2620TIP3    H1 7824   0.748   2.139   2.012  0.0389 -0.7340  1.5768
 2620TIP3    H2 7825   0.846   2.233   2.081  0.6274 -1.0997  1.2434
 2621TIP3   OH2 7826   4.514   0.110   3.796 -0.1961  0.6446  0.0761
 2621TIP3    H1 7827   4.508   0.017   3.817 -0.3520  0.5150 -0.5327
 2621TIP3    H2 7828   4.590   0.141   3.845  0.1377  0.0940 -0.0940
 2622TIP3   OH2 7829   6.839   2.053   3.277  0.3001  0.5384  0.3859
 2622TIP3    H1 7830   6.889   2.130   3.249  2.6581 -0.6177  1.1750
 2622TIP3    H2 7831   6.895   1.978   3.255 -2.1537 -1.0822 -0.9081
 2623TIP3   OH2 7832   2.457   2.209   3.842 -0.0299 -0.3313 -0.2944
 2623TIP3    H1 7833   2.481   2.294   3.879 -1.7667 -0.0801  0.3299
 2623TIP3    H2 7834   2.494   2.210   3.753  1.0083  0.5560  0.1196
 2624TIP3   OH2 7835   4.008   3.339   0.252  0.0308  0.2503 -0.1839
 2624TIP3    H1 7836   3.943   3.334   0.182  0.8225 -0.3620 -0.9080
 2624TIP3    H2 7837   3.998   3.257   0.300 -1.2431  1.1319  1.1285
 2625TIP3   OH2 7838   6.838   6.343   0.171 -0.0072 -0.3711 -0.4523
 2625TIP3    H1 7839   6.861   6.379   0.257  1.1305 -0.2840 -0.7690
 2625TIP3    H2 7840   6.920   6.308   0.137 -0.5870 -1.0205 -1.2196
 2626TIP3   OH2 7841   6.302   0.480   5.667  0.3162 -0.1323 -0.4568
 2626TIP3    H1 7842   6.243   0.556   5.677 -1.3120 -1.4338  0.2575
 2626TIP3    H2 7843   6.251   0.406   5.698  1.2208 -1.8294 -2.7617
 2627TIP3   OH2 7844   5.282   3.872   0.774 -0.2955  0.5336  0.0893
 2627TIP3    H1 7845   5.376   3.888   0.783 -0.3346  0.8355 -0.0404
 2627TIP3    H2 7846   5.244   3.958   0.758 -0.8013  0.6874  1.8420
 2628TIP3   OH2 7847   0.773   2.077   3.539 -0.1219  0.7307 -0.8359
 2628TIP3    H1 7848   0.773   2.173   3.534 -0.6103  0.6859 -2.0524
 2628TIP3    H2 7849   0.764   2.048   3.448 -1.8494 -0.4600 -0.3424
 2629TIP3   OH2 7850   4.761   2.925   4.098 -0.1935 -0.0023  0.6022
 2629TIP3    H1 7851   4.739   2.833   4.090  0.0380 -0.0310  0.2881
 2629TIP3    H2 7852   4.705   2.957   4.168 -0.5617 -0.2907  0.4439
 2630TIP3   OH2 7853   5.365   3.501   3.720  0.5528  0.4484  0.2010
 2630TIP3    H1 7854   5.327   3.479   3.804  0.4430 -0.2208 -0.0214
 2630TIP3    H2 7855   5.388   3.594   3.727 -0.9851  0.8281  0.3778
 2631TIP3   OH2 7856   5.602   2.781   1.645 -0.6646 -0.6356  0.7856
 2631TIP3    H1 7857   5.681   2.824   1.613 -0.1758 -0.9520  1.5453
 2631TIP3    H2 7858   5.548   2.769   1.567 -1.0684  1.8198  0.6142
 2632TIP3   OH2 7859   6.863   6.502   3.337  0.4047 -0.1246 -0.3244
 2632TIP3    H1 7860   6.792   6.509   3.273  0.1166 -1.0144 -0.1045
 2632TIP3    H2 7861   6.834   6.554   3.412 -1.2131 -2.5178  0.8292
 2633TIP3   OH2 7862   5.766   0.762   3.142  0.0931 -0.2547  0.7430
 2633TIP3    H1 7863   5.704   0.767   3.070 -0.9072  1.1457  1.6552
 2633TIP3    H2 7864   5.825   0.837   3.128  0.3430 -0.4019  0.9874
 2634TIP3   OH2 7865   2.494   6.535   3.953  0.3055  0.1836 -0.7403
 2634TIP3    H1 7866   2.565   6.556   4.014  0.4272 -0.4202 -0.6726
 2634TIP3    H2 7867   2.532   6.474   3.890 -0.3498 -0.7839 -0.2324
 2635TIP3   OH2 7868   5.315   5.683   3.219  0.0381 -0.0853 -0.3182
 2635TIP3    H1 7869   5.226   5.648   3.219 -0.1700  0.0645 -3.9724
 2635TIP3    H2 7870   5.366   5.617   3.171  1.8303  0.1193  1.1956
 2636TIP3   OH2 7871   1.348   6.597   1.052 -0.4148 -0.2875  0.3265
 2636TIP3    H1 7872   1.292   6.601   0.975 -1.7139 -0.4879  1.2261
 2636TIP3    H2 7873   1.358   6.688   1.079 -0.8815 -0.2993  0.5504
 2637TIP3   OH2 7874   5.101   6.020   5.368 -0.5637  0.4261  0.1349
 2637TIP3    H1 7875   5.073   6.076   5.296 -0.5855 -0.4239 -0.5429
 2637TIP3    H2 7876   5.056   5.937   5.352  1.2044 -0.5120 -0.1646
 2638TIP3   OH2 7877   3.256   6.262   5.359 -0.2091  0.5201  0.0591
 2638TIP3    H1 7878   3.190   6.330   5.348  0.3103  1.1319  0.6754
 2638TIP3    H2 7879   3.246   6.234   5.451 -1.0545 -0.9126 -0.4369
 2639TIP3   OH2 7880   1.891   0.373   5.415 -0.3487 -0.1946 -0.0217
 2639TIP3    H1 7881   1.950   0.300   5.437  1.5068  1.4604  0.8792
 2639TIP3    H2 7882   1.894   0.429   5.493 -2.2314  0.5594 -0.4437
 2640TIP3   OH2 7883   5.722   6.596   4.218  0.2382 -0.1122  0.5291
 2640TIP3    H1 7884   5.666   6.519   4.217 -0.4295  0.3482 -1.1512
 2640TIP3    H2 7885   5.705   6.637   4.303 -0.7829 -0.8330  0.6889
 2641TIP3   OH2 7886   4.814   2.520   3.334 -0.3178 -0.3224  0.2752
 2641TIP3    H1 7887   4.773   2.590   3.385 -1.5512 -1.9836  1.6865
 2641TIP3    H2 7888   4.779   2.533   3.245 -2.0569 -0.2547  0.9256
 2642TIP3   OH2 7889   3.151   0.938   2.847  0.2475 -0.1461 -0.0589
 2642TIP3    H1 7890   3.241   0.969   2.839  0.4690 -0.3581  1.3661
 2642TIP3    H2 7891   3.113   0.992   2.916 -1.1577  0.8431 -1.5384
 2643TIP3   OH2 7892   3.382   3.916   0.838  0.5211  0.0689  0.0878
 2643TIP3    H1 7893   3.304   3.954   0.799  0.5609  1.0746  0.9259
 2643TIP3    H2 7894   3.454   3.972   0.810  0.3721  1.7437  2.6787
 2644TIP3   OH2 7895   4.075   6.170   2.912 -0.2683  0.0795  0.2026
 2644TIP3    H1 7896   4.153   6.208   2.954 -0.5618 -0.5596  1.3876
 2644TIP3    H2 7897   4.104   6.083   2.883 -0.4078  0.0257  0.2235
 2645TIP3   OH2 7898   3.254   1.116   5.353  0.3771 -0.5278 -0.2421
 2645TIP3    H1 7899   3.294   1.124   5.267 -0.3225  1.0835 -0.4526
 2645TIP3    H2 7900   3.302   1.178   5.408 -1.1661  0.7765 -0.2784
 2646TIP3   OH2 7901   4.518   2.985   0.285 -0.1695  0.3310 -0.3860
 2646TIP3    H1 7902   4.559   3.023   0.363 -0.1890 -2.5494  1.1473
 2646TIP3    H2 7903   4.588   2.986   0.219 -0.3712  3.5115 -0.7195
 2647TIP3   OH2 7904   7.193   4.159   5.004 -0.2242  0.2313 -0.1073
 2647TIP3    H1 7905   7.204   4.245   4.963  0.0430  0.5034  0.5179
 2647TIP3    H2 7906   7.186   4.098   4.931  0.3990  0.6884 -0.5554
 2648TIP3   OH2 7907   1.650   6.018   2.130 -0.1399  0.1515 -0.0530
 2648TIP3    H1 7908   1.653   6.113   2.129 -0.2033  0.1525 -0.5763
 2648TIP3    H2 7909   1.571   5.996   2.081 -0.5483 -0.1585  0.7321
 2649TIP3   OH2 7910   4.224   1.046   4.136 -0.2582  0.1310 -0.6720
 2649TIP3    H1 7911   4.132   1.056   4.160 -0.0416  0.6287 -0.0333
 2649TIP3    H2 7912   4.224   1.057   4.040 -0.7447  1.1199 -0.5782
 2650TIP3   OH2 7913   2.271   3.285   1.077  0.2816 -0.5926 -0.2145
 2650TIP3    H1 7914   2.354   3.289   1.124  0.4134 -1.0606 -0.3995
 2650TIP3    H2 7915   2.207   3.257   1.142 -0.3021  2.4073  0.6419
 2651TIP3   OH2 7916   6.051   2.233   1.228  0.0636  0.6496  0.6193
 2651TIP3    H1 7917   6.119   2.175   1.263 -0.2910  1.2598  2.4151
 2651TIP3    H2 7918   6.006   2.180   1.162  0.4639 -0.7225  1.4197
 2652TIP3   OH2 7919   5.249   0.692   5.233  0.2657  0.1923 -0.1875
 2652TIP3    H1 7920   5.265   0.702   5.327 -0.3611 -1.5011  0.1456
 2652TIP3    H2 7921   5.333   0.661   5.198  0.4156  0.5424 -0.1441
 2653TIP3   OH2 7922   1.133   6.400   0.455 -0.7374  0.0296 -0.8052
 2653TIP3    H1 7923   1.099   6.486   0.480  1.1903 -0.0355  2.6731
 2653TIP3    H2 7924   1.219   6.396   0.496 -0.4608 -3.3054 -1.4719
 2654TIP3   OH2 7925   5.738   2.429   0.822  0.3641 -0.3704  0.0500
 2654TIP3    H1 7926   5.773   2.518   0.827 -0.4217  0.0450 -1.3779
 2654TIP3    H2 7927   5.681   2.430   0.745 -0.4500 -1.8402  0.6016
 2655TIP3   OH2 7928   3.431   5.120   1.861  0.2110 -0.3351 -0.4242
 2655TIP3    H1 7929   3.367   5.183   1.892  0.5389 -0.1900 -0.0408
 2655TIP3    H2 7930   3.500   5.173   1.822  0.5422 -0.4463  0.0031
 2656TIP3   OH2 7931   2.400   5.214   3.891  0.2370  0.0147 -0.0436
 2656TIP3    H1 7932   2.322   5.225   3.836  0.5085  0.4393 -0.3452
 2656TIP3    H2 7933   2.431   5.126   3.870 -0.6211 -0.4818  0.6819
 2657TIP3   OH2 7934   1.970   2.252   3.992  0.3909 -0.2358  0.1466
 2657TIP3    H1 7935   1.876   2.256   3.977 -0.0079 -0.7260  2.1723
 2657TIP3    H2 7936   2.008   2.310   3.926 -1.2291 -0.7806 -1.3301
 2658TIP3   OH2 7937   4.072   3.098   0.032 -0.1339  0.2462 -0.1615
 2658TIP3    H1 7938   4.035   3.105   0.119  1.4508 -0.7081  0.6461
 2658TIP3    H2 7939   4.008   3.047  -0.018 -0.4863 -0.2725  0.8088
 2659TIP3   OH2 7940   1.798   4.494   4.750 -0.0527  0.2880  0.3003
 2659TIP3    H1 7941   1.710   4.515   4.782 -0.1539 -0.3526  0.4573
 2659TIP3    H2 7942   1.819   4.565   4.690 -0.7273  0.3897  0.1739
 2660TIP3   OH2 7943   5.451   5.336   5.274 -1.0199  0.1131  0.1546
 2660TIP3    H1 7944   5.401   5.403   5.227  0.1274  0.1955 -1.0215
 2660TIP3    H2 7945   5.540   5.343   5.238 -0.8142 -1.8693  0.1758
 2661TIP3   OH2 7946   3.652   4.962   1.998  0.7448  0.3972  0.5918
 2661TIP3    H1 7947   3.579   4.910   2.030  1.2668 -1.7428 -1.4405
 2661TIP3    H2 7948   3.717   4.959   2.069  0.3656 -0.9044  0.9038
 2662TIP3   OH2 7949   3.738   1.673   4.084 -0.3652 -0.5366  0.2708
 2662TIP3    H1 7950   3.723   1.651   4.175 -0.0572 -1.9091  0.0022
 2662TIP3    H2 7951   3.818   1.627   4.060  0.4395  1.0459 -0.2810
 2663TIP3   OH2 7952   4.689   0.455   5.340  0.3873 -0.2385  0.0694
 2663TIP3    H1 7953   4.675   0.420   5.252 -0.9363 -0.2990  0.2758
 2663TIP3    H2 7954   4.635   0.534   5.343 -0.3179 -0.7296  1.1016
 2664TIP3   OH2 7955   3.460   3.307   3.370  0.2599 -0.5046 -0.1104
 2664TIP3    H1 7956   3.496   3.237   3.315 -1.2619 -0.1191 -1.6880
 2664TIP3    H2 7957   3.536   3.345   3.413  1.7839  0.0805 -3.0655
 2665TIP3   OH2 7958   1.396   3.434   0.659 -0.4264  0.3233  0.7926
 2665TIP3    H1 7959   1.448   3.379   0.601 -1.5445 -0.2137  0.2644
 2665TIP3    H2 7960   1.447   3.441   0.739  0.4738 -0.1268  0.2629
 2666TIP3   OH2 7961   2.943   1.449   0.104  0.0456 -0.2196 -0.3094
 2666TIP3    H1 7962   3.022   1.471   0.152  0.6558 -2.0079 -0.3999
 2666TIP3    H2 7963   2.872   1.463   0.167  0.6229 -0.4207  0.4003
 2667TIP3   OH2 7964   5.734   4.883   3.116 -0.6257 -0.3051  0.1608
 2667TIP3    H1 7965   5.676   4.903   3.189  0.8830  0.9934  1.0516
 2667TIP3    H2 7966   5.800   4.824   3.153 -0.1787 -0.0869 -0.2723
 2668TIP3   OH2 7967   1.992   3.795   2.258  0.5136 -0.1351 -0.3995
 2668TIP3    H1 7968   2.076   3.774   2.299 -0.6920 -1.0538  1.7698
 2668TIP3    H2 7969   1.927   3.774   2.325 -1.5711 -0.9461 -2.5394
 2669TIP3   OH2 7970   3.731   5.109   4.134 -0.5430 -0.4717  0.1106
 2669TIP3    H1 7971   3.777   5.100   4.051  0.3254  0.9721  0.4141
 2669TIP3    H2 7972   3.667   5.037   4.133  1.5030 -2.3949 -0.4190
 2670TIP3   OH2 7973   5.109   5.959   3.398  0.1111  0.0796 -0.1366
 2670TIP3    H1 7974   5.079   5.889   3.340  0.1379 -0.0857  0.0481
 2670TIP3    H2 7975   5.093   5.925   3.487 -0.1886  0.4427 -0.0478
 2671TIP3   OH2 7976   2.856   2.299   3.504 -0.0111 -0.4062 -0.5480
 2671TIP3    H1 7977   2.871   2.316   3.597  1.5286  1.6340 -1.0934
 2671TIP3    H2 7978   2.944   2.290   3.468 -0.5983 -1.6179 -1.7759
 2672TIP3   OH2 7979   6.362   2.538   4.797  0.0456 -0.3536 -0.2348
 2672TIP3    H1 7980   6.444   2.578   4.769  0.2622 -1.0467 -0.6204
 2672TIP3    H2 7981   6.389   2.456   4.838 -0.4561 -0.5898 -0.3705
 2673TIP3   OH2 7982   0.056   5.201   5.258 -0.1780  0.1959 -0.1683
 2673TIP3    H1 7983   0.078   5.169   5.346  0.5041 -0.8534 -0.6985
 2673TIP3    H2 7984  -0.031   5.241   5.268  0.1503  0.6331  1.0967
 2674TIP3   OH2 7985   5.420   4.558   2.798 -0.6977 -0.0506 -0.0812
 2674TIP3    H1 7986   5.478   4.601   2.862 -0.2621 -0.2032 -0.3664
 2674TIP3    H2 7987   5.368   4.497   2.850 -2.9971  2.3953  0.7329
 2675TIP3   OH2 7988   6.743   1.343   5.704  0.1633 -0.1429  0.7692
 2675TIP3    H1 7989   6.663   1.302   5.736  1.1546 -1.1881  2.0019
 2675TIP3    H2 7990   6.745   1.321   5.611 -0.1539 -1.5305  1.0723
 2676TIP3   OH2 7991   1.170   4.117   1.296 -0.0768  0.4763  0.1401
 2676TIP3    H1 7992   1.193   4.026   1.276  1.9030  0.7213  1.0729
 2676TIP3    H2 7993   1.244   4.167   1.262  0.9165  1.3400  3.3213
 2677TIP3   OH2 7994   2.885   1.874   3.416  0.0010 -0.3889 -0.1555
 2677TIP3    H1 7995   2.852   1.930   3.345 -0.9173 -0.7416 -0.0193
 2677TIP3    H2 7996   2.865   1.785   3.387  1.8549 -0.7116 -0.5775
 2678TIP3   OH2 7997   6.340   5.056   0.506 -0.0583  0.3448 -0.5072
 2678TIP3    H1 7998   6.289   5.097   0.436  1.7864  0.0439 -2.1277
 2678TIP3    H2 7999   6.398   5.127   0.537  0.7584 -0.1213 -0.9397
 2679TIP3   OH2 8000   1.771   3.342   5.550  0.1130 -0.1209  0.1404
 2679TIP3    H1 8001   1.838   3.371   5.612 -1.3263  1.1300  1.2031
 2679TIP3    H2 8002   1.720   3.277   5.598 -0.8173  0.6240  0.1885
 2680TIP3   OH2 8003   2.356   3.625   5.388 -0.1189 -0.5831 -0.0632
 2680TIP3    H1 8004   2.450   3.622   5.373 -0.0348  0.2182  0.2336
 2680TIP3    H2 8005   2.346   3.618   5.483 -0.2262  1.1767  0.0916
 2681TIP3   OH2 8006   2.746   1.071   2.562  0.2109 -0.3144  0.1437
 2681TIP3    H1 8007   2.656   1.048   2.542  0.3475 -1.7571  1.0739
 2681TIP3    H2 8008   2.749   1.167   2.555 -1.7435 -0.1100  1.5184
 2682TIP3   OH2 8009   2.202   2.390   5.206 -0.3532 -0.2449  0.2742
 2682TIP3    H1 8010   2.247   2.473   5.189 -0.0714 -0.4297  0.1157
 2682TIP3    H2 8011   2.247   2.353   5.282 -1.1302  0.2231  0.9730
 2683TIP3   OH2 8012   5.746   1.899   3.208  0.0804  0.1072 -0.1363
 2683TIP3    H1 8013   5.789   1.897   3.123  1.4931 -0.5492  0.5506
 2683TIP3    H2 8014   5.750   1.808   3.239 -1.1934  0.1699  0.2758
 2684TIP3   OH2 8015   1.049   3.482   3.410 -0.4098 -0.4177  0.0149
 2684TIP3    H1 8016   1.000   3.419   3.461  1.9511 -3.3585 -1.0747
 2684TIP3    H2 8017   1.092   3.538   3.475 -1.8950 -0.3795  1.0147
 2685TIP3   OH2 8018   1.455   0.710   2.383  0.0345  0.4759  0.1141
 2685TIP3    H1 8019   1.377   0.670   2.421  0.2229 -0.5114 -0.4963
 2685TIP3    H2 8020   1.517   0.715   2.456 -1.0751  2.6978  0.9921
 2686TIP3   OH2 8021   2.394   0.793   2.616 -0.5109 -0.0850  0.4040
 2686TIP3    H1 8022   2.322   0.753   2.666 -0.0340 -0.8513  0.4905
 2686TIP3    H2 8023   2.444   0.718   2.583  1.2956  0.4199  1.8463
 2687TIP3   OH2 8024   5.596   4.008   3.251  0.0589 -0.3663 -0.3081
 2687TIP3    H1 8025   5.662   4.062   3.207 -0.9489  0.2199 -1.1495
 2687TIP3    H2 8026   5.567   3.947   3.183  0.3254 -1.1920  0.3027
 2688TIP3   OH2 8027   0.266   3.695   3.110  0.6444  0.5665 -0.4314
 2688TIP3    H1 8028   0.206   3.729   3.044 -2.0104 -0.2996  1.3659
 2688TIP3    H2 8029   0.217   3.700   3.192  2.7511 -0.9935  1.0501
 2689TIP3   OH2 8030   6.263   5.509   5.558  0.6804  0.1037  0.4731
 2689TIP3    H1 8031   6.171   5.534   5.568  0.1382  0.5794 -3.8010
 2689TIP3    H2 8032   6.312   5.578   5.601 -0.9463  0.8615  1.1835
 2690TIP3   OH2 8033   0.059   2.871   0.980 -0.3684  0.1393  0.2990
 2690TIP3    H1 8034   0.121   2.890   1.051 -0.3738  1.0675  0.0728
 2690TIP3    H2 8035   0.105   2.810   0.923 -0.3232 -0.5328  1.0410
 2691TIP3   OH2 8036   1.674   1.751   1.419 -0.1238  0.0631  0.2395
 2691TIP3    H1 8037   1.702   1.691   1.350 -0.5114  0.1875 -0.0286
 2691TIP3    H2 8038   1.628   1.821   1.372 -0.8011 -0.0888  0.6620
 2692TIP3   OH2 8039   3.375   0.342   0.674  0.0465 -0.1684 -1.0339
 2692TIP3    H1 8040   3.454   0.382   0.710 -0.0475  0.3524 -1.4014
 2692TIP3    H2 8041   3.308   0.356   0.741  0.7254 -2.4638  0.2598
 2693TIP3   OH2 8042   2.560   1.762   3.662  0.2850  0.6435  0.0826
 2693TIP3    H1 8043   2.590   1.757   3.753  0.0903  1.8004  0.2188
 2693TIP3    H2 8044   2.618   1.702   3.614 -1.0048 -1.6980  1.2984
 2694TIP3   OH2 8045   5.355   0.346   2.931 -0.0449 -0.3550  0.0040
 2694TIP3    H1 8046   5.426   0.408   2.914 -0.0586 -0.1470  0.6637
 2694TIP3    H2 8047   5.397   0.260   2.929  0.1717 -0.2532  0.0996
 2695TIP3   OH2 8048   1.203   4.195   2.167  0.2444  0.2382  0.7510
 2695TIP3    H1 8049   1.138   4.157   2.226  0.4886  0.6085  1.2692
 2695TIP3    H2 8050   1.211   4.286   2.195  2.0168 -0.1379  1.6684
 2696TIP3   OH2 8051   4.598   1.959   0.897 -0.0833 -0.3163 -0.4858
 2696TIP3    H1 8052   4.514   1.968   0.943  0.5288  0.2876  0.5679
 2696TIP3    H2 8053   4.664   1.971   0.966  0.8785  0.8375 -1.5700
 2697TIP3   OH2 8054   3.227   0.992   2.405  0.2074 -0.4833 -0.5878
 2697TIP3    H1 8055   3.172   1.033   2.472  0.0841 -1.0502 -0.3322
 2697TIP3    H2 8056   3.183   0.908   2.387 -0.0678 -0.0994 -1.7739
 2698TIP3   OH2 8057   3.314   3.673   5.108 -0.0673  0.3377  0.3431
 2698TIP3    H1 8058   3.390   3.619   5.126  1.2716  1.6381 -1.1507
 2698TIP3    H2 8059   3.346   3.763   5.114 -1.4745  0.9171 -0.3798
 2699TIP3   OH2 8060   1.457   5.858   3.668  0.6491 -0.0279 -0.2415
 2699TIP3    H1 8061   1.432   5.834   3.757  0.4869 -0.5666 -0.4307
 2699TIP3    H2 8062   1.543   5.898   3.678  0.8982 -0.6357  0.0858
 2700TIP3   OH2 8063   5.480   6.578   5.280 -0.3739 -0.0281 -0.0322
 2700TIP3    H1 8064   5.520   6.598   5.196 -1.9381 -0.6450 -0.9646
 2700TIP3    H2 8065   5.533   6.505   5.314  0.9857  0.9818  0.1016
 2701TIP3   OH2 8066   5.947   1.622   4.815  0.2263 -0.6801 -0.2814
 2701TIP3    H1 8067   5.864   1.602   4.771  1.5984 -0.1569 -3.4078
 2701TIP3    H2 8068   5.988   1.536   4.829 -0.6939 -0.9235  1.0542
 2702TIP3   OH2 8069   2.741   2.622   5.886 -0.2463  0.2275  0.4654
 2702TIP3    H1 8070   2.836   2.633   5.880 -0.0962 -0.2544  1.6821
 2702TIP3    H2 8071   2.706   2.711   5.877  0.3589  0.4835  0.5952
 2703TIP3   OH2 8072   3.378   2.838   1.856 -0.3766  0.2463  0.0485
 2703TIP3    H1 8073   3.317   2.883   1.915  1.0580  0.1651  1.6834
 2703TIP3    H2 8074   3.455   2.822   1.910  0.7567 -0.4474 -1.7020
 2704TIP3   OH2 8075   2.532   6.408   1.314 -0.0351 -0.3817  0.8838
 2704TIP3    H1 8076   2.616   6.362   1.308  1.0695  1.2167  2.8590
 2704TIP3    H2 8077   2.553   6.499   1.291 -1.3717 -0.0649  0.8416
 2705TIP3   OH2 8078   6.699   3.250   4.163  0.2394  0.2174  0.0167
 2705TIP3    H1 8079   6.706   3.221   4.254  1.7362  1.0805  0.2171
 2705TIP3    H2 8080   6.787   3.237   4.127  0.5510  2.7166 -0.3617
 2706TIP3   OH2 8081   3.740   5.721   0.423 -0.0370  0.1069 -0.3025
 2706TIP3    H1 8082   3.810   5.656   0.434  0.0093  0.3609  1.0040
 2706TIP3    H2 8083   3.706   5.735   0.511 -1.6022  0.1547 -0.8783
 2707TIP3   OH2 8084   2.428   6.459   2.153 -0.3402  0.3059 -0.0260
 2707TIP3    H1 8085   2.409   6.435   2.062  1.7438 -0.8651 -0.2212
 2707TIP3    H2 8086   2.364   6.410   2.204 -1.3364  0.7263 -0.8267
 2708TIP3   OH2 8087   2.688   1.967   2.595  0.0854  0.4255 -0.6055
 2708TIP3    H1 8088   2.600   1.970   2.560  0.0020 -0.1896 -0.4548
 2708TIP3    H2 8089   2.688   2.030   2.668  0.0655  1.1815 -1.2500
 2709TIP3   OH2 8090   6.828   2.144   0.342 -0.0847 -0.2646 -0.0564
 2709TIP3    H1 8091   6.815   2.063   0.393 -0.5121 -0.1827 -0.0268
 2709TIP3    H2 8092   6.758   2.202   0.372 -0.3687 -0.2276 -0.7594
 2710TIP3   OH2 8093   4.715   0.613   2.292  0.1496  0.0665 -0.2069
 2710TIP3    H1 8094   4.779   0.555   2.250 -0.2966  0.4771 -1.5023
 2710TIP3    H2 8095   4.708   0.580   2.381  1.9254 -0.1776 -0.1215
 2711TIP3   OH2 8096  -0.005   0.296   4.673 -0.2617 -0.3725  0.3693
 2711TIP3    H1 8097   0.061   0.237   4.636  0.3967  1.1569 -1.0396
 2711TIP3    H2 8098   0.028   0.384   4.653 -1.8824  0.4646  1.1810
 2712TIP3   OH2 8099   4.459   3.512   2.430 -0.5213 -0.2549 -0.2263
 2712TIP3    H1 8100   4.526   3.453   2.465 -1.7238 -1.2167  0.5577
 2712TIP3    H2 8101   4.445   3.482   2.340  0.4880  0.3178 -0.5835
 2713TIP3   OH2 8102   5.943   2.903   0.700  0.2422  0.0812  0.4305
 2713TIP3    H1 8103   6.002   2.896   0.625  2.8831  0.2397  2.3428
 2713TIP3    H2 8104   5.988   2.963   0.760 -3.6367  3.3309  0.5537
 2714TIP3   OH2 8105   0.650   2.825   3.802  0.3491 -0.2684  0.2760
 2714TIP3    H1 8106   0.624   2.733   3.803 -0.2424 -0.1027  0.6072
 2714TIP3    H2 8107   0.595   2.865   3.735 -0.5780  0.1624  1.2524
 2715TIP3   OH2 8108   2.302   4.200   0.398 -0.0116 -0.4566 -0.3473
 2715TIP3    H1 8109   2.381   4.151   0.376 -0.1613 -2.2888  2.6330
 2715TIP3    H2 8110   2.333   4.284   0.429  0.6085 -0.4672 -0.9100
 2716TIP3   OH2 8111   2.118   1.312   2.814 -0.0829 -0.3714  0.1645
 2716TIP3    H1 8112   2.135   1.226   2.853 -1.7452 -0.7348  0.1708
 2716TIP3    H2 8113   2.093   1.367   2.888  0.7073  0.0616  0.1215
 2717TIP3   OH2 8114   4.904   1.825   0.759  0.7336  0.3778  0.0974
 2717TIP3    H1 8115   4.810   1.808   0.756  0.6418  0.9723 -0.9811
 2717TIP3    H2 8116   4.912   1.920   0.744  1.5384  0.1966 -0.6782
 2718TIP3   OH2 8117   5.748   5.400   5.438 -0.2276 -0.1122  0.2896
 2718TIP3    H1 8118   5.814   5.364   5.379 -0.5442 -2.3810  1.2040
 2718TIP3    H2 8119   5.713   5.477   5.392  1.2423 -0.3621 -1.3275
 2719TIP3   OH2 8120   3.806   3.146   3.463 -0.5383 -0.7183  0.5728
 2719TIP3    H1 8121   3.861   3.140   3.385  0.6788  0.5330  1.2963
 2719TIP3    H2 8122   3.818   3.062   3.507 -0.2457 -0.9536  0.0591
 2720TIP3   OH2 8123   6.402   3.840   4.937  0.4362 -0.2247  0.1738
 2720TIP3    H1 8124   6.482   3.818   4.890  1.3848  2.9506  0.1050
 2720TIP3    H2 8125   6.418   3.811   5.027  1.6831  0.3153  0.1500
 2721TIP3   OH2 8126   6.008   3.566   0.099  0.0283 -0.0740 -0.4148
 2721TIP3    H1 8127   6.016   3.537   0.009  1.5072 -0.5752 -0.1437
 2721TIP3    H2 8128   6.019   3.487   0.152 -1.1608  0.1544  0.2152
 2722TIP3   OH2 8129   4.115   1.332   3.613  1.1681 -0.2635  0.1329
 2722TIP3    H1 8130   4.106   1.391   3.688 -0.1326  2.6309 -2.1492
 2722TIP3    H2 8131   4.041   1.272   3.621 -0.4371  1.5941 -0.0876
 2723TIP3   OH2 8132   3.167   4.996   3.049 -0.0136  0.2038 -0.1610
 2723TIP3    H1 8133   3.116   4.989   2.968 -0.8139  1.5530  0.2040
 2723TIP3    H2 8134   3.141   4.919   3.100 -2.1478  1.1042  0.2314
 2724TIP3   OH2 8135   1.505   6.220   0.091  0.6252  0.4709 -0.1107
 2724TIP3    H1 8136   1.516   6.179   0.005 -1.5484 -1.8885  0.6052
 2724TIP3    H2 8137   1.436   6.285   0.077  1.1436  0.9630 -0.3960
 2725TIP3   OH2 8138   0.455   5.627   2.395  0.4103  0.2233 -0.1118
 2725TIP3    H1 8139   0.425   5.537   2.381 -3.1052  1.4817 -1.9230
 2725TIP3    H2 8140   0.397   5.661   2.463 -0.3505  1.9391 -1.5571
 2726TIP3   OH2 8141   2.826   1.409   1.745 -0.1843 -0.3338 -0.3539
 2726TIP3    H1 8142   2.878   1.338   1.706 -0.5792 -0.1777 -1.1991
 2726TIP3    H2 8143   2.890   1.464   1.789  0.7763  1.1425 -3.3189
 2727TIP3   OH2 8144   6.874   3.607   2.521 -0.7815 -0.0855 -0.0203
 2727TIP3    H1 8145   6.832   3.586   2.438 -0.4949  2.0799 -0.7492
 2727TIP3    H2 8146   6.801   3.627   2.580 -0.9095 -0.0141 -0.2037
 2728TIP3   OH2 8147   4.013   6.590   2.614  0.0054 -1.0760  0.9360
 2728TIP3    H1 8148   4.081   6.637   2.663 -0.4537 -0.3178  0.8689
 2728TIP3    H2 8149   4.055   6.509   2.587  1.3145 -0.0703 -0.2120
 2729TIP3   OH2 8150   3.640   4.678   3.641  0.2401  0.1964  0.0936
 2729TIP3    H1 8151   3.698   4.728   3.585  0.9798 -0.3381  0.3704
 2729TIP3    H2 8152   3.555   4.721   3.632  0.3331  0.1288 -1.4280
 2730TIP3   OH2 8153   5.982   1.878   0.139 -0.2103  0.1737  0.4656
 2730TIP3    H1 8154   5.891   1.906   0.130  0.1892  1.0179 -1.3728
 2730TIP3    H2 8155   5.992   1.807   0.076  0.8052  1.1936 -0.5610
 2731TIP3   OH2 8156   6.730   3.157   3.067  0.7589 -0.2817  0.2573
 2731TIP3    H1 8157   6.689   3.192   3.146 -0.2614 -1.2861  0.1964
 2731TIP3    H2 8158   6.815   3.201   3.063 -0.2839  1.8622  0.3899
 2732TIP3   OH2 8159   5.846   3.260   2.466  0.7738 -0.3581  0.4397
 2732TIP3    H1 8160   5.819   3.274   2.557  0.4170  1.0482  0.1457
 2732TIP3    H2 8161   5.941   3.246   2.471  0.7466 -0.3556  1.0350
 2733TIP3   OH2 8162   0.344   4.342   2.771 -0.3556  0.4332 -0.0125
 2733TIP3    H1 8163   0.264   4.335   2.719 -0.6579 -1.1388  0.6073
 2733TIP3    H2 8164   0.414   4.343   2.707 -0.8432  1.6863 -0.5617
 2734TIP3   OH2 8165   3.472   3.039   4.896 -0.2244  0.4371  0.2203
 2734TIP3    H1 8166   3.547   3.079   4.851  0.1670  3.0486  2.8974
 2734TIP3    H2 8167   3.498   2.948   4.910  1.3967  0.6656 -1.0057
 2735TIP3   OH2 8168   4.869   5.961   5.148 -0.2837  0.0595  0.4562
 2735TIP3    H1 8169   4.839   5.975   5.058 -1.4926  0.6183  0.9275
 2735TIP3    H2 8170   4.827   5.878   5.174 -1.3568  0.7729  1.0707
 2736TIP3   OH2 8171   7.115   5.762   0.058  0.0678  0.3438 -0.1620
 2736TIP3    H1 8172   7.060   5.821   0.109 -0.8674  0.9907 -1.8409
 2736TIP3    H2 8173   7.204   5.795   0.070 -0.3311  1.5125 -0.3013
 2737TIP3   OH2 8174   1.162   5.172   4.960 -0.1275  0.1173 -0.0943
 2737TIP3    H1 8175   1.206   5.212   4.885  1.8165 -1.8544 -0.1221
 2737TIP3    H2 8176   1.071   5.198   4.952  0.4855  1.9766 -1.7396
 2738TIP3   OH2 8177   1.178   1.231   0.153 -0.1109 -0.2460  0.1459
 2738TIP3    H1 8178   1.099   1.282   0.135  0.3289  0.9412  1.3764
 2738TIP3    H2 8179   1.226   1.231   0.070 -0.7168  0.2885 -0.2156
 2739TIP3   OH2 8180   6.156   5.854   5.665  0.2633  0.6323  0.0773
 2739TIP3    H1 8181   6.165   5.847   5.569 -1.2628  1.0280 -0.1073
 2739TIP3    H2 8182   6.127   5.944   5.680  0.2446  0.4934  0.8972
 2740TIP3   OH2 8183   5.241   5.609   1.865 -0.0149 -0.5843 -0.2835
 2740TIP3    H1 8184   5.316   5.554   1.888 -2.3047 -3.1235  1.8919
 2740TIP3    H2 8185   5.206   5.569   1.785 -0.6209 -1.2265  0.2836
 2741TIP3   OH2 8186   5.072   6.484   5.370  0.3607 -0.1894  0.2570
 2741TIP3    H1 8187   5.118   6.502   5.288 -1.5027 -2.6783 -1.5315
 2741TIP3    H2 8188   5.045   6.392   5.362 -0.6575 -0.2742  3.3259
 2742TIP3   OH2 8189   5.394   6.343   0.142 -0.3825 -0.1677  0.2071
 2742TIP3    H1 8190   5.423   6.332   0.052 -1.1505  0.4258 -0.1276
 2742TIP3    H2 8191   5.393   6.438   0.156  0.8807 -0.2907  1.2388
 2743TIP3   OH2 8192   4.987   4.430   4.847 -0.2322 -0.1666  0.5850
 2743TIP3    H1 8193   5.017   4.476   4.926 -0.1340  0.2982  0.2812
 2743TIP3    H2 8194   4.893   4.449   4.843  0.0070  0.9467 -0.1464
 2744TIP3   OH2 8195   0.651   4.903   0.275 -0.5247 -0.5055  0.0643
 2744TIP3    H1 8196   0.691   4.961   0.210 -0.5429 -1.1722 -0.5564
 2744TIP3    H2 8197   0.642   4.819   0.230  0.2795 -1.2398  1.2161
 2745TIP3   OH2 8198   3.603   2.757   3.435 -0.3368  0.1404 -0.3495
 2745TIP3    H1 8199   3.553   2.831   3.470  0.2751  0.0371  0.8284
 2745TIP3    H2 8200   3.660   2.731   3.508  1.3373  0.1811 -1.5836
 2746TIP3   OH2 8201   4.593   2.177   4.655 -0.7471 -0.2566  0.1042
 2746TIP3    H1 8202   4.542   2.131   4.721 -0.6889  1.0653  1.1174
 2746TIP3    H2 8203   4.596   2.117   4.581 -1.3596 -1.5195  1.0597
 2747TIP3   OH2 8204   4.730   5.008   1.920  0.6547  0.3233 -0.6867
 2747TIP3    H1 8205   4.776   5.024   2.002  1.2002 -0.8121 -0.7419
 2747TIP3    H2 8206   4.651   5.061   1.926  1.1075  0.9311  0.1885
 2748TIP3   OH2 8207   4.199   2.679   3.942 -0.0908 -0.6033  0.5123
 2748TIP3    H1 8208   4.252   2.626   4.002  1.6794  0.6093  0.0879
 2748TIP3    H2 8209   4.261   2.712   3.877 -1.2882  1.1754  0.1904
 2749TIP3   OH2 8210   2.880   6.624   0.451  0.2226 -0.4460  0.4963
 2749TIP3    H1 8211   2.830   6.661   0.524  0.8461  2.0062 -0.2260
 2749TIP3    H2 8212   2.826   6.640   0.374  0.7014 -0.7229  0.0962
 2750TIP3   OH2 8213   6.185   0.773   0.022  0.1296  0.3123  0.3548
 2750TIP3    H1 8214   6.095   0.789  -0.008  0.3922 -0.2837 -0.8207
 2750TIP3    H2 8215   6.178   0.698   0.082 -0.0137 -0.5837 -0.7478
 2751TIP3   OH2 8216   3.129   4.219   5.859 -0.4723  0.1962 -0.1519
 2751TIP3    H1 8217   3.041   4.223   5.896 -0.6211  0.5910 -0.5414
 2751TIP3    H2 8218   3.151   4.126   5.858 -1.9969 -0.2330 -2.6225
 2752TIP3   OH2 8219   4.338   0.693   3.484 -0.2581 -0.3384  0.1210
 2752TIP3    H1 8220   4.382   0.662   3.563  1.9193 -1.5501 -1.4730
 2752TIP3    H2 8221   4.264   0.634   3.473  0.4122 -1.2403  0.3472
 2753TIP3   OH2 8222   4.201   0.015   0.452 -0.2349  0.4600  0.1582
 2753TIP3    H1 8223   4.220   0.059   0.369 -0.5592 -0.0262 -0.1795
 2753TIP3    H2 8224   4.126  -0.042   0.433  0.7753 -0.9961  0.3100
 2754TIP3   OH2 8225   4.894   4.400   0.618  0.5061  0.3798 -0.1720
 2754TIP3    H1 8226   4.854   4.381   0.703  0.2300 -1.1501 -0.6086
 2754TIP3    H2 8227   4.947   4.322   0.598 -0.0895  0.3353 -1.7579
 2755TIP3   OH2 8228   3.735   4.370   3.099  0.2957  0.4106  0.3481
 2755TIP3    H1 8229   3.771   4.325   3.176  0.6757 -0.7419 -0.4757
 2755TIP3    H2 8230   3.640   4.362   3.109  0.3033  1.1744  1.2029
 2756TIP3   OH2 8231   5.295   6.165   4.456  0.1332  0.1393  0.7320
 2756TIP3    H1 8232   5.357   6.238   4.461 -0.2330  0.5125 -0.1252
 2756TIP3    H2 8233   5.303   6.133   4.366 -0.5089 -0.1781  0.7853
 2757TIP3   OH2 8234   4.573   6.169   0.405  0.7441  0.2892  0.3830
 2757TIP3    H1 8235   4.603   6.259   0.416 -0.5045  0.5998  1.4998
 2757TIP3    H2 8236   4.591   6.149   0.313 -0.0707  2.1131 -0.2258
 2758TIP3   OH2 8237   4.617   6.520   4.720 -0.5157 -0.1410  0.1638
 2758TIP3    H1 8238   4.575   6.466   4.653 -0.3359  0.4909 -0.4716
 2758TIP3    H2 8239   4.704   6.482   4.729 -0.8002 -0.7042  0.6071
 2759TIP3   OH2 8240   2.199   6.658   1.145  0.2811 -0.2060 -0.1499
 2759TIP3    H1 8241   2.155   6.610   1.215  2.2261  0.4807  1.6614
 2759TIP3    H2 8242   2.160   6.745   1.147  1.0589  0.1430  0.8751
 2760TIP3   OH2 8243   2.981   6.127   2.603 -0.3405 -0.2569 -0.3504
 2760TIP3    H1 8244   2.976   6.142   2.698  0.0957  0.9537 -0.5072
 2760TIP3    H2 8245   3.015   6.038   2.595  0.1612 -0.1662  0.6348
 2761TIP3   OH2 8246   4.932   3.832   5.786  0.4738 -0.2241 -0.2165
 2761TIP3    H1 8247   5.013   3.883   5.782  0.5396 -0.3912 -1.4312
 2761TIP3    H2 8248   4.865   3.895   5.813  0.8042  0.1710 -0.3072
 2762TIP3   OH2 8249   4.071   2.766   1.651 -0.0722  0.8729  0.1851
 2762TIP3    H1 8250   4.158   2.775   1.689 -0.8171  0.3127  2.1661
 2762TIP3    H2 8251   4.085   2.774   1.557  2.0202  1.4032  0.4876
 2763TIP3   OH2 8252   1.588   3.949   2.094 -0.1039  0.1194 -0.6575
 2763TIP3    H1 8253   1.523   4.020   2.091  1.5006  1.8682  1.6551
 2763TIP3    H2 8254   1.638   3.967   2.174 -0.0535 -4.1028  0.4657
 2764TIP3   OH2 8255   6.433   6.032   5.790 -0.1198  0.0106 -0.0916
 2764TIP3    H1 8256   6.371   5.983   5.736  0.3601  1.7511 -2.3626
 2764TIP3    H2 8257   6.518   5.992   5.769 -0.1149 -0.4631  0.7850
 2765TIP3   OH2 8258   3.128   3.672   2.078 -0.5738 -0.2544 -0.1162
 2765TIP3    H1 8259   3.189   3.680   2.004 -0.3723 -1.9461 -0.1663
 2765TIP3    H2 8260   3.141   3.583   2.110 -0.4586  0.5324  2.1599
 2766TIP3   OH2 8261   6.185   6.774   5.655 -0.0226  0.0065 -0.0168
 2766TIP3    H1 8262   6.115   6.839   5.651 -0.2257 -0.1650  0.6840
 2766TIP3    H2 8263   6.141   6.691   5.672  0.2443 -0.3141 -0.8096
 2767TIP3   OH2 8264   2.184   3.028   3.375 -0.2868  0.1728 -0.2585
 2767TIP3    H1 8265   2.184   3.082   3.455  0.5359 -2.7372  1.8451
 2767TIP3    H2 8266   2.275   3.003   3.362 -0.8220 -2.0585 -0.1316
 2768TIP3   OH2 8267   0.465   6.495   0.548 -0.0042 -0.6840  0.1889
 2768TIP3    H1 8268   0.523   6.567   0.522  0.2612 -0.4175  1.4398
 2768TIP3    H2 8269   0.467   6.434   0.474  1.7695 -0.6034  0.1328
 2769TIP3   OH2 8270   3.811   0.257   4.893  0.3333  0.0359 -0.0840
 2769TIP3    H1 8271   3.831   0.339   4.938  0.8599 -0.0887 -0.0862
 2769TIP3    H2 8272   3.886   0.242   4.835  0.9419 -1.1711  0.9590
 2770TIP3   OH2 8273   2.603   5.783   3.691 -0.4405  0.6458 -0.1694
 2770TIP3    H1 8274   2.653   5.731   3.754 -0.4641 -0.4408 -1.0225
 2770TIP3    H2 8275   2.621   5.874   3.715  0.5266  0.2567  0.6331
 2771TIP3   OH2 8276   5.553   3.443   3.348  0.2647 -0.1101  0.5638
 2771TIP3    H1 8277   5.558   3.430   3.254  0.7967 -0.3279  0.6153
 2771TIP3    H2 8278   5.642   3.426   3.379  0.1585  0.2334  1.0703
 2772TIP3   OH2 8279   4.907   5.696   3.945  0.4915 -0.0114 -0.0992
 2772TIP3    H1 8280   4.988   5.746   3.938  0.1139  0.5057 -1.0578
 2772TIP3    H2 8281   4.929   5.620   3.999  1.6051  0.1205 -0.3496
 2773TIP3   OH2 8282   5.581   3.420  -0.029 -0.6336 -0.5232  1.0073
 2773TIP3    H1 8283   5.631   3.501  -0.024  2.4954 -2.2033 -0.4024
 2773TIP3    H2 8284   5.584   3.384   0.059 -1.5550  0.5776  1.5075
 2774TIP3   OH2 8285   1.505   3.689   0.351  0.3328 -0.1095  0.1945
 2774TIP3    H1 8286   1.564   3.665   0.279  0.0322 -0.7548  0.1607
 2774TIP3    H2 8287   1.549   3.762   0.394  0.5558  0.2361 -0.5996
 2775TIP3   OH2 8288   0.139   6.387   4.410  0.6427 -0.7070 -0.4775
 2775TIP3    H1 8289   0.053   6.414   4.441  0.5720 -0.2759 -1.0318
 2775TIP3    H2 8290   0.182   6.468   4.383  1.3260 -0.8862  0.0295
 2776TIP3   OH2 8291   6.666   4.848   1.137 -0.1407  0.1575 -0.2462
 2776TIP3    H1 8292   6.651   4.912   1.207  2.3602 -2.2434  2.7934
 2776TIP3    H2 8293   6.602   4.872   1.069 -0.8521  4.4031  1.5545
 2777TIP3   OH2 8294   0.967   3.432   3.896 -0.8054 -0.3139  0.1205
 2777TIP3    H1 8295   0.974   3.527   3.909 -2.1761 -0.3660  1.4570
 2777TIP3    H2 8296   1.051   3.397   3.924 -0.1633  0.5117 -0.6969
 2778TIP3   OH2 8297   7.159   6.742   4.474 -0.3138 -0.1709 -0.0758
 2778TIP3    H1 8298   7.095   6.812   4.463  1.0685  1.1477 -0.0729
 2778TIP3    H2 8299   7.228   6.781   4.528  0.7744 -1.3513 -0.5544
 2779TIP3   OH2 8300   5.058   3.200   4.926 -0.5103 -0.0874  0.4729
 2779TIP3    H1 8301   5.092   3.117   4.959  0.6557  0.0905 -0.2253
 2779TIP3    H2 8302   5.110   3.266   4.971 -0.4499  0.2152 -0.0396
 2780TIP3   OH2 8303   4.018   2.126   0.545  0.6341 -0.3069  0.2350
 2780TIP3    H1 8304   4.066   2.176   0.479  0.8887  1.2772  1.5496
 2780TIP3    H2 8305   4.066   2.044   0.552  1.6755  0.2330 -0.2700
 2781TIP3   OH2 8306   3.690   0.092   2.074 -0.0283  0.2060 -0.0154
 2781TIP3    H1 8307   3.687   0.184   2.102 -0.3999  0.7016 -1.6217
 2781TIP3    H2 8308   3.783   0.069   2.080  0.1709  0.9073 -0.3126
 2782TIP3   OH2 8309   3.414   5.902   2.662 -0.0319 -0.2608 -0.0207
 2782TIP3    H1 8310   3.457   5.986   2.680  0.8147  0.0627 -3.0195
 2782TIP3    H2 8311   3.471   5.859   2.599 -0.6087 -3.0191  1.2045
 2783TIP3   OH2 8312   6.083   1.103   4.705  0.1174  0.3980 -0.0751
 2783TIP3    H1 8313   6.000   1.145   4.683 -0.9113 -0.1395  2.4420
 2783TIP3    H2 8314   6.077   1.086   4.799  2.1498 -1.7255 -0.2452
 2784TIP3   OH2 8315   1.395   0.990   2.549 -0.2773  0.2981 -0.5121
 2784TIP3    H1 8316   1.444   0.949   2.620  1.7656 -0.0443 -2.0591
 2784TIP3    H2 8317   1.360   1.071   2.588 -1.3829 -1.0746  1.5560
 2785TIP3   OH2 8318   0.952   2.804   5.341 -0.1275  0.0021 -0.0399
 2785TIP3    H1 8319   0.951   2.767   5.253 -1.7652  0.8147 -0.4050
 2785TIP3    H2 8320   0.934   2.729   5.398 -0.7411 -0.2553 -0.5514
 2786TIP3   OH2 8321   1.493   2.424   0.768  0.7524 -0.5272 -0.5445
 2786TIP3    H1 8322   1.450   2.479   0.703 -1.0146  0.8282  1.6004
 2786TIP3    H2 8323   1.586   2.447   0.762  0.1927  2.0770 -0.3454
 2787TIP3   OH2 8324   1.426   6.661   3.853  0.6681  0.4777 -0.5165
 2787TIP3    H1 8325   1.519   6.682   3.862  1.1767 -1.7403 -0.0566
 2787TIP3    H2 8326   1.406   6.604   3.927 -1.4298  1.9023  0.1226
 2788TIP3   OH2 8327   3.209   1.807   0.507 -0.1116  0.0733  0.1788
 2788TIP3    H1 8328   3.258   1.889   0.498 -1.4777  0.8636 -0.2629
 2788TIP3    H2 8329   3.156   1.802   0.427 -0.1467 -1.1848  0.2647
 2789TIP3   OH2 8330   5.173   6.295   2.020 -0.2320  0.3538  0.3072
 2789TIP3    H1 8331   5.231   6.272   2.092  1.0650 -1.4808 -1.2020
 2789TIP3    H2 8332   5.179   6.390   2.012  2.6637  0.2360  0.1875
 2790TIP3   OH2 8333   6.318   5.776   2.309  0.2925  0.1501 -0.2349
 2790TIP3    H1 8334   6.336   5.756   2.401  0.6262 -0.3459 -0.4048
 2790TIP3    H2 8335   6.277   5.863   2.311  3.5569  1.8373  0.0865
 2791TIP3   OH2 8336   7.001   6.510   1.924  0.2163  0.7479  0.2901
 2791TIP3    H1 8337   6.963   6.459   1.995  1.8280 -0.9201  0.0405
 2791TIP3    H2 8338   6.935   6.509   1.854 -0.5529  0.6942  1.0075
 2792TIP3   OH2 8339   3.432   1.524   2.069  0.0394  0.3495 -0.0373
 2792TIP3    H1 8340   3.466   1.522   1.979  0.0023  0.1827 -0.0477
 2792TIP3    H2 8341   3.341   1.498   2.060  0.0261  0.3690  0.0456
 2793TIP3   OH2 8342   6.456   1.958   4.576 -0.1114 -0.1282 -0.1138
 2793TIP3    H1 8343   6.399   1.881   4.579 -0.6046  0.1792 -1.0617
 2793TIP3    H2 8344   6.406   2.023   4.526  0.1004  0.9769  1.0479
 2794TIP3   OH2 8345   6.879   3.197   1.446  0.9125  0.1460 -0.1698
 2794TIP3    H1 8346   6.873   3.286   1.410  0.0018 -0.0862 -0.6241
 2794TIP3    H2 8347   6.799   3.154   1.416  0.6343 -0.3836  1.2810
 2795TIP3   OH2 8348   3.838   1.804   2.954 -0.0913 -0.0604 -0.3132
 2795TIP3    H1 8349   3.870   1.814   3.043 -0.3636  1.0712 -0.3370
 2795TIP3    H2 8350   3.761   1.860   2.949  0.1355  0.1816 -1.3728
 2796TIP3   OH2 8351   2.508   4.825   2.273  0.1067 -0.8363 -0.1725
 2796TIP3    H1 8352   2.530   4.826   2.366 -0.8043 -1.5101  0.0587
 2796TIP3    H2 8353   2.479   4.914   2.254  0.3755 -0.6766  0.1663
 2797TIP3   OH2 8354   4.713   4.229   3.326 -0.0146  0.2314  0.0659
 2797TIP3    H1 8355   4.766   4.208   3.249  0.1147 -0.0796  0.2400
 2797TIP3    H2 8356   4.761   4.192   3.400  0.4528  1.5099  0.4419
 2798TIP3   OH2 8357   0.804   6.417   4.458  0.3259  0.3873  0.8680
 2798TIP3    H1 8358   0.756   6.374   4.529  0.7226 -0.6971  0.4875
 2798TIP3    H2 8359   0.759   6.501   4.447 -0.2366  0.2345  1.8626
 2799TIP3   OH2 8360   5.004   6.782   1.456  0.0859  0.0694 -0.1775
 2799TIP3    H1 8361   5.097   6.781   1.477 -0.4274  0.4074  2.4166
 2799TIP3    H2 8362   4.973   6.694   1.478 -0.7721  0.8919  2.1817
 2800TIP3   OH2 8363   6.193   1.795   2.583  0.0741 -1.0913 -0.1933
 2800TIP3    H1 8364   6.172   1.724   2.644 -0.4232  0.5262  1.6103
 2800TIP3    H2 8365   6.279   1.825   2.611 -0.7356  0.5569  0.6522
 2801TIP3   OH2 8366   0.733   2.583   1.961  0.7460  0.4727  0.0716
 2801TIP3    H1 8367   0.758   2.675   1.967 -0.6685  0.9647 -1.2271
 2801TIP3    H2 8368   0.797   2.545   1.900 -0.0438  1.1353 -1.2007
 2802TIP3   OH2 8369   2.071   3.660   5.434  0.5661 -0.4049  0.0139
 2802TIP3    H1 8370   2.123   3.735   5.403  1.0585 -1.0611 -0.7829
 2802TIP3    H2 8371   2.101   3.647   5.524  0.4740  0.3514  0.1664
 2803TIP3   OH2 8372   4.699   4.025  -0.008  0.0528 -0.9341 -0.1433
 2803TIP3    H1 8373   4.645   3.988   0.062 -0.9309 -0.6206 -0.7214
 2803TIP3    H2 8374   4.736   3.949  -0.053 -0.0867 -1.1546  0.1111
 2804TIP3   OH2 8375   6.712   4.050   2.990 -0.6184  0.2639  0.0484
 2804TIP3    H1 8376   6.719   4.086   3.079 -0.6857  0.2130  0.0740
 2804TIP3    H2 8377   6.665   3.968   3.001 -0.1418 -0.0160  0.0374
 2805TIP3   OH2 8378   6.638   1.099   2.230  0.0597 -0.5188 -0.6547
 2805TIP3    H1 8379   6.665   1.068   2.144  2.1321 -1.4200  0.2525
 2805TIP3    H2 8380   6.545   1.076   2.236  0.3159 -2.0538 -1.9628
 2806TIP3   OH2 8381   7.164   5.228   2.081 -0.5675 -0.0064 -0.5762
 2806TIP3    H1 8382   7.175   5.319   2.108 -0.0345 -0.5395  1.1579
 2806TIP3    H2 8383   7.170   5.178   2.163 -1.8249 -1.5285 -1.3615
 2807TIP3   OH2 8384   6.769   3.322   5.375 -0.5217 -0.7355 -0.3227
 2807TIP3    H1 8385   6.736   3.287   5.292  1.2098 -2.8402 -0.2074
 2807TIP3    H2 8386   6.807   3.247   5.420  1.4769  0.9202  0.9387
 2808TIP3   OH2 8387   5.315   4.533   3.322 -0.0952 -1.0031  0.3394
 2808TIP3    H1 8388   5.266   4.576   3.251  0.7517 -0.1621  0.2391
 2808TIP3    H2 8389   5.345   4.606   3.376  2.2297 -1.3729 -0.3787
 2809TIP3   OH2 8390   3.237   2.545   3.493 -0.3032  0.2883 -0.6644
 2809TIP3    H1 8391   3.225   2.498   3.575 -0.7487  0.9770 -0.3252
 2809TIP3    H2 8392   3.148   2.564   3.462 -0.1333  0.9683 -0.7505
 2810TIP3   OH2 8393   4.923   0.997   0.498 -0.0449 -0.4640 -0.6419
 2810TIP3    H1 8394   4.843   0.999   0.552  0.2140  2.2757 -0.2234
 2810TIP3    H2 8395   4.893   1.021   0.410  0.1171 -0.9851 -0.8443
 2811TIP3   OH2 8396   1.525   3.000   0.407  0.3430  0.1904  0.3710
 2811TIP3    H1 8397   1.450   2.987   0.348 -1.0730 -1.4054  2.3846
 2811TIP3    H2 8398   1.571   2.916   0.405  1.3355  0.7301  0.1757
 2812TIP3   OH2 8399   0.525   6.017   5.020  0.0058  0.2478 -0.0037
 2812TIP3    H1 8400   0.462   6.012   4.948 -0.6015 -0.4060  0.5579
 2812TIP3    H2 8401   0.567   6.102   5.009 -0.0063  0.1274 -1.1780
 2813TIP3   OH2 8402   2.348   3.701   1.802 -0.5836 -0.0714  0.5220
 2813TIP3    H1 8403   2.419   3.645   1.771 -1.5165 -1.1424  0.2739
 2813TIP3    H2 8404   2.286   3.641   1.843 -0.8002  0.9763  1.8148
 2814TIP3   OH2 8405   4.592   2.883   3.193 -0.0583  0.5347  0.5251
 2814TIP3    H1 8406   4.539   2.804   3.195 -3.3344  2.4682 -1.6462
 2814TIP3    H2 8407   4.635   2.882   3.107 -0.1475  1.1310  0.4676
 2815TIP3   OH2 8408   1.517   0.527   0.555 -0.3657 -0.1313 -0.7284
 2815TIP3    H1 8409   1.458   0.511   0.482 -0.8030 -0.5917 -0.2808
 2815TIP3    H2 8410   1.465   0.575   0.619 -0.3520 -0.7744 -0.2167
 2816TIP3   OH2 8411   2.122   5.330   0.877  0.5237 -0.1407  0.3263
 2816TIP3    H1 8412   2.180   5.259   0.849 -1.1547 -1.2279 -0.5627
 2816TIP3    H2 8413   2.082   5.297   0.958  1.2095  0.6511  1.0024
 2817TIP3   OH2 8414   4.059   0.633   1.213  0.3951  0.1068 -0.8490
 2817TIP3    H1 8415   4.029   0.601   1.299  0.5740 -0.1694 -0.8878
 2817TIP3    H2 8416   4.109   0.711   1.232  0.3151  0.1257 -0.7132
 2818TIP3   OH2 8417   4.140   2.339   2.832 -0.0788  0.0524 -0.5192
 2818TIP3    H1 8418   4.117   2.384   2.913  2.3119 -0.7925  0.7117
 2818TIP3    H2 8419   4.176   2.255   2.860  0.6385 -0.3341 -2.4590
 2819TIP3   OH2 8420   6.625   5.980   1.431  0.3663  0.1433  0.3378
 2819TIP3    H1 8421   6.538   6.011   1.407 -0.5348 -0.2413  2.8099
 2819TIP3    H2 8422   6.626   5.888   1.407  0.3469  0.3112 -0.3126
 2820TIP3   OH2 8423   4.251   0.907   4.895  0.1386  0.5519 -0.0654
 2820TIP3    H1 8424   4.247   0.939   4.985  0.2039 -1.2531  0.6203
 2820TIP3    H2 8425   4.176   0.948   4.851 -0.0976  1.1729  0.8903
 2821TIP3   OH2 8426   0.372   5.530   5.522 -0.0879  0.2824 -0.4906
 2821TIP3    H1 8427   0.287   5.487   5.520 -0.1733  0.4094  0.3630
 2821TIP3    H2 8428   0.434   5.460   5.499 -0.3437 -0.0040 -0.3184
 2822TIP3   OH2 8429   4.306   0.252   4.703  0.6065 -0.3098  0.5120
 2822TIP3    H1 8430   4.338   0.308   4.773 -0.3925  1.2538 -0.2022
 2822TIP3    H2 8431   4.353   0.283   4.625 -0.9522  0.5575 -0.1440
 2823TIP3   OH2 8432   0.954   6.055   1.233 -0.5118  0.3215 -0.6096
 2823TIP3    H1 8433   1.007   6.003   1.172 -0.0831  1.0331 -0.8546
 2823TIP3    H2 8434   0.873   6.006   1.242 -0.7045  0.3495 -1.9998
 2824TIP3   OH2 8435   5.690   1.420   5.160 -0.3440  0.0248  0.3486
 2824TIP3    H1 8436   5.700   1.409   5.066 -1.6512  0.5538  0.1241
 2824TIP3    H2 8437   5.735   1.503   5.180  0.3544 -0.3300  0.2878
 2825TIP3   OH2 8438   3.538   1.696   2.948  0.3634 -0.2054 -0.4730
 2825TIP3    H1 8439   3.557   1.723   3.038 -0.6089  0.0001 -0.3151
 2825TIP3    H2 8440   3.602   1.742   2.894  1.2803 -0.7155  0.1501
 2826TIP3   OH2 8441   0.233   4.822   3.376  0.7493  0.2809 -0.0438
 2826TIP3    H1 8442   0.245   4.806   3.282  1.3819  0.4433  0.0027
 2826TIP3    H2 8443   0.216   4.916   3.382  2.2688  0.5794  0.1208
 2827TIP3   OH2 8444   5.211   1.657   1.779 -0.7302 -0.1606 -0.4728
 2827TIP3    H1 8445   5.124   1.622   1.757 -0.1297 -2.3634  0.4366
 2827TIP3    H2 8446   5.272   1.607   1.725  0.1162  0.1847  0.1331
 2828TIP3   OH2 8447   4.332   0.518   5.027 -0.1634  0.6023  0.0454
 2828TIP3    H1 8448   4.355   0.458   5.098 -1.5731  0.2649  0.2586
 2828TIP3    H2 8449   4.401   0.584   5.029 -0.1048  0.5562  1.6838
 2829TIP3   OH2 8450   4.155   6.269   1.971  0.5394 -0.2894 -0.2017
 2829TIP3    H1 8451   4.117   6.203   2.029 -0.3162 -0.6641 -1.1524
 2829TIP3    H2 8452   4.205   6.218   1.908  0.3247 -0.0003 -0.6100
 2830TIP3   OH2 8453   0.472   2.769   5.833 -0.2462 -0.0737  0.2891
 2830TIP3    H1 8454   0.425   2.850   5.812  1.8329  0.9929 -0.4754
 2830TIP3    H2 8455   0.526   2.792   5.908  1.4412 -0.2932 -0.8160
 2831TIP3   OH2 8456   0.354   0.573   2.132 -0.1055  0.0059  0.2147
 2831TIP3    H1 8457   0.435   0.607   2.094 -0.5217  0.7992  0.0215
 2831TIP3    H2 8458   0.285   0.621   2.088 -0.6846 -0.5724  0.4733
 2832TIP3   OH2 8459   3.440   4.256   3.467  0.0315  0.3789 -0.5757
 2832TIP3    H1 8460   3.495   4.280   3.542 -0.1239 -0.7496 -0.0694
 2832TIP3    H2 8461   3.367   4.318   3.470 -1.3715 -1.2109  1.8401
 2833TIP3   OH2 8462   6.333   1.041   2.974 -0.4053  0.1124  1.0244
 2833TIP3    H1 8463   6.351   1.002   2.888 -1.8175  1.4221  0.0962
 2833TIP3    H2 8464   6.339   0.967   3.035 -0.6254 -1.0916 -0.3539
 2834TIP3   OH2 8465   6.581   1.150   3.289  0.4220  0.1891  0.1761
 2834TIP3    H1 8466   6.576   1.233   3.242 -0.5042 -0.6378 -1.2431
 2834TIP3    H2 8467   6.611   1.086   3.224 -2.8606 -1.4142  0.0082
 2835TIP3   OH2 8468   6.863   2.138   1.816 -0.5560  0.1027  0.1992
 2835TIP3    H1 8469   6.852   2.100   1.729  0.3777 -0.6467  0.3806
 2835TIP3    H2 8470   6.777   2.129   1.858 -0.8832  0.0429 -0.4817
 2836TIP3   OH2 8471   0.253   4.738   3.924  0.1768  0.0420  0.3255
 2836TIP3    H1 8472   0.166   4.705   3.903 -0.1281  0.8856  0.1986
 2836TIP3    H2 8473   0.313   4.682   3.875 -0.4114  0.7284 -1.2594
 2837TIP3   OH2 8474   4.396   1.494   2.640  0.3970 -0.7927  0.4645
 2837TIP3    H1 8475   4.391   1.559   2.569  0.8250 -0.6582  0.5558
 2837TIP3    H2 8476   4.489   1.490   2.662 -0.0149  1.6543  3.3187
 2838TIP3   OH2 8477   3.273   1.846   1.931  0.6157  0.3118 -0.0331
 2838TIP3    H1 8478   3.179   1.858   1.938  0.4240 -1.1421  0.0550
 2838TIP3    H2 8479   3.310   1.915   1.986 -0.3776  1.1089 -0.3405
 2839TIP3   OH2 8480   2.132   5.180   3.446  0.8349  0.2215 -0.5388
 2839TIP3    H1 8481   2.056   5.123   3.434  0.6863  0.3673 -0.2822
 2839TIP3    H2 8482   2.190   5.156   3.374  0.6724 -0.0907 -0.5702
 2840TIP3   OH2 8483   6.479   3.497   3.914  0.3465 -0.1646 -0.0906
 2840TIP3    H1 8484   6.494   3.591   3.903  0.0369 -0.2220 -1.1950
 2840TIP3    H2 8485   6.521   3.458   3.837 -1.7636 -0.6792 -1.0446
 2841TIP3   OH2 8486   1.652   0.077   1.618  0.3829  0.5737  0.2015
 2841TIP3    H1 8487   1.673   0.076   1.525 -0.6688 -1.7677 -0.0854
 2841TIP3    H2 8488   1.737   0.079   1.662  0.8881  2.7440 -0.7337
 2842TIP3   OH2 8489   6.758   6.560   4.970  0.3413 -1.0320  0.1417
 2842TIP3    H1 8490   6.663   6.551   4.968  0.3537 -1.1093 -0.1799
 2842TIP3    H2 8491   6.783   6.525   5.055 -0.0868  0.7311  1.0413
 2843TIP3   OH2 8492   6.828   2.740   2.851 -0.0914 -0.8436  0.8598
 2843TIP3    H1 8493   6.778   2.663   2.823  0.5710  0.2449 -4.3310
 2843TIP3    H2 8494   6.762   2.809   2.861 -0.2365 -0.8344 -0.0436
 2844TIP3   OH2 8495   0.668   5.616   4.363 -0.2351  0.5313  0.4360
 2844TIP3    H1 8496   0.643   5.524   4.363 -0.4471  0.5757  1.6292
 2844TIP3    H2 8497   0.608   5.657   4.301 -0.4225 -0.0579  0.2218
 2845TIP3   OH2 8498   0.096   2.800   2.529  0.2345 -0.5105 -0.1514
 2845TIP3    H1 8499   0.068   2.797   2.438  0.5441  0.0901 -0.2716
 2845TIP3    H2 8500   0.102   2.708   2.556 -0.0244 -0.6838 -0.6828
 2846TIP3   OH2 8501   1.293   5.940   2.874  0.0449  0.4350 -0.3173
 2846TIP3    H1 8502   1.302   5.992   2.954 -0.8040 -1.4615  1.0824
 2846TIP3    H2 8503   1.199   5.942   2.855  0.1696  0.3955 -0.9462
 2847TIP3   OH2 8504   0.593   4.108   5.842  0.5781 -0.7753  0.5643
 2847TIP3    H1 8505   0.671   4.064   5.811 -0.2868 -0.8207 -1.7198
 2847TIP3    H2 8506   0.549   4.138   5.763 -0.7729  0.9047  1.8697
 2848TIP3   OH2 8507   3.679   5.296   0.485  0.3325  0.5568  0.7986
 2848TIP3    H1 8508   3.587   5.282   0.506  0.5884 -1.5264  0.7604
 2848TIP3    H2 8509   3.725   5.228   0.534  1.4422 -1.0496 -2.2411
 2849TIP3   OH2 8510   2.444   1.109   5.852  0.3973  0.1292  0.7425
 2849TIP3    H1 8511   2.392   1.045   5.902 -0.6475  0.0205 -0.4199
 2849TIP3    H2 8512   2.408   1.104   5.763 -0.0505  2.6638  0.6999
 2850TIP3   OH2 8513   4.257   0.746   1.522 -0.6778 -0.0356 -0.1675
 2850TIP3    H1 8514   4.337   0.729   1.472 -0.6382 -1.7416  0.4172
 2850TIP3    H2 8515   4.288   0.771   1.609 -0.7803  0.3394 -0.2364
 2851TIP3   OH2 8516   3.519   3.031   3.516  0.5424  0.1246 -0.2401
 2851TIP3    H1 8517   3.503   3.096   3.585  0.1945 -0.4862  0.2599
 2851TIP3    H2 8518   3.591   3.068   3.465  1.1070  0.3864  0.7173
 2852TIP3   OH2 8519   2.610   2.149   3.600 -0.3628  0.5449 -0.0803
 2852TIP3    H1 8520   2.630   2.182   3.513 -0.0767 -0.5089 -0.4241
 2852TIP3    H2 8521   2.690   2.104   3.628 -1.5733 -2.2263 -0.7565
 2853TIP3   OH2 8522   5.120   5.209   1.375  0.8353 -0.0525  0.5655
 2853TIP3    H1 8523   5.145   5.133   1.322 -0.8713  0.8272 -1.6778
 2853TIP3    H2 8524   5.162   5.283   1.331 -0.2063  0.6485  0.7061
 2854TIP3   OH2 8525   3.545   0.616   3.762  0.1233  1.2783 -0.0340
 2854TIP3    H1 8526   3.549   0.539   3.705  1.1692  0.3002  1.2744
 2854TIP3    H2 8527   3.610   0.676   3.727 -0.4248  1.4081 -0.8411
 2855TIP3   OH2 8528   1.983   4.130   0.771 -0.5205  0.2795  0.0179
 2855TIP3    H1 8529   2.000   4.096   0.859 -0.1080  0.2671 -0.0659
 2855TIP3    H2 8530   2.047   4.201   0.760  0.0933 -0.3671 -0.6560
 2856TIP3   OH2 8531   6.013   0.075   4.859  0.2334 -0.5314  0.5565
 2856TIP3    H1 8532   6.056   0.069   4.944  2.3602  1.3498 -0.3067
 2856TIP3    H2 8533   5.985  -0.015   4.840  2.8647 -1.6924  1.6813
 2857TIP3   OH2 8534   6.972   6.132   3.372 -0.2123  0.1352 -0.2890
 2857TIP3    H1 8535   6.899   6.168   3.422 -0.0259 -0.0223  0.1021
 2857TIP3    H2 8536   6.940   6.046   3.341 -0.9786  0.9686 -1.9665
 2858TIP3   OH2 8537   5.398   3.840   5.232 -0.0621 -0.0569 -0.4072
 2858TIP3    H1 8538   5.320   3.881   5.193 -0.3656  0.4639  0.7261
 2858TIP3    H2 8539   5.461   3.912   5.241 -0.0421 -0.1498  0.1879
 2859TIP3   OH2 8540   5.937   4.498   5.082 -0.2587 -0.4122  0.1727
 2859TIP3    H1 8541   5.943   4.485   5.177  1.5011  1.0046  0.3083
 2859TIP3    H2 8542   5.996   4.432   5.045 -1.1556 -1.1479  0.0201
 2860TIP3   OH2 8543   2.244   4.052   3.656 -0.4573  0.3911  0.1934
 2860TIP3    H1 8544   2.211   4.039   3.567 -2.1532 -1.5143  1.0200
 2860TIP3    H2 8545   2.337   4.028   3.650 -0.2025  1.5983 -1.3015
 2861TIP3   OH2 8546   1.774   1.528   5.550  0.6183  0.0453 -0.3516
 2861TIP3    H1 8547   1.805   1.579   5.474  2.9702  1.6610  1.5326
 2861TIP3    H2 8548   1.763   1.440   5.516  3.5936  0.2195 -2.2187
 2862TIP3   OH2 8549   0.439   0.587   0.405 -0.2065 -0.1588 -0.0667
 2862TIP3    H1 8550   0.350   0.605   0.374 -0.6572 -2.0866  0.0043
 2862TIP3    H2 8551   0.446   0.640   0.485 -1.1502  0.3287 -0.2841
 2863TIP3   OH2 8552   3.232   3.167   3.760 -0.0796  0.2608 -0.4713
 2863TIP3    H1 8553   3.158   3.153   3.700 -1.1558  1.8895  0.3904
 2863TIP3    H2 8554   3.277   3.082   3.763 -1.9472 -0.8163 -1.0003
 2864TIP3   OH2 8555   1.809   4.155   3.441  0.5935  0.6172 -0.3244
 2864TIP3    H1 8556   1.895   4.189   3.468  0.4908  0.3811  0.3356
 2864TIP3    H2 8557   1.808   4.163   3.346  1.2322  0.8970 -0.3115
 2865TIP3   OH2 8558   0.160   0.708   1.979 -0.4979 -0.2066 -0.3367
 2865TIP3    H1 8559   0.168   0.800   1.954 -1.8140  0.8440  2.5390
 2865TIP3    H2 8560   0.065   0.694   1.984 -0.3153 -1.8788 -1.1300
 2866TIP3   OH2 8561   0.310   5.079   1.921 -0.3258  0.0303  0.1452
 2866TIP3    H1 8562   0.317   4.985   1.939  0.8727  0.1173  0.2419
 2866TIP3    H2 8563   0.249   5.085   1.848  0.8557 -0.9801 -0.9757
 2867TIP3   OH2 8564   0.664   3.967   3.946 -0.7370 -0.3829  0.8080
 2867TIP3    H1 8565   0.657   3.990   4.039  1.2997  0.4361  0.8093
 2867TIP3    H2 8566   0.663   3.871   3.945 -0.6853 -0.4008  1.6736
 2868TIP3   OH2 8567   0.884   2.774   1.516  0.6496 -0.1994 -0.8352
 2868TIP3    H1 8568   0.855   2.847   1.461  2.1384  0.9392 -0.1733
 2868TIP3    H2 8569   0.814   2.764   1.581  0.2818  0.4447 -1.1213
 2869TIP3   OH2 8570   2.896   3.013   1.956 -0.1121 -0.3992 -0.1139
 2869TIP3    H1 8571   2.981   3.055   1.939  0.2775 -1.0052  0.2848
 2869TIP3    H2 8572   2.909   2.922   1.931 -0.3288 -0.7227  0.8867
 2870TIP3   OH2 8573   3.338   0.151   5.539 -0.2698  0.0975  0.2868
 2870TIP3    H1 8574   3.252   0.157   5.496  0.3228 -0.0557 -0.9550
 2870TIP3    H2 8575   3.339   0.224   5.601 -0.9723  0.5941 -0.2721
 2871TIP3   OH2 8576   1.001   2.695   3.553 -0.2751 -0.0652 -0.5080
 2871TIP3    H1 8577   1.059   2.619   3.556 -0.0495  0.1334  1.2972
 2871TIP3    H2 8578   0.914   2.659   3.569 -0.3155 -0.0575 -0.7042
 2872TIP3   OH2 8579   0.186   0.138   3.853  0.0423 -0.1538  0.3468
 2872TIP3    H1 8580   0.278   0.132   3.879  0.0960  1.6607  0.6882
 2872TIP3    H2 8581   0.170   0.058   3.802  2.4790  0.5885 -1.7727
 2873TIP3   OH2 8582   2.448   0.610   2.979  0.0179 -0.3917  0.1395
 2873TIP3    H1 8583   2.493   0.647   3.056 -1.5461  0.0319  0.8867
 2873TIP3    H2 8584   2.464   0.516   2.986 -0.9796 -0.4834  1.6087
 2874TIP3   OH2 8585   6.421   5.508   1.583 -0.1983  0.4331  0.3290
 2874TIP3    H1 8586   6.366   5.459   1.643 -1.4787  0.5821 -0.6739
 2874TIP3    H2 8587   6.386   5.488   1.496  0.9417  1.0341 -0.3002
 2875TIP3   OH2 8588   1.365   0.943   5.487  0.1346 -0.4597 -0.6498
 2875TIP3    H1 8589   1.405   0.857   5.472 -1.2396 -1.0730 -0.9495
 2875TIP3    H2 8590   1.272   0.929   5.471  0.0900  1.5275 -2.5844
 2876TIP3   OH2 8591   0.209   6.002   0.327  0.2614 -0.5779  0.9358
 2876TIP3    H1 8592   0.207   5.921   0.378 -1.1988 -1.1878 -0.0386
 2876TIP3    H2 8593   0.125   6.043   0.345  0.2731 -0.1549  0.0413
 2877TIP3   OH2 8594   3.211   6.447   5.903  0.4105 -0.1811  0.0144
 2877TIP3    H1 8595   3.159   6.431   5.824 -1.2299  0.1010  1.0014
 2877TIP3    H2 8596   3.262   6.525   5.881 -1.0802  0.7502 -0.3148
 2878TIP3   OH2 8597   0.309   5.766   2.582 -0.1150 -0.2583  0.5176
 2878TIP3    H1 8598   0.260   5.781   2.501 -2.2281 -0.5449  1.6553
 2878TIP3    H2 8599   0.330   5.854   2.613 -0.7681 -0.0837  0.4858
 2879TIP3   OH2 8600   3.123   1.136   4.381  0.4961 -0.1117  0.4494
 2879TIP3    H1 8601   3.130   1.058   4.435 -0.9287  0.4221  1.4630
 2879TIP3    H2 8602   3.153   1.208   4.437 -1.0902  0.4623  0.6125
 2880TIP3   OH2 8603   6.848   6.138   4.779 -0.0439 -0.4468  0.1622
 2880TIP3    H1 8604   6.922   6.080   4.763 -0.2521 -1.0245  1.1626
 2880TIP3    H2 8605   6.860   6.210   4.718  1.4466 -0.4376  0.4295
 2881TIP3   OH2 8606   4.495   3.353   4.134  0.2360  0.2143  0.9430
 2881TIP3    H1 8607   4.508   3.439   4.095  0.3466 -0.7234 -1.2106
 2881TIP3    H2 8608   4.415   3.320   4.094  0.7319 -1.0732  0.9702
 2882TIP3   OH2 8609   6.590   3.181   2.477 -0.7522 -0.3609 -0.5608
 2882TIP3    H1 8610   6.563   3.255   2.531  0.6409  0.1154 -0.4857
 2882TIP3    H2 8611   6.642   3.126   2.536 -0.9999 -0.9281 -0.8623
 2883TIP3   OH2 8612   2.797   2.585   2.385  0.1129 -0.5501 -0.4567
 2883TIP3    H1 8613   2.776   2.593   2.479  0.2884 -0.3634 -0.4332
 2883TIP3    H2 8614   2.878   2.535   2.383  0.1824 -0.4358 -0.5025
 2884TIP3   OH2 8615   1.009   3.912   2.651 -0.1198 -0.0082 -0.2952
 2884TIP3    H1 8616   0.942   3.980   2.649  0.8942  1.0442 -2.7434
 2884TIP3    H2 8617   1.083   3.953   2.696 -0.0665 -0.0405 -0.3529
 2885TIP3   OH2 8618   2.056   1.154   1.936  0.1956  0.2008 -0.5497
 2885TIP3    H1 8619   2.070   1.090   1.866  2.7942 -3.8422  3.1386
 2885TIP3    H2 8620   2.144   1.176   1.967 -0.8237  0.8617  2.1909
 2886TIP3   OH2 8621   6.647   5.891   3.945  0.0657 -0.1509 -0.2262
 2886TIP3    H1 8622   6.656   5.929   4.033 -1.1274  1.2616 -0.6565
 2886TIP3    H2 8623   6.737   5.885   3.912  0.4822 -0.1218  0.8526
 2887TIP3   OH2 8624   0.412   1.705   1.114 -0.3632 -0.1046  0.2804
 2887TIP3    H1 8625   0.443   1.727   1.202  0.9310  0.2539 -0.2431
 2887TIP3    H2 8626   0.440   1.779   1.060 -2.3416  0.3427 -0.2104
 2888TIP3   OH2 8627   5.825   5.354   0.627  0.4031 -0.3671  0.5374
 2888TIP3    H1 8628   5.901   5.413   0.631 -0.5562  0.8553  1.4999
 2888TIP3    H2 8629   5.773   5.386   0.554  0.7678 -1.1835 -0.0986
 2889TIP3   OH2 8630   3.678   4.186   0.384  0.0484 -0.2704 -0.3272
 2889TIP3    H1 8631   3.614   4.116   0.400  0.1091 -0.4090 -0.6993
 2889TIP3    H2 8632   3.628   4.267   0.394 -0.2019 -0.3794 -0.6939
 2890TIP3   OH2 8633   1.764   6.438   5.552  0.2969  0.5680  0.2024
 2890TIP3    H1 8634   1.843   6.422   5.603 -0.1736  0.7001  0.9870
 2890TIP3    H2 8635   1.765   6.532   5.535 -0.3787  0.8090  1.3947
 2891TIP3   OH2 8636   2.473   4.226   2.492  0.1099  0.1377  0.2499
 2891TIP3    H1 8637   2.515   4.172   2.425 -1.6595 -0.2584 -0.5838
 2891TIP3    H2 8638   2.383   4.236   2.462 -0.3218  1.2550  1.8043
 2892TIP3   OH2 8639   5.402   5.110   1.377  0.8134  0.1194  0.2273
 2892TIP3    H1 8640   5.403   5.192   1.426 -0.0976  0.7491 -0.7388
 2892TIP3    H2 8641   5.374   5.044   1.440  1.6408  0.5339  1.0386
 2893TIP3   OH2 8642   2.155   3.394   3.847 -0.0295 -0.3864  0.3145
 2893TIP3    H1 8643   2.250   3.400   3.835 -0.0064  0.7152  0.8785
 2893TIP3    H2 8644   2.124   3.483   3.829 -1.0186 -0.8515 -0.3395
 2894TIP3   OH2 8645   1.679   1.279   3.842 -0.0806  0.2181 -0.3899
 2894TIP3    H1 8646   1.739   1.209   3.819 -0.6686 -0.1159 -0.9165
 2894TIP3    H2 8647   1.591   1.242   3.831 -0.4884  1.7573 -3.1610
 2895TIP3   OH2 8648   0.643   3.175   2.101 -0.1059  0.6891 -0.0631
 2895TIP3    H1 8649   0.613   3.091   2.134  1.3809  0.7540  1.6130
 2895TIP3    H2 8650   0.737   3.164   2.089 -0.1489  1.6066 -1.4873
 2896TIP3   OH2 8651   2.877   5.887   0.568 -0.1811 -0.1198  0.4707
 2896TIP3    H1 8652   2.854   5.828   0.496  2.0869  1.3903 -1.6570
 2896TIP3    H2 8653   2.921   5.830   0.632 -1.3010 -1.3111  0.2313
 2897TIP3   OH2 8654   0.669   1.342   5.222 -0.2775 -0.6611  0.0762
 2897TIP3    H1 8655   0.756   1.357   5.259 -0.4990 -0.5432  0.5529
 2897TIP3    H2 8656   0.686   1.315   5.132  0.2723 -0.9973  0.2734
 2898TIP3   OH2 8657   1.518   5.157   3.138 -0.2412  0.4399 -0.3176
 2898TIP3    H1 8658   1.477   5.228   3.187 -1.7547  0.0495 -0.9895
 2898TIP3    H2 8659   1.516   5.082   3.197 -2.4637 -0.1502 -1.0693
 2899TIP3   OH2 8660   5.857   1.744   1.026  0.1475  1.0055 -0.0742
 2899TIP3    H1 8661   5.832   1.681   1.094  1.1260  2.0760  1.3210
 2899TIP3    H2 8662   5.800   1.819   1.041  0.1178  1.1100 -0.6838
 2900TIP3   OH2 8663   1.622   0.477   5.289  0.1916  0.3638  0.4340
 2900TIP3    H1 8664   1.716   0.479   5.272 -0.2924 -0.9311 -3.0497
 2900TIP3    H2 8665   1.612   0.409   5.355  1.7442  1.5011  1.9630
 2901TIP3   OH2 8666   1.542   1.745   5.500  0.4949 -0.2817 -0.0942
 2901TIP3    H1 8667   1.483   1.772   5.430  0.1844  0.2352  0.3630
 2901TIP3    H2 8668   1.615   1.807   5.496  0.2045  0.0968  0.3950
 2902TIP3   OH2 8669   7.184   3.915   2.365  0.1880  0.3754  0.2662
 2902TIP3    H1 8670   7.279   3.906   2.361  0.1918  0.8349 -1.3635
 2902TIP3    H2 8671   7.151   3.826   2.350  0.3515  0.3752 -0.0935
 2903TIP3   OH2 8672   0.639   3.186   3.303 -0.6085 -0.4683 -0.4164
 2903TIP3    H1 8673   0.694   3.189   3.225 -1.2819 -0.9739 -0.9138
 2903TIP3    H2 8674   0.694   3.141   3.368 -0.4449 -1.0175 -0.9246
 2904TIP3   OH2 8675   4.325   2.590   4.177 -0.8809 -0.9952 -0.5414
 2904TIP3    H1 8676   4.353   2.499   4.175 -2.8934 -1.7019  0.6551
 2904TIP3    H2 8677   4.384   2.632   4.239 -0.3611 -1.6334 -0.5907
 2905TIP3   OH2 8678   0.043   6.251   0.281 -0.1664  0.1467 -0.0853
 2905TIP3    H1 8679   0.111   6.272   0.217  0.4486 -0.7632  0.2418
 2905TIP3    H2 8680   0.036   6.329   0.336  1.4562 -0.1383  0.5867
 2906TIP3   OH2 8681   3.212   6.504   3.528 -0.1208  0.6362 -0.2503
 2906TIP3    H1 8682   3.167   6.464   3.602 -1.7724  2.2837 -0.2874
 2906TIP3    H2 8683   3.142   6.521   3.464  0.9268  1.2090 -1.2816
 2907TIP3   OH2 8684   5.891   0.792   2.124  0.0452  0.0459  0.2568
 2907TIP3    H1 8685   5.940   0.865   2.161  1.3947 -0.1191 -1.0954
 2907TIP3    H2 8686   5.825   0.834   2.069 -1.2612  0.2649  1.9117
 2908TIP3   OH2 8687   1.549   0.668   4.153 -0.3307 -0.3755 -0.4204
 2908TIP3    H1 8688   1.632   0.621   4.140  0.6265  1.5947 -2.2628
 2908TIP3    H2 8689   1.525   0.651   4.244  0.6637 -3.1700 -0.5958
 2909TIP3   OH2 8690   6.715   0.659   1.646 -0.2410  0.3384 -0.0677
 2909TIP3    H1 8691   6.710   0.565   1.629 -1.0654  0.5030 -0.8229
 2909TIP3    H2 8692   6.644   0.676   1.709 -0.5729  0.5598 -0.4936
 2910TIP3   OH2 8693   0.410   1.653   1.893 -0.0089  0.6165  0.1720
 2910TIP3    H1 8694   0.351   1.666   1.967 -0.1672 -0.8840  0.3333
 2910TIP3    H2 8695   0.368   1.586   1.840  0.3354  1.3321 -1.0523
 2911TIP3   OH2 8696   1.160   0.249   3.374  0.8574 -0.1830 -0.0457
 2911TIP3    H1 8697   1.249   0.254   3.339  0.5685 -1.4875 -1.0176
 2911TIP3    H2 8698   1.105   0.291   3.308  0.6204 -0.3558  0.0405
 2912TIP3   OH2 8699   6.944   2.698   3.282  0.6937  0.3006 -0.2494
 2912TIP3    H1 8700   6.997   2.773   3.310  1.5902  0.1732 -1.5220
 2912TIP3    H2 8701   6.870   2.738   3.236  1.5103  0.4271 -1.5058
 2913TIP3   OH2 8702   5.229   3.607   1.897  0.0188  0.0213 -0.2175
 2913TIP3    H1 8703   5.203   3.698   1.912 -0.2314 -0.1343  0.3448
 2913TIP3    H2 8704   5.320   3.612   1.868 -0.0417  0.4615 -0.3363
 2914TIP3   OH2 8705   5.107   5.037   1.116 -0.0889  0.0555  0.7308
 2914TIP3    H1 8706   5.015   5.037   1.090 -0.1933  0.2424  1.0947
 2914TIP3    H2 8707   5.119   4.956   1.166 -0.3011  0.5056  1.5246
 2915TIP3   OH2 8708   5.934   4.613   2.955  0.3814 -0.0440 -0.3733
 2915TIP3    H1 8709   5.941   4.634   3.048 -0.5137 -0.2657 -0.2472
 2915TIP3    H2 8710   5.979   4.685   2.910 -1.7102  1.6300  0.0916
 2916TIP3   OH2 8711   3.310   1.519   2.551 -0.4610 -0.1922 -0.2401
 2916TIP3    H1 8712   3.388   1.568   2.577 -0.6985 -0.3884  0.8919
 2916TIP3    H2 8713   3.282   1.475   2.631 -0.9825 -1.1710 -0.9358
 2917TIP3   OH2 8714   4.624   5.874   1.230 -0.0332 -0.4126 -0.1097
 2917TIP3    H1 8715   4.661   5.786   1.231  0.8810 -0.0562  1.3707
 2917TIP3    H2 8716   4.530   5.861   1.239  0.2840 -1.2454  3.7733
 2918TIP3   OH2 8717   0.265   2.329   4.715  0.1576  0.2707  0.0715
 2918TIP3    H1 8718   0.251   2.245   4.671 -0.0105 -0.2089  1.0155
 2918TIP3    H2 8719   0.260   2.394   4.645 -1.3344 -0.3536 -0.4456
 2919TIP3   OH2 8720   7.068   6.191   1.937 -0.1257  0.1602 -0.2559
 2919TIP3    H1 8721   6.987   6.217   1.981 -0.6218 -2.1533  0.3544
 2919TIP3    H2 8722   7.051   6.101   1.908  1.4988  0.3550 -1.9835
 2920TIP3   OH2 8723   6.907   3.863   1.520 -0.0944 -0.0886  1.0546
 2920TIP3    H1 8724   6.904   3.948   1.476  1.3381 -0.5794 -0.0836
 2920TIP3    H2 8725   6.835   3.814   1.482 -0.1895  0.2196  0.8307
 2921TIP3   OH2 8726   1.987   3.723   2.998  0.0781  0.4529 -0.2725
 2921TIP3    H1 8727   1.905   3.675   3.012  0.4045 -0.2805 -0.8390
 2921TIP3    H2 8728   2.055   3.656   2.994  0.4956  0.9145 -1.4103
 2922TIP3   OH2 8729   4.673   1.329   2.930 -0.5418  0.7333  0.3639
 2922TIP3    H1 8730   4.742   1.274   2.969  0.2024  1.6280  0.3528
 2922TIP3    H2 8731   4.592   1.294   2.965  0.0523  1.0322  2.1496
 2923TIP3   OH2 8732   1.245   0.230   3.995 -0.6039 -0.0733  0.2166
 2923TIP3    H1 8733   1.290   0.161   4.044 -0.9204  0.3958  1.1815
 2923TIP3    H2 8734   1.190   0.182   3.933 -0.3136 -0.6795  0.4106
 2924TIP3   OH2 8735   1.677   5.265   4.608  0.9111  0.0236 -0.0696
 2924TIP3    H1 8736   1.683   5.184   4.659 -0.1940 -0.1269 -0.1471
 2924TIP3    H2 8737   1.618   5.243   4.535  0.6821  0.8609 -0.1442
 2925TIP3   OH2 8738   2.845   5.100   3.827 -0.0736  0.5188 -0.2744
 2925TIP3    H1 8739   2.784   5.131   3.761  0.9199 -0.1999 -1.5929
 2925TIP3    H2 8740   2.808   5.129   3.910 -0.5578  2.8510 -1.2274
 2926TIP3   OH2 8741   1.805   1.801   2.889 -0.1152  0.2341 -0.1675
 2926TIP3    H1 8742   1.861   1.739   2.842  0.3566  0.1692  0.4603
 2926TIP3    H2 8743   1.776   1.864   2.822  0.0694 -0.1869 -0.6475
 2927TIP3   OH2 8744   0.948   5.635   5.788 -0.4631  0.3090 -0.4395
 2927TIP3    H1 8745   0.912   5.633   5.877  0.7889 -1.5937  0.0923
 2927TIP3    H2 8746   1.042   5.640   5.801 -0.1591 -1.6039 -1.5848
 2928TIP3   OH2 8747   3.004   3.384   2.279 -0.1485  0.2785 -0.3622
 2928TIP3    H1 8748   2.964   3.428   2.355  0.2082 -0.2896  0.1632
 2928TIP3    H2 8749   3.098   3.385   2.297 -0.2362 -2.2931  0.5708
 2929TIP3   OH2 8750   4.579   5.248   2.580 -0.2060  0.0345 -0.1775
 2929TIP3    H1 8751   4.495   5.269   2.540  0.3666 -0.3086 -1.6220
 2929TIP3    H2 8752   4.556   5.204   2.661 -1.4098  1.9384  0.5924
 2930TIP3   OH2 8753   1.596   4.477   4.375  0.2282  0.5205 -0.5055
 2930TIP3    H1 8754   1.562   4.562   4.403  1.6271  0.5894  1.1645
 2930TIP3    H2 8755   1.525   4.438   4.324 -0.6081  2.4913 -0.9577
 2931TIP3   OH2 8756   4.307   2.510   1.686  0.1306  0.5446  0.1807
 2931TIP3    H1 8757   4.358   2.441   1.729 -2.1700 -1.1778  0.3495
 2931TIP3    H2 8758   4.372   2.561   1.638  1.8396 -2.7270 -1.3239
 2932TIP3   OH2 8759   6.263   2.125   4.756 -0.1024  0.5556 -0.1649
 2932TIP3    H1 8760   6.346   2.149   4.716  0.4987 -1.3688 -0.1699
 2932TIP3    H2 8761   6.248   2.034   4.728 -1.7348  0.5545  0.5986
 2933TIP3   OH2 8762   1.929   2.097   5.541  0.3127 -0.6242 -0.3947
 2933TIP3    H1 8763   1.944   2.074   5.633  1.9091 -2.3015 -1.0122
 2933TIP3    H2 8764   2.014   2.124   5.508 -0.3835  0.6244 -1.2324
 2934TIP3   OH2 8765   5.075   5.046   3.362 -0.1072 -0.3535  0.5139
 2934TIP3    H1 8766   4.980   5.055   3.355 -0.3240 -1.3213  1.7624
 2934TIP3    H2 8767   5.099   5.101   3.436  0.6885  1.7627 -1.1983
 2935TIP3   OH2 8768   5.079   0.374   5.729  0.0652 -0.2045 -0.0826
 2935TIP3    H1 8769   4.985   0.392   5.726 -0.2778 -1.5309  1.3482
 2935TIP3    H2 8770   5.119   0.459   5.744 -1.0026  0.2383  0.3888
 2936TIP3   OH2 8771   6.321   6.503   2.762  0.4078  0.2863  0.0887
 2936TIP3    H1 8772   6.374   6.423   2.763 -0.0713 -0.1102 -2.0556
 2936TIP3    H2 8773   6.298   6.517   2.854 -1.2234 -3.2041  0.3793
 2937TIP3   OH2 8774   2.318   0.161   2.849 -0.3692 -0.0996 -0.5179
 2937TIP3    H1 8775   2.259   0.157   2.925 -0.2303  0.7892 -0.3539
 2937TIP3    H2 8776   2.274   0.108   2.782 -0.1249 -1.5718  0.4173
 2938TIP3   OH2 8777   1.952   1.802   0.117 -0.2489  0.0861 -0.2104
 2938TIP3    H1 8778   2.047   1.812   0.126 -0.1461 -0.5583 -0.5165
 2938TIP3    H2 8779   1.933   1.830   0.027 -0.4427  0.8280  0.0568
 2939TIP3   OH2 8780   0.286   3.445   4.456  0.0162 -0.3393  0.2606
 2939TIP3    H1 8781   0.380   3.465   4.450 -0.2234  0.7606 -0.1675
 2939TIP3    H2 8782   0.263   3.414   4.368 -0.4723  1.6347 -0.3644
 2940TIP3   OH2 8783   2.112   3.177   1.640  0.6552 -0.2138  0.1774
 2940TIP3    H1 8784   2.171   3.104   1.626  0.7170 -0.6625  2.5308
 2940TIP3    H2 8785   2.025   3.141   1.624  0.6565 -0.9484  1.6780
 2941TIP3   OH2 8786   5.347   3.765   3.224  0.0493 -0.4614  0.2245
 2941TIP3    H1 8787   5.411   3.706   3.264  0.7088  1.1751  1.7161
 2941TIP3    H2 8788   5.368   3.764   3.131  1.4485 -0.9216  0.5264
 2942TIP3   OH2 8789   1.344   3.769   2.829  0.0459 -0.4672  0.4753
 2942TIP3    H1 8790   1.403   3.784   2.904  1.1022  0.5177 -0.5222
 2942TIP3    H2 8791   1.403   3.752   2.756 -0.8467  1.3398 -0.7365
 2943TIP3   OH2 8792   0.060   4.772   3.588 -0.1952 -0.3738 -0.2828
 2943TIP3    H1 8793   0.003   4.838   3.548 -0.3399 -0.1312  0.3106
 2943TIP3    H2 8794   0.118   4.744   3.517 -0.0606  0.4713 -0.5208
 2944TIP3   OH2 8795   3.737   4.316   1.378 -0.2974  0.5911  0.1591
 2944TIP3    H1 8796   3.799   4.297   1.308 -0.0214 -0.5903  0.7025
 2944TIP3    H2 8797   3.720   4.410   1.370  2.0709  1.0986  0.3864
 2945TIP3   OH2 8798   5.320   2.289   5.853 -0.3578  0.0858  0.0862
 2945TIP3    H1 8799   5.405   2.333   5.852 -0.4509  0.2602 -0.1651
 2945TIP3    H2 8800   5.256   2.359   5.838 -0.6138  0.0988  1.1292
 2946TIP3   OH2 8801   3.695   2.083   3.065 -0.0307  0.5057  0.7398
 2946TIP3    H1 8802   3.682   2.061   2.973  1.8853  0.2747  0.4806
 2946TIP3    H2 8803   3.662   2.173   3.073  1.1303  1.0837 -0.5516
 2947TIP3   OH2 8804   3.168   0.078   4.966 -0.3830 -0.4548  0.1712
 2947TIP3    H1 8805   3.218   0.076   5.048 -1.1290 -0.2163  0.6451
 2947TIP3    H2 8806   3.234   0.068   4.897  0.4576  1.0855  0.7094
 2948TIP3   OH2 8807   1.101   5.331   3.705 -0.3288 -0.0933  0.2535
 2948TIP3    H1 8808   1.033   5.268   3.680 -0.1141 -0.4453  0.5562
 2948TIP3    H2 8809   1.140   5.294   3.784  0.8432 -0.3752 -0.4336
 2949TIP3   OH2 8810   4.826   2.159   0.247 -0.0669  0.1503 -0.2053
 2949TIP3    H1 8811   4.816   2.246   0.210  1.9918 -0.1251 -1.5535
 2949TIP3    H2 8812   4.845   2.102   0.172  0.5410 -1.1055  0.8546
 2950TIP3   OH2 8813   6.614   4.501   2.497 -0.3125 -0.6095  0.1960
 2950TIP3    H1 8814   6.603   4.412   2.465  0.0806  0.0240 -1.8367
 2950TIP3    H2 8815   6.532   4.520   2.543 -0.5409 -1.8629  0.3482
 2951TIP3   OH2 8816   5.773   5.155   4.161 -0.4055 -0.5128 -0.1608
 2951TIP3    H1 8817   5.843   5.165   4.225  0.1626 -0.8996 -0.7191
 2951TIP3    H2 8818   5.699   5.202   4.200  0.0369 -0.4352  0.6115
 2952TIP3   OH2 8819   0.216   2.158   1.925  0.1594  0.1042 -0.5375
 2952TIP3    H1 8820   0.226   2.253   1.918 -0.9277  0.2179 -0.6819
 2952TIP3    H2 8821   0.122   2.144   1.924  0.3202 -1.1147 -2.2946
 2953TIP3   OH2 8822   4.877   6.224   3.854  0.0768  0.0251  0.1508
 2953TIP3    H1 8823   4.843   6.274   3.780 -1.0316 -0.3535  0.3894
 2953TIP3    H2 8824   4.849   6.134   3.837  1.8994 -0.5119 -0.1861
 2954TIP3   OH2 8825   2.931   4.242   5.126  0.8281  0.1642 -0.0517
 2954TIP3    H1 8826   2.910   4.165   5.179  0.0254  0.8784  0.7054
 2954TIP3    H2 8827   2.888   4.226   5.042 -0.5663  0.3901  0.5796
 2955TIP3   OH2 8828   0.731   6.366   5.594  0.4411 -0.2466  0.2980
 2955TIP3    H1 8829   0.658   6.399   5.541 -0.0186 -2.2858 -0.3990
 2955TIP3    H2 8830   0.759   6.443   5.645 -0.1276  1.3824 -1.6891
 2956TIP3   OH2 8831   6.189   3.616   1.938  0.1447  0.1775  0.3832
 2956TIP3    H1 8832   6.284   3.626   1.947 -0.0434  1.8861  0.9523
 2956TIP3    H2 8833   6.166   3.551   2.004  1.0028 -0.8271 -0.2882
 2957TIP3   OH2 8834   4.681   1.114   3.454 -0.3186  0.2117 -0.1516
 2957TIP3    H1 8835   4.649   1.202   3.435 -0.3618  0.7472  2.1119
 2957TIP3    H2 8836   4.758   1.128   3.510  0.3083 -1.1762 -0.6395
 2958TIP3   OH2 8837   6.408   2.836   4.906  0.3393  0.0219  0.3845
 2958TIP3    H1 8838   6.487   2.817   4.957  1.1693  1.2562 -0.3656
 2958TIP3    H2 8839   6.371   2.750   4.885  1.3808 -0.5750  0.9140
 2959TIP3   OH2 8840   5.292   1.068   1.309  0.0920 -0.4838  0.4131
 2959TIP3    H1 8841   5.197   1.065   1.323  0.3715 -1.6393  2.4862
 2959TIP3    H2 8842   5.303   1.118   1.228 -2.2416  0.1988  0.4489
 2960TIP3   OH2 8843   0.233   3.994   0.323  0.3642  0.9155 -0.3082
 2960TIP3    H1 8844   0.221   3.982   0.417  0.1345  1.3896 -0.2794
 2960TIP3    H2 8845   0.313   3.944   0.304  0.4489  0.8678  0.1445
 2961TIP3   OH2 8846   2.354   5.340   2.244 -0.1423 -0.4622 -0.0679
 2961TIP3    H1 8847   2.408   5.385   2.178 -1.7411  0.9351 -0.5053
 2961TIP3    H2 8848   2.284   5.403   2.264 -0.9700 -1.7622  1.2933
 2962TIP3   OH2 8849   1.224   3.185   1.690 -0.4641  0.2799  0.3412
 2962TIP3    H1 8850   1.219   3.258   1.627 -2.3943 -0.4227 -0.3910
 2962TIP3    H2 8851   1.236   3.108   1.635  0.2018 -0.1274  1.0346
 2963TIP3   OH2 8852   0.900   5.901   1.656  0.1613 -0.3887 -0.3680
 2963TIP3    H1 8853   0.918   5.914   1.749 -1.6705 -0.5379  0.0663
 2963TIP3    H2 8854   0.923   5.983   1.614  0.2637 -0.0442  0.3559
 2964TIP3   OH2 8855   6.201   2.597   3.137 -0.6322 -0.1417 -0.5699
 2964TIP3    H1 8856   6.128   2.659   3.134 -0.2038  0.3907 -0.2059
 2964TIP3    H2 8857   6.269   2.642   3.188 -0.8800 -1.5297  1.0670
 2965TIP3   OH2 8858   1.735   2.724   3.965  0.1787 -0.0237  0.4147
 2965TIP3    H1 8859   1.649   2.708   3.927  0.0254  0.9508  0.3343
 2965TIP3    H2 8860   1.783   2.770   3.896  1.5566 -2.5235 -0.4218
 2966TIP3   OH2 8861   3.924   2.960   1.798  0.0862 -0.0363  0.0589
 2966TIP3    H1 8862   3.963   2.940   1.713 -0.6144 -0.4695 -0.1650
 2966TIP3    H2 8863   3.996   2.953   1.860  0.5832  0.2014 -0.4864
 2967TIP3   OH2 8864   0.043   5.470   5.469 -0.1926  0.4159 -0.1440
 2967TIP3    H1 8865  -0.039   5.466   5.518 -0.4445 -0.9505 -0.6374
 2967TIP3    H2 8866   0.029   5.413   5.393  1.4844 -0.5178  0.1957
 2968TIP3   OH2 8867   0.214   6.743   2.842  0.0823  0.0774 -0.2497
 2968TIP3    H1 8868   0.214   6.655   2.880 -1.9687 -0.8224 -2.1011
 2968TIP3    H2 8869   0.176   6.799   2.910  0.1199 -0.7151  0.4351
 2969TIP3   OH2 8870   2.101   4.463   2.831 -0.1959 -0.3674 -0.1263
 2969TIP3    H1 8871   2.032   4.469   2.898  1.4933  0.3975  1.6575
 2969TIP3    H2 8872   2.143   4.549   2.833  1.2508 -1.0305 -0.6286
 2970TIP3   OH2 8873   5.637   6.502   3.763 -0.2165  0.6660  0.2306
 2970TIP3    H1 8874   5.579   6.554   3.819 -0.9169 -0.0859  0.2259
 2970TIP3    H2 8875   5.580   6.468   3.694  0.0318 -0.8095  0.7197
 2971TIP3   OH2 8876   3.477   2.273   3.165 -0.1061  0.0928  0.2996
 2971TIP3    H1 8877   3.477   2.359   3.207  1.4455  0.3038 -0.0656
 2971TIP3    H2 8878   3.513   2.214   3.231  1.4765  0.2658 -0.3463
 2972TIP3   OH2 8879   4.479   2.312   2.233  0.2529 -0.8020  0.0804
 2972TIP3    H1 8880   4.546   2.379   2.238 -1.0311  0.9314 -2.9093
 2972TIP3    H2 8881   4.419   2.332   2.305  1.6481 -0.8849  1.2873
 2973TIP3   OH2 8882   4.362   0.777   1.853  0.0500  0.0138  0.2737
 2973TIP3    H1 8883   4.400   0.856   1.889 -1.0920  1.2212 -1.0414
 2973TIP3    H2 8884   4.359   0.716   1.927  0.0481  1.5232  1.5733
 2974TIP3   OH2 8885   1.719   6.151   5.511 -0.3478  0.0433  0.1699
 2974TIP3    H1 8886   1.739   6.244   5.512 -2.2247  0.4917 -0.3804
 2974TIP3    H2 8887   1.732   6.123   5.602  1.2022  0.5910  0.1397
 2975TIP3   OH2 8888   5.438   4.948   2.576 -0.1110 -0.1961  0.3054
 2975TIP3    H1 8889   5.499   5.021   2.573 -0.6791  0.3503  1.4565
 2975TIP3    H2 8890   5.361   4.983   2.620 -1.8002 -0.4921 -2.2003
 2976TIP3   OH2 8891   3.881   4.816   3.777  0.6581  0.0637  0.1980
 2976TIP3    H1 8892   3.947   4.748   3.766 -0.5652 -0.9932 -0.9893
 2976TIP3    H2 8893   3.824   4.806   3.701 -0.4537  1.4096  0.8153
 2977TIP3   OH2 8894   4.663   1.466   0.820 -0.0296 -0.6980  0.5104
 2977TIP3    H1 8895   4.604   1.538   0.799 -0.4423 -0.2412  2.9295
 2977TIP3    H2 8896   4.629   1.392   0.770  0.8223  0.8316 -2.6321
 2978TIP3   OH2 8897   5.527   2.118   0.340  0.0999 -0.1668 -0.1932
 2978TIP3    H1 8898   5.588   2.046   0.361 -0.8894 -0.9504  0.0698
 2978TIP3    H2 8899   5.509   2.159   0.424  0.7464  0.4854 -0.3566
 2979TIP3   OH2 8900   4.457   2.007   4.988 -0.6278  0.2259  0.0067
 2979TIP3    H1 8901   4.525   1.963   4.937 -0.5277  1.2501 -0.7603
 2979TIP3    H2 8902   4.377   1.958   4.969 -0.5482  0.4506 -0.9596
 2980TIP3   OH2 8903   2.450   1.092   1.584 -0.3883 -0.4366  0.4266
 2980TIP3    H1 8904   2.507   1.110   1.658  1.2097 -0.8902 -0.6301
 2980TIP3    H2 8905   2.484   1.010   1.547 -0.8634 -0.0220 -1.0234
 2981TIP3   OH2 8906   1.720   3.476   4.239 -0.0257  0.1940  0.4179
 2981TIP3    H1 8907   1.798   3.520   4.206  0.9069 -0.9051  1.0912
 2981TIP3    H2 8908   1.660   3.547   4.262  1.1808  1.0921  0.8647
 2982TIP3   OH2 8909   3.006   3.576   1.518  0.3256 -0.0541 -0.0375
 2982TIP3    H1 8910   2.982   3.639   1.585  0.0156  0.6829 -0.8316
 2982TIP3    H2 8911   3.022   3.495   1.567 -1.5923 -0.0029  0.7585
 2983TIP3   OH2 8912   1.288   3.479   4.711 -0.1417 -0.0274 -0.0001
 2983TIP3    H1 8913   1.353   3.543   4.681 -2.2446  2.0551 -0.4404
 2983TIP3    H2 8914   1.308   3.466   4.804  0.7767  0.7058 -0.0783
 2984TIP3   OH2 8915   1.931   5.539   3.539 -0.1061  0.4538 -0.4145
 2984TIP3    H1 8916   1.837   5.534   3.519  0.3944  0.3178 -3.0743
 2984TIP3    H2 8917   1.971   5.567   3.457  1.9609  3.2407  1.3792
 2985TIP3   OH2 8918   1.276   2.641   0.258 -0.2079  0.0597 -0.1759
 2985TIP3    H1 8919   1.346   2.623   0.321 -1.8472 -0.3326  1.6392
 2985TIP3    H2 8920   1.265   2.736   0.261 -1.3936 -0.0766  1.5089
 2986TIP3   OH2 8921   6.762   3.288   2.306 -0.0891 -0.1923 -0.1401
 2986TIP3    H1 8922   6.707   3.233   2.362  0.5234 -1.6072 -0.8855
 2986TIP3    H2 8923   6.707   3.365   2.288 -1.4960 -1.1525 -0.1451
 2987TIP3   OH2 8924   3.679   1.367   1.046 -0.4121 -0.1907  0.1637
 2987TIP3    H1 8925   3.604   1.309   1.033 -0.6954  0.3995 -0.9755
 2987TIP3    H2 8926   3.649   1.430   1.111 -0.1199 -1.2718  1.3714
 2988TIP3   OH2 8927   2.308   4.702   0.454  0.0658  0.1014 -0.2242
 2988TIP3    H1 8928   2.358   4.691   0.373  0.3746  0.9647 -0.1567
 2988TIP3    H2 8929   2.218   4.718   0.424  0.3659  1.4850 -0.4481
 2989TIP3   OH2 8930   1.130   6.635   0.039  0.7384 -0.7910  0.2072
 2989TIP3    H1 8931   1.092   6.654  -0.047  2.1734 -2.0965 -0.7837
 2989TIP3    H2 8932   1.056   6.617   0.095 -0.2113 -0.5425 -0.9290
 2990TIP3   OH2 8933   1.750   3.787   3.710  0.1576 -0.2766  0.3675
 2990TIP3    H1 8934   1.797   3.868   3.730 -1.0782  0.3742  0.7266
 2990TIP3    H2 8935   1.721   3.799   3.620 -1.8493  0.6467  1.0810
 2991TIP3   OH2 8936   3.230   2.885   1.620  0.4388  0.0400  0.4823
 2991TIP3    H1 8937   3.289   2.870   1.694  1.8350  1.3153 -0.3228
 2991TIP3    H2 8938   3.156   2.826   1.636  1.1908 -0.4668  2.3356
 2992TIP3   OH2 8939   2.409   4.510   2.860 -0.1488 -0.0623  0.0546
 2992TIP3    H1 8940   2.469   4.447   2.821  0.2646  1.8031 -2.5812
 2992TIP3    H2 8941   2.458   4.549   2.932  1.8519  1.2707 -1.8980
 2993TIP3   OH2 8942   4.251   3.064   4.311  0.3657 -0.1137 -0.1736
 2993TIP3    H1 8943   4.195   3.139   4.289  0.3552 -0.1447 -0.2522
 2993TIP3    H2 8944   4.199   2.987   4.286 -0.4190 -0.2355  1.6234
 2994TIP3   OH2 8945   2.040   5.421   4.169 -0.1049 -0.6210  0.0241
 2994TIP3    H1 8946   1.956   5.437   4.126 -0.0962 -0.5585  0.0300
 2994TIP3    H2 8947   2.102   5.480   4.125 -0.4285  0.6789  1.2149
 2995TIP3   OH2 8948   4.744   3.247   1.031  0.3844 -0.2526  0.2792
 2995TIP3    H1 8949   4.673   3.311   1.035 -0.1279 -0.8170  0.3546
 2995TIP3    H2 8950   4.812   3.290   0.979 -1.1534 -0.7790 -2.3771
 2996TIP3   OH2 8951   2.727   1.166   2.060 -0.4912  0.1716 -0.2671
 2996TIP3    H1 8952   2.822   1.179   2.056 -0.2817 -0.6737  1.1031
 2996TIP3    H2 8953   2.700   1.214   2.138 -1.3064  0.9002 -0.9726
 2997TIP3   OH2 8954   5.729   0.164   2.127  0.9875 -0.2043 -0.0680
 2997TIP3    H1 8955   5.756   0.082   2.084 -1.7549 -0.1750 -2.0942
 2997TIP3    H2 8956   5.737   0.230   2.058 -2.9741 -0.0330 -0.5635
 2998TIP3   OH2 8957   2.546   3.059   3.620 -0.3409  0.3324 -0.1682
 2998TIP3    H1 8958   2.539   2.993   3.551  2.1639  1.3935 -1.5724
 2998TIP3    H2 8959   2.504   3.137   3.582  2.2164  1.3239 -1.1920
 2999TIP3   OH2 8960   3.345   0.311   2.682 -0.0841  0.6402 -0.4224
 2999TIP3    H1 8961   3.418   0.267   2.726 -0.2296 -0.9082 -1.6318
 2999TIP3    H2 8962   3.279   0.242   2.671 -1.7942  2.0221  0.6994
 3000TIP3   OH2 8963   7.063   0.076   5.136  0.2926 -0.3836 -0.1025
 3000TIP3    H1 8964   7.109   0.053   5.055  1.0401 -4.3766  1.2279
 3000TIP3    H2 8965   6.970   0.067   5.114  0.4804 -1.1427 -0.6228
 3001TIP3   OH2 8966   6.589   4.359   0.398  0.2011 -0.0981  0.0665
 3001TIP3    H1 8967   6.512   4.311   0.429 -0.1460  1.0376  1.0344
 3001TIP3    H2 8968   6.554   4.436   0.355  0.7858  0.7279  1.0166
 3002TIP3   OH2 8969   3.737   0.229   3.328  0.6757 -0.3134 -0.4297
 3002TIP3    H1 8970   3.790   0.256   3.403  1.6199  0.7623 -1.4424
 3002TIP3    H2 8971   3.662   0.183   3.367  1.2797 -0.0329  1.1435
 3003TIP3   OH2 8972   4.350   1.708   5.776  0.4119  0.1704  0.7333
 3003TIP3    H1 8973   4.350   1.650   5.700 -2.7288  1.0945 -0.1074
 3003TIP3    H2 8974   4.398   1.659   5.843  2.1892 -1.2061 -1.4020
 3004TIP3   OH2 8975   1.277   4.665   0.939 -0.3065 -0.8990 -0.2902
 3004TIP3    H1 8976   1.294   4.585   0.989 -1.5192 -0.4744  0.8791
 3004TIP3    H2 8977   1.211   4.711   0.991  0.7815  1.1517 -0.6265
 3005TIP3   OH2 8978   6.468   0.639   4.545 -0.2341  0.4136  0.3018
 3005TIP3    H1 8979   6.461   0.616   4.638  2.1092 -1.0076  0.1959
 3005TIP3    H2 8980   6.386   0.607   4.507 -1.3671  1.2721  1.8744
 3006TIP3   OH2 8981   6.404   4.766   0.850 -0.2120 -0.7969  0.1499
 3006TIP3    H1 8982   6.486   4.804   0.820  0.3091 -2.8563 -1.2482
 3006TIP3    H2 8983   6.347   4.767   0.773 -0.7969 -1.2111  0.5642
 3007TIP3   OH2 8984   3.190   3.573   4.197  0.1803  0.1468  0.2545
 3007TIP3    H1 8985   3.191   3.539   4.107  2.8425  1.0026 -0.1301
 3007TIP3    H2 8986   3.106   3.543   4.233  0.6350 -3.4622 -1.2527
 3008TIP3   OH2 8987   6.704   4.718   4.941  0.0262  0.2224  0.3133
 3008TIP3    H1 8988   6.712   4.731   4.846 -0.2407 -1.1140  0.0863
 3008TIP3    H2 8989   6.628   4.661   4.951  0.1945  0.1501  1.3144
 3009TIP3   OH2 8990   5.217   3.391   2.784 -0.1816  0.2197  0.0939
 3009TIP3    H1 8991   5.265   3.310   2.801 -0.4712 -0.0735 -0.4300
 3009TIP3    H2 8992   5.285   3.457   2.770  0.0581  0.0345  0.3691
 3010TIP3   OH2 8993   5.102   4.122   4.656 -0.3128 -0.8043  0.7912
 3010TIP3    H1 8994   5.169   4.079   4.708 -0.4314 -1.5258  0.3588
 3010TIP3    H2 8995   5.119   4.215   4.667  2.5957 -0.9072 -1.6334
 3011TIP3   OH2 8996   6.535   6.491   5.433 -0.1864 -0.1712 -0.4336
 3011TIP3    H1 8997   6.486   6.421   5.475 -1.2665 -0.0775 -1.4720
 3011TIP3    H2 8998   6.522   6.567   5.489  2.4243 -1.0991  1.6644
 3012TIP3   OH2 8999   1.746   2.527   2.723 -0.3836  0.4430  0.2723
 3012TIP3    H1 9000   1.797   2.483   2.655  0.0739 -1.1128  1.5646
 3012TIP3    H2 9001   1.808   2.589   2.762 -0.9833  2.2398 -1.4402
 3013TIP3   OH2 9002   5.125   2.275   5.280 -0.0623  0.7541 -0.1560
 3013TIP3    H1 9003   5.112   2.361   5.321 -1.1626  0.6994 -0.3402
 3013TIP3    H2 9004   5.166   2.222   5.348  1.8097  1.7529 -0.4456
 3014TIP3   OH2 9005   5.159   3.239   5.735 -0.2773  0.1990 -0.4467
 3014TIP3    H1 9006   5.133   3.240   5.643  2.5323  0.6709 -1.3397
 3014TIP3    H2 9007   5.174   3.330   5.757  0.3643 -0.0260  0.0677
 3015TIP3   OH2 9008   5.932   6.274   5.523  0.5836  0.6094 -0.4162
 3015TIP3    H1 9009   5.842   6.300   5.504  0.6376  1.6463  0.6619
 3015TIP3    H2 9010   5.972   6.262   5.437 -0.4716  0.4996 -0.9066
 3016TIP3   OH2 9011   1.388   4.175   3.557 -0.2328 -0.1304 -0.0914
 3016TIP3    H1 9012   1.476   4.141   3.574  0.3409  1.3499  0.0371
 3016TIP3    H2 9013   1.400   4.240   3.489 -1.3772 -0.4982 -0.6773
 3017TIP3   OH2 9014   5.466   0.754   1.946  0.4859 -0.4283  0.2192
 3017TIP3    H1 9015   5.431   0.762   1.857 -0.2249  2.0668  0.6432
 3017TIP3    H2 9016   5.389   0.735   2.000  0.3072  1.3939  0.6776
 3018TIP3   OH2 9017   7.191   0.178   0.557  0.0048  0.2593 -0.3523
 3018TIP3    H1 9018   7.230   0.141   0.477  0.8229 -0.8234  0.5266
 3018TIP3    H2 9019   7.125   0.115   0.584  0.0013  0.4303  0.0427
 3019TIP3   OH2 9020   6.726   5.023   4.623  0.2719  0.0543 -0.3320
 3019TIP3    H1 9021   6.743   5.111   4.589  1.0894 -0.1031 -0.3466
 3019TIP3    H2 9022   6.809   4.996   4.662  0.1688 -0.9077 -0.7556
 3020TIP3   OH2 9023   5.808   6.714   5.380  0.2502 -0.1189 -0.2555
 3020TIP3    H1 9024   5.896   6.677   5.368  0.2913 -0.7434  1.6876
 3020TIP3    H2 9025   5.752   6.660   5.324  1.0680  0.3186 -1.5708
 3021TIP3   OH2 9026   5.553   1.632   5.921  0.3659  0.2787  0.1839
 3021TIP3    H1 9027   5.619   1.573   5.884 -0.2675  0.4710 -1.3361
 3021TIP3    H2 9028   5.509   1.670   5.844 -2.0473 -0.4260  1.1299
 3022TIP3   OH2 9029   4.455   5.321   0.878  0.2446  0.0915  0.5306
 3022TIP3    H1 9030   4.364   5.308   0.906 -0.4655  1.8221 -0.7934
 3022TIP3    H2 9031   4.480   5.404   0.918  0.5129  0.6538 -0.7480
 3023TIP3   OH2 9032   6.349   1.162   4.682 -0.1973 -0.6485  0.4057
 3023TIP3    H1 9033   6.388   1.077   4.699  2.3219  0.1948 -0.6899
 3023TIP3    H2 9034   6.257   1.143   4.662  0.0587 -2.9574  1.1754
 3024TIP3   OH2 9035   6.424   6.756   3.277  0.9512 -0.0890 -0.1231
 3024TIP3    H1 9036   6.385   6.819   3.217  0.9364  0.6366  0.6383
 3024TIP3    H2 9037   6.353   6.734   3.338 -0.0137 -3.1455 -2.0911
 3025TIP3   OH2 9038   3.476   4.231   5.550 -0.5484  1.2079  0.1899
 3025TIP3    H1 9039   3.493   4.137   5.551 -1.9075  0.8405 -2.3049
 3025TIP3    H2 9040   3.493   4.259   5.640 -1.1417 -1.5963  1.2979
 3026TIP3   OH2 9041   0.176   1.912   1.089  0.4571 -0.5586 -0.3576
 3026TIP3    H1 9042   0.228   1.963   1.152  0.4407  2.0544 -2.2714
 3026TIP3    H2 9043   0.183   1.822   1.120  1.8726  0.3426  2.3563
 3027TIP3   OH2 9044   5.748   4.883   3.725 -0.4526  0.2444 -0.1338
 3027TIP3    H1 9045   5.730   4.975   3.707 -0.0164  0.4629  0.5084
 3027TIP3    H2 9046   5.721   4.870   3.815  1.8676  0.4347  0.6752
 3028TIP3   OH2 9047   3.773   5.917   2.304 -0.5637  0.2141  0.0427
 3028TIP3    H1 9048   3.758   5.882   2.216  0.0052 -0.6564  0.2783
 3028TIP3    H2 9049   3.755   5.843   2.362  0.3475  0.4112  0.5833
 3029TIP3   OH2 9050   1.397   6.243   4.227  0.4187  0.2688 -0.1398
 3029TIP3    H1 9051   1.438   6.257   4.313  0.1761  0.8288 -0.1145
 3029TIP3    H2 9052   1.310   6.210   4.248  0.6131 -0.3018 -0.1881
 3030TIP3   OH2 9053   4.474   6.363   5.657  0.0145 -0.0869 -0.0069
 3030TIP3    H1 9054   4.546   6.301   5.648  1.7634  1.9122 -0.5921
 3030TIP3    H2 9055   4.414   6.340   5.586  0.6642 -1.0319 -0.2783
 3031TIP3   OH2 9056   5.478   1.723   0.695 -0.1481  0.4516  0.1076
 3031TIP3    H1 9057   5.497   1.744   0.786  0.9049 -0.6228  0.1717
 3031TIP3    H2 9058   5.387   1.694   0.695 -0.5801  1.7388  0.5654
 3032TIP3   OH2 9059   6.291   4.347   1.094 -0.2469  0.2254  0.1649
 3032TIP3    H1 9060   6.208   4.343   1.047 -0.0819 -1.2446 -0.0561
 3032TIP3    H2 9061   6.351   4.294   1.041  0.6086  0.5652  0.7631
 3033TIP3   OH2 9062   2.998   3.355   3.347 -0.5520  0.1847 -0.3445
 3033TIP3    H1 9063   3.037   3.394   3.269 -0.8421  0.3615 -0.4039
 3033TIP3    H2 9064   3.042   3.271   3.357 -0.1856  0.3676 -0.4313
 3034TIP3   OH2 9065   5.026   3.446   0.610 -0.5693 -0.1591  0.0156
 3034TIP3    H1 9066   5.038   3.534   0.644  2.1523 -0.2833 -0.3397
 3034TIP3    H2 9067   5.022   3.458   0.515  2.2144 -0.4879 -0.2264
 3035TIP3   OH2 9068   3.581   2.423   1.339 -0.4621  0.7420  0.1844
 3035TIP3    H1 9069   3.675   2.445   1.338 -0.4375  0.6945 -1.2936
 3035TIP3    H2 9070   3.578   2.331   1.363  0.0081  0.3024 -1.3464
 3036TIP3   OH2 9071   5.986   2.724   5.392 -0.3756  0.3228  0.5731
 3036TIP3    H1 9072   5.928   2.720   5.468 -1.0237  0.0340  0.0661
 3036TIP3    H2 9073   5.974   2.813   5.358 -2.8925 -0.6318 -1.3433
 3037TIP3   OH2 9074   0.740   2.228   0.801  0.0969 -0.2620 -0.7928
 3037TIP3    H1 9075   0.787   2.246   0.883  0.9218 -0.9557 -1.0958
 3037TIP3    H2 9076   0.664   2.286   0.804  1.0629  1.0311 -0.3718
 3038TIP3   OH2 9077   6.393   4.579   2.188 -0.3358  0.1876 -0.3626
 3038TIP3    H1 9078   6.316   4.577   2.130  0.2956  0.0353 -1.2262
 3038TIP3    H2 9079   6.361   4.545   2.271 -1.1867  0.0322 -0.7402
 3039TIP3   OH2 9080   3.553   0.387   3.592 -0.0656 -0.4542 -0.0503
 3039TIP3    H1 9081   3.496   0.311   3.602 -0.5396 -0.2921 -1.2903
 3039TIP3    H2 9082   3.641   0.354   3.607 -0.3191 -1.1200  0.0172
 3040TIP3   OH2 9083   1.788   1.377   2.042 -0.0362  0.0187  0.1509
 3040TIP3    H1 9084   1.771   1.350   1.952  1.5037  0.0221 -0.1680
 3040TIP3    H2 9085   1.761   1.469   2.045  0.4002  0.1712 -0.4622
 3041TIP3   OH2 9086   1.423   3.398   3.236 -0.0522 -0.0330 -0.5418
 3041TIP3    H1 9087   1.429   3.407   3.141  0.7965 -1.1421 -0.6157
 3041TIP3    H2 9088   1.504   3.354   3.261 -0.1590  0.4521  0.7342
 3042TIP3   OH2 9089   6.878   5.792   3.772  0.6444  0.2796 -0.2726
 3042TIP3    H1 9090   6.916   5.746   3.846 -0.9738  0.2543  0.6036
 3042TIP3    H2 9091   6.846   5.723   3.714 -0.0233  0.2786  0.0838
 3043TIP3   OH2 9092   2.790   1.025   4.463 -0.1718  0.4861  0.6500
 3043TIP3    H1 9093   2.756   1.049   4.376 -1.3190 -0.4779  0.8104
 3043TIP3    H2 9094   2.853   1.094   4.484 -0.7513  1.3727 -0.4347
 3044TIP3   OH2 9095   3.162   2.318   4.108  0.1352  0.3227 -0.0031
 3044TIP3    H1 9096   3.237   2.260   4.092 -0.3424 -0.4150  0.3283
 3044TIP3    H2 9097   3.110   2.311   4.028 -0.7497 -1.0295  0.6396
 3045TIP3   OH2 9098   1.667   4.932   2.483 -0.2434  0.2145 -0.1773
 3045TIP3    H1 9099   1.665   4.882   2.401 -0.4055 -0.7873  0.4187
 3045TIP3    H2 9100   1.693   5.020   2.457  1.3080 -0.4817 -1.1192
 3046TIP3   OH2 9101   0.648   0.124   0.238 -0.0963  0.3730  0.5685
 3046TIP3    H1 9102   0.559   0.109   0.269 -0.1666  1.4270  0.9103
 3046TIP3    H2 9103   0.642   0.202   0.183  1.0244  1.9949  2.6419
 3047TIP3   OH2 9104   1.348   6.557   4.111  0.3397 -0.0321 -0.2155
 3047TIP3    H1 9105   1.260   6.593   4.118 -0.5444 -2.1427  0.2571
 3047TIP3    H2 9106   1.345   6.475   4.160  2.3448 -0.5740 -0.8779
 3048TIP3   OH2 9107   2.173   1.831   3.724 -0.5469 -1.2655  0.1413
 3048TIP3    H1 9108   2.189   1.907   3.779  0.0663  1.1657 -3.1250
 3048TIP3    H2 9109   2.217   1.759   3.770  0.9244  0.7978  2.1870
 3049TIP3   OH2 9110   1.207   0.474   1.079  0.0800 -0.1379 -0.0088
 3049TIP3    H1 9111   1.281   0.423   1.047  1.0587  0.6021  1.0148
 3049TIP3    H2 9112   1.244   0.532   1.146 -0.8406  2.3890 -1.5248
 3050TIP3   OH2 9113   6.560   2.619   2.670  0.3570 -0.3939 -0.0049
 3050TIP3    H1 9114   6.605   2.560   2.729  1.4343  0.1872 -0.2220
 3050TIP3    H2 9115   6.626   2.644   2.605  0.1265  1.5442  0.4558
 3051TIP3   OH2 9116   5.107   2.779   1.576 -0.6147  0.0800  0.3100
 3051TIP3    H1 9117   5.174   2.718   1.608 -0.5767 -0.6994 -1.1974
 3051TIP3    H2 9118   5.140   2.865   1.600  0.7004 -0.3213  0.0281
 3052TIP3   OH2 9119   6.465   1.523   1.075  0.0593  0.1412 -0.3433
 3052TIP3    H1 9120   6.403   1.459   1.041 -0.8364  0.3268  0.8724
 3052TIP3    H2 9121   6.514   1.552   0.998 -1.3284 -0.0266 -1.3241
 3053TIP3   OH2 9122   2.936   5.402   2.615 -0.5963  0.0765 -0.4243
 3053TIP3    H1 9123   2.982   5.340   2.558 -0.9336  0.2709 -0.9212
 3053TIP3    H2 9124   3.000   5.428   2.681  0.0289  0.3829 -1.1368
 3054TIP3   OH2 9125   3.680   5.454   3.533 -0.2398 -0.0727 -0.3112
 3054TIP3    H1 9126   3.675   5.540   3.492 -1.4329 -0.1241 -0.3254
 3054TIP3    H2 9127   3.700   5.394   3.460  2.2359  0.3303 -0.0574
 3055TIP3   OH2 9128   3.643   3.965   1.785 -0.0854 -0.3428 -0.1853
 3055TIP3    H1 9129   3.645   3.898   1.716  0.5617 -0.0685 -0.4439
 3055TIP3    H2 9130   3.628   4.047   1.739 -0.3407 -0.2440  0.0734
 3056TIP3   OH2 9131   6.963   3.574   5.673  0.4604  0.3015 -0.5336
 3056TIP3    H1 9132   6.969   3.513   5.599 -0.9774  0.0930 -0.5037
 3056TIP3    H2 9133   6.934   3.656   5.634  1.5724  0.7531 -0.4502
 3057TIP3   OH2 9134   5.663   3.738   2.106 -0.3545  0.3384  0.6336
 3057TIP3    H1 9135   5.715   3.769   2.180 -0.3846 -1.5185  1.4931
 3057TIP3    H2 9136   5.592   3.687   2.146  0.5303 -2.0806 -0.6385
 3058TIP3   OH2 9137   2.217   5.958   2.708 -0.3682  0.1251  0.2153
 3058TIP3    H1 9138   2.303   5.918   2.723  0.4705  1.9346  0.5540
 3058TIP3    H2 9139   2.155   5.885   2.710  1.2580 -1.3780 -1.0530
 3059TIP3   OH2 9140   7.061   5.714   2.707 -0.4060  0.9285 -0.4413
 3059TIP3    H1 9141   7.078   5.807   2.698 -0.0152  0.7465 -1.8365
 3059TIP3    H2 9142   7.083   5.694   2.798  1.0217  1.8930 -0.5475
 3060TIP3   OH2 9143   5.938   4.053   4.751  0.3033  0.0729  0.3991
 3060TIP3    H1 9144   5.863   4.088   4.799 -1.0319  1.8318 -2.6632
 3060TIP3    H2 9145   5.908   4.046   4.661  3.2514 -1.0823 -0.6182
 3061TIP3   OH2 9146   7.067   4.860   5.183  0.2147  0.7099  0.0817
 3061TIP3    H1 9147   7.053   4.952   5.161 -0.7216  0.3003 -1.1481
 3061TIP3    H2 9148   7.160   4.846   5.169  0.1198  1.1387 -1.1466
 3062TIP3   OH2 9149   3.462   0.082   0.624  0.0079  0.2970  0.0646
 3062TIP3    H1 9150   3.408   0.161   0.619 -1.0875 -0.4429 -0.2738
 3062TIP3    H2 9151   3.552   0.115   0.630 -0.5231  1.5807  1.6099
 3063TIP3   OH2 9152   2.922   5.969   1.738  0.0661  0.3082  0.3021
 3063TIP3    H1 9153   2.900   5.927   1.821 -0.7510 -1.0939 -0.5813
 3063TIP3    H2 9154   2.848   6.027   1.721 -0.5727 -0.6395 -0.2250
 3064TIP3   OH2 9155   0.371   4.880   5.704 -0.2939  0.3761  0.0019
 3064TIP3    H1 9156   0.285   4.909   5.673 -0.6430 -0.4325  0.2151
 3064TIP3    H2 9157   0.360   4.869   5.798 -0.9247 -2.9340 -0.3503
 3065TIP3   OH2 9158   0.212   0.525   4.789  0.1924 -0.3931  0.0035
 3065TIP3    H1 9159   0.143   0.500   4.850  0.9812 -0.8944  0.7140
 3065TIP3    H2 9160   0.169   0.529   4.703 -1.4141  2.3348  0.8152
 3066TIP3   OH2 9161   1.073   5.499   0.364  0.1419  0.3770  0.0441
 3066TIP3    H1 9162   1.107   5.541   0.444  0.8382 -0.0241 -0.0341
 3066TIP3    H2 9163   1.009   5.436   0.396 -0.0828  0.6976  0.2385
 3067TIP3   OH2 9164   3.204   4.944   2.003  0.0199  0.5236  0.2899
 3067TIP3    H1 9165   3.163   5.030   2.012  1.7137  1.5427 -1.1954
 3067TIP3    H2 9166   3.166   4.907   1.923 -0.3102  0.0976  0.6362
 3068TIP3   OH2 9167   6.285   0.353   5.237 -0.3613 -0.2839  0.6179
 3068TIP3    H1 9168   6.295   0.282   5.300 -0.3062 -1.5204 -0.7418
 3068TIP3    H2 9169   6.365   0.405   5.247 -0.3764 -0.4276  1.5935
 3069TIP3   OH2 9170   6.065   4.113   5.445 -0.0295 -0.4415  0.0902
 3069TIP3    H1 9171   6.106   4.125   5.359 -2.8966  0.8005 -1.2345
 3069TIP3    H2 9172   6.030   4.024   5.443 -0.4524 -0.2727 -0.2293
 3070TIP3   OH2 9173   4.560   3.135   2.209 -0.2150 -0.1998  0.1436
 3070TIP3    H1 9174   4.600   3.112   2.125 -0.1647 -0.7986  0.3235
 3070TIP3    H2 9175   4.525   3.052   2.242  0.2001 -0.0723  0.9371
 3071TIP3   OH2 9176   6.344   5.516   5.249  0.0999  0.2661 -0.1844
 3071TIP3    H1 9177   6.386   5.529   5.334  0.0558  1.9740 -0.3757
 3071TIP3    H2 9178   6.258   5.557   5.259  0.4824  1.4346 -1.3341
 3072TIP3   OH2 9179   2.522   3.349   1.229  0.5703 -0.0432  0.0923
 3072TIP3    H1 9180   2.542   3.259   1.255  0.1548 -0.0286  0.4760
 3072TIP3    H2 9181   2.522   3.398   1.311  0.4068  0.2333 -0.0706
 3073TIP3   OH2 9182   4.548   0.689   5.343 -0.3410 -0.3253 -0.1965
 3073TIP3    H1 9183   4.551   0.754   5.273  0.1833 -1.5285 -1.3398
 3073TIP3    H2 9184   4.481   0.626   5.315 -1.1532 -0.0713  1.1008
 3074TIP3   OH2 9185   4.927   1.078   2.712 -0.4042  0.3279  0.7464
 3074TIP3    H1 9186   4.868   1.142   2.673 -0.4892 -0.6191 -0.7709
 3074TIP3    H2 9187   4.908   0.997   2.665  2.6469  0.1695 -0.4163
 3075TIP3   OH2 9188   4.303   4.030   2.751  0.0639 -0.2252 -0.3118
 3075TIP3    H1 9189   4.304   3.940   2.783  2.0687 -0.0803  0.1798
 3075TIP3    H2 9190   4.225   4.035   2.697 -1.0216 -1.7650  1.0075
 3076TIP3   OH2 9191   6.047   5.433   1.475 -0.7141  0.5156  0.2092
 3076TIP3    H1 9192   5.993   5.443   1.396 -0.9471  0.9724  0.4218
 3076TIP3    H2 9193   6.033   5.514   1.524  0.2533  0.6850  0.2134
 3077TIP3   OH2 9194   2.286   3.651   5.651 -0.0470 -0.2122 -0.4363
 3077TIP3    H1 9195   2.302   3.638   5.744  0.0453 -0.6101 -0.5057
 3077TIP3    H2 9196   2.235   3.733   5.646  1.1799  0.5918 -0.1524
 3078TIP3   OH2 9197   0.166   6.685   3.378 -0.2874  0.5394 -0.2985
 3078TIP3    H1 9198   0.126   6.660   3.295 -1.0822  0.3829  0.1231
 3078TIP3    H2 9199   0.142   6.614   3.438  2.7666 -0.9654 -0.6084
 3079TIP3   OH2 9200   7.113   6.594   4.975 -0.3885  0.6658 -0.0629
 3079TIP3    H1 9201   7.080   6.682   4.995 -1.2809  0.2174  0.4905
 3079TIP3    H2 9202   7.095   6.543   5.054 -0.2413 -0.1207 -0.5256
 3080TIP3   OH2 9203   6.346   0.755   5.186 -0.1149  0.3596  0.3497
 3080TIP3    H1 9204   6.288   0.755   5.110 -1.0829  0.5815  1.0464
 3080TIP3    H2 9205   6.399   0.677   5.177 -1.1793 -0.3685  0.1333
 3081TIP3   OH2 9206   3.339   5.827   5.605 -0.6145  0.1593  0.0999
 3081TIP3    H1 9207   3.327   5.777   5.686  0.6157 -1.1319 -0.4739
 3081TIP3    H2 9208   3.304   5.770   5.536  0.3755  0.2751 -0.5134
 3082TIP3   OH2 9209   2.673   5.136   5.815  0.4754 -0.6105  0.3656
 3082TIP3    H1 9210   2.695   5.052   5.776  1.3613  0.1768 -0.8671
 3082TIP3    H2 9211   2.746   5.156   5.873  1.0561  0.0590 -0.5798
 3083TIP3   OH2 9212   1.177   0.871   2.415 -0.0333  0.3370 -0.4015
 3083TIP3    H1 9213   1.143   0.802   2.472 -1.0389  2.1681  1.3272
 3083TIP3    H2 9214   1.258   0.899   2.457  0.0962  0.5913 -0.8143
 3084TIP3   OH2 9215   5.775   4.149   2.280  0.8058  0.1413 -0.0735
 3084TIP3    H1 9216   5.821   4.065   2.288 -0.1130 -0.3227  0.4152
 3084TIP3    H2 9217   5.748   4.170   2.369 -1.1468 -0.2925 -0.5279
 3085TIP3   OH2 9218   1.756   2.280   2.837 -0.1586 -0.1173 -0.3955
 3085TIP3    H1 9219   1.789   2.330   2.912 -0.5649 -1.2643  0.5659
 3085TIP3    H2 9220   1.709   2.345   2.785  0.9453  0.9005 -0.1865
 3086TIP3   OH2 9221   0.453   3.925   2.691  0.5065  0.0646  0.7376
 3086TIP3    H1 9222   0.453   4.017   2.664 -2.5973  0.1014  0.4936
 3086TIP3    H2 9223   0.449   3.877   2.609 -1.1829 -0.0939  0.8633
 3087TIP3   OH2 9224   6.195   5.153   5.337 -0.2260 -0.7440  0.0303
 3087TIP3    H1 9225   6.196   5.057   5.333 -1.1614 -0.7410 -0.9319
 3087TIP3    H2 9226   6.237   5.180   5.256  0.6245 -0.3182  0.6025
 3088TIP3   OH2 9227   3.790   5.006   1.087  0.0383  0.1946 -0.3181
 3088TIP3    H1 9228   3.728   4.936   1.065  2.0426 -1.9502  0.4030
 3088TIP3    H2 9229   3.791   5.062   1.010 -0.2429 -1.6912 -1.7834
 3089TIP3   OH2 9230   5.456   4.934   3.810 -0.2791 -0.3512  0.2293
 3089TIP3    H1 9231   5.440   4.942   3.716 -1.3034  1.4552  0.5312
 3089TIP3    H2 9232   5.422   5.015   3.848 -0.2553 -1.2161  2.2175
 3090TIP3   OH2 9233   3.666   4.370   3.600 -0.1727  0.2753  0.1554
 3090TIP3    H1 9234   3.631   4.303   3.660 -4.4584 -0.2204 -2.4305
 3090TIP3    H2 9235   3.618   4.449   3.623  0.1073  0.7580 -0.8968
 3091TIP3   OH2 9236   6.732   4.214   5.281  0.2805  0.5665 -0.3271
 3091TIP3    H1 9237   6.787   4.169   5.216 -0.6131 -0.8967 -0.1036
 3091TIP3    H2 9238   6.790   4.227   5.356 -0.0747 -2.5993  0.6037
 3092TIP3   OH2 9239   6.903   1.463   4.879 -0.3042  0.1255 -0.3690
 3092TIP3    H1 9240   6.870   1.543   4.837 -0.7160 -0.1474 -0.5692
 3092TIP3    H2 9241   6.876   1.471   4.971  0.4307  0.6315 -0.1839
 3093TIP3   OH2 9242   6.393   4.220   1.858 -0.4243 -0.0029 -0.6227
 3093TIP3    H1 9243   6.326   4.267   1.908 -0.8110 -0.6291 -0.5461
 3093TIP3    H2 9244   6.474   4.235   1.906 -0.4663  0.9288 -0.8266
 3094TIP3   OH2 9245   4.653   2.202   2.801  0.4561  0.2053  0.4487
 3094TIP3    H1 9246   4.735   2.245   2.824 -0.4950  1.4661  1.6562
 3094TIP3    H2 9247   4.645   2.215   2.707  0.9827  1.2698  0.5343
 3095TIP3   OH2 9248   5.618   6.235   1.185  0.8588  0.7728  0.2188
 3095TIP3    H1 9249   5.606   6.218   1.279 -0.4529  1.6746  0.2478
 3095TIP3    H2 9250   5.571   6.317   1.170  0.8095  0.4873 -1.2800
 3096TIP3   OH2 9251   6.542   2.316   2.806  0.0397 -0.0507  0.2822
 3096TIP3    H1 9252   6.455   2.349   2.787 -0.0804 -0.2081  0.5520
 3096TIP3    H2 9253   6.529   2.247   2.871  0.3640 -0.0645  0.3394
 3097TIP3   OH2 9254   1.837   6.777   4.563 -0.2107 -0.5790  0.0471
 3097TIP3    H1 9255   1.840   6.834   4.641 -1.6658 -0.5084  0.0872
 3097TIP3    H2 9256   1.899   6.707   4.582  1.5257  0.9022  0.0611
 3098TIP3   OH2 9257   3.417   5.096   2.919  0.0850  0.1421  0.2809
 3098TIP3    H1 9258   3.410   5.190   2.933  0.5841  0.3770 -0.8893
 3098TIP3    H2 9259   3.333   5.061   2.948 -0.6722  1.1445 -0.6351
 3099TIP3   OH2 9260   5.474   0.274   0.563 -0.0549 -0.6402  0.1260
 3099TIP3    H1 9261   5.429   0.344   0.516  0.6188 -0.2524  0.0442
 3099TIP3    H2 9262   5.409   0.240   0.624 -0.2881  0.3071  0.4223
 3100TIP3   OH2 9263   0.785   4.638   5.588  0.2417  0.2452 -0.0056
 3100TIP3    H1 9264   0.821   4.686   5.663 -1.5401  0.6216  0.6774
 3100TIP3    H2 9265   0.787   4.700   5.516 -1.7886  1.3608  0.8029
 3101TIP3   OH2 9266   6.085   3.005   1.497  0.0841  0.2265  0.0429
 3101TIP3    H1 9267   6.177   2.989   1.514 -0.2716 -1.7299  0.3629
 3101TIP3    H2 9268   6.076   2.999   1.402  0.0566 -1.2027  0.1105
 3102TIP3   OH2 9269   5.142   6.239   1.263  0.5494 -0.0042  0.6319
 3102TIP3    H1 9270   5.081   6.235   1.336 -0.0656  2.2028  0.2940
 3102TIP3    H2 9271   5.117   6.318   1.215  1.8351 -0.6280 -1.1731
 3103TIP3   OH2 9272   6.820   6.429   2.512  0.0448 -0.6805 -0.0784
 3103TIP3    H1 9273   6.843   6.336   2.507 -1.7645 -1.2608  1.3213
 3103TIP3    H2 9274   6.840   6.453   2.602 -1.2565 -0.2415  0.1153
 3104TIP3   OH2 9275   6.101   0.605   2.102 -0.3258 -0.5039  0.3075
 3104TIP3    H1 9276   6.027   0.664   2.114 -1.2449 -1.5129 -0.1933
 3104TIP3    H2 9277   6.176   0.652   2.139 -1.1475  0.6766  0.5244
 3105TIP3   OH2 9278   6.383   5.271   4.734 -0.0150 -0.1340 -0.0043
 3105TIP3    H1 9279   6.380   5.214   4.657 -1.8397  0.8070 -0.6921
 3105TIP3    H2 9280   6.296   5.310   4.738 -0.1331 -0.5034  2.8415
 3106TIP3   OH2 9281   2.851   6.166   5.176  0.9611  0.0237 -0.0711
 3106TIP3    H1 9282   2.912   6.140   5.246  2.1626  3.3660  0.2969
 3106TIP3    H2 9283   2.781   6.213   5.222 -0.6601 -1.5808 -0.7664
 3107TIP3   OH2 9284   2.310   1.179   3.895 -0.0901  0.2353  0.2291
 3107TIP3    H1 9285   2.379   1.242   3.916  1.2230 -0.1512 -2.4852
 3107TIP3    H2 9286   2.355   1.108   3.848 -2.2061 -0.4271 -0.9503
 3108TIP3   OH2 9287   5.084   4.867   0.353  0.5443  0.9584 -0.3323
 3108TIP3    H1 9288   5.050   4.810   0.283 -0.7808 -0.0742  1.0755
 3108TIP3    H2 9289   5.175   4.838   0.365  0.0753 -0.4728 -0.0644
 3109TIP3   OH2 9290   6.780   6.344   5.444  0.0618 -0.1025 -0.5957
 3109TIP3    H1 9291   6.775   6.301   5.529  1.0471  0.7701 -0.0821
 3109TIP3    H2 9292   6.694   6.384   5.432  0.2471  0.6436  0.4681
 3110TIP3   OH2 9293   2.837   3.370   4.185 -0.6633 -0.5343 -0.0954
 3110TIP3    H1 9294   2.811   3.280   4.205 -0.5889 -0.5067  0.1278
 3110TIP3    H2 9295   2.901   3.361   4.114 -0.0526 -0.7182  0.4597
 3111TIP3   OH2 9296   0.160   4.582   4.762 -0.7157  0.0408 -0.3970
 3111TIP3    H1 9297   0.186   4.623   4.845  0.3811 -0.3692 -0.5193
 3111TIP3    H2 9298   0.120   4.653   4.712  0.9827  0.9748 -0.5345
 3112TIP3   OH2 9299   3.184   4.600   1.330  0.3231 -0.1182 -0.5011
 3112TIP3    H1 9300   3.201   4.540   1.403  0.3347  0.0539 -0.3616
 3112TIP3    H2 9301   3.172   4.685   1.372 -0.8484 -0.2231 -0.5979
 3113TIP3   OH2 9302   7.200   2.627   2.795 -0.1987  0.2470 -0.3388
 3113TIP3    H1 9303   7.139   2.593   2.729 -1.0134 -1.4174  1.1807
 3113TIP3    H2 9304   7.144   2.655   2.867  0.5680  3.3866 -0.7948
 3114TIP3   OH2 9305   2.798   5.779   2.693  0.3692  0.0036  0.0580
 3114TIP3    H1 9306   2.723   5.729   2.661  0.4050 -1.1556  1.6364
 3114TIP3    H2 9307   2.863   5.773   2.623 -0.8343  0.7102 -1.1793
 3115TIP3   OH2 9308   5.510   5.490   1.047 -0.1624 -0.5287  0.4995
 3115TIP3    H1 9309   5.445   5.430   1.012  0.0985 -0.0737 -0.8218
 3115TIP3    H2 9310   5.470   5.577   1.035  1.3487 -0.0823 -2.0006
 3116TIP3   OH2 9311   6.609   5.261   2.857  0.1478  0.6294  0.2026
 3116TIP3    H1 9312   6.666   5.230   2.786  0.9914  0.2084  1.0359
 3116TIP3    H2 9313   6.614   5.357   2.851  0.7532  0.5963  0.1031
 3117TIP3   OH2 9314   1.871   6.674   2.754 -0.6454  0.0825  0.2794
 3117TIP3    H1 9315   1.886   6.767   2.741  2.9737 -0.2119  1.2136
 3117TIP3    H2 9316   1.874   6.662   2.849 -2.9751 -0.8262  0.3145
 3118TIP3   OH2 9317   0.001   3.688   0.552  0.2954  0.2494  0.9706
 3118TIP3    H1 9318  -0.044   3.604   0.545  0.5482 -0.0129  2.2090
 3118TIP3    H2 9319   0.091   3.665   0.575 -0.0111  0.8727  2.9971
 3119TIP3   OH2 9320   2.925   0.442   2.940  0.1687 -0.4464 -0.0180
 3119TIP3    H1 9321   2.844   0.491   2.953 -0.8762 -1.8271 -1.0934
 3119TIP3    H2 9322   2.994   0.509   2.937 -1.0590  0.8385 -0.2530
 3120TIP3   OH2 9323   6.291   2.843  -0.004  0.1397  0.2248 -0.3572
 3120TIP3    H1 9324   6.320   2.771   0.053 -1.2025  0.5585  0.8140
 3120TIP3    H2 9325   6.353   2.914   0.014  0.1212  0.1049  0.2131
 3121TIP3   OH2 9326   6.842   1.987   5.078 -0.2690 -0.1576 -0.0846
 3121TIP3    H1 9327   6.859   1.896   5.103 -0.6090 -0.0492  0.5910
 3121TIP3    H2 9328   6.857   2.037   5.159  2.1421  0.6971 -0.9731
 3122TIP3   OH2 9329   1.000   2.228   1.387  0.0225 -0.3345  0.4332
 3122TIP3    H1 9330   1.075   2.251   1.332  0.5575 -1.1120  0.8321
 3122TIP3    H2 9331   0.958   2.312   1.406  1.0256  0.1567  0.5511
 3123TIP3   OH2 9332   5.016   3.003   0.902  0.0452  0.3610 -0.0535
 3123TIP3    H1 9333   5.039   3.045   0.819  0.8537 -1.4561 -0.7926
 3123TIP3    H2 9334   5.031   3.071   0.968 -1.7442  2.2400 -1.4329
 3124TIP3   OH2 9335   1.831   5.565   2.018  0.1595 -0.6473  0.4769
 3124TIP3    H1 9336   1.874   5.488   2.054  0.2340 -1.2653 -0.8869
 3124TIP3    H2 9337   1.739   5.540   2.011  0.1376 -0.5108  0.2878
 3125TIP3   OH2 9338   2.807   2.892   5.386  0.0486 -0.1624 -0.2328
 3125TIP3    H1 9339   2.827   2.807   5.425 -0.4187 -0.1568  0.0180
 3125TIP3    H2 9340   2.882   2.947   5.409 -0.3426 -0.0809  0.8746
 3126TIP3   OH2 9341   0.207   6.494   5.148 -0.3384  0.0048 -0.1780
 3126TIP3    H1 9342   0.140   6.511   5.214 -1.3963  1.0256 -1.4608
 3126TIP3    H2 9343   0.213   6.398   5.145  0.4017 -0.0648  2.0045
 3127TIP3   OH2 9344   4.159   6.245   1.200  0.4318 -0.0032  0.2125
 3127TIP3    H1 9345   4.130   6.161   1.165 -0.9270 -1.0029  3.3447
 3127TIP3    H2 9346   4.125   6.310   1.138  0.3921 -1.6683 -1.5962
 3128TIP3   OH2 9347   6.189   3.280   2.021  0.5054 -0.2543  0.1541
 3128TIP3    H1 9348   6.281   3.303   2.035  0.3345  1.0090 -0.6988
 3128TIP3    H2 9349   6.192   3.190   1.987  1.4802  0.0835 -0.7023
 3129TIP3   OH2 9350   5.396   3.068   0.564 -0.7988 -0.4780  0.1600
 3129TIP3    H1 9351   5.329   3.122   0.522 -0.0560  0.6596  0.3870
 3129TIP3    H2 9352   5.438   3.126   0.627  0.2888 -1.2104  0.1472
 3130TIP3   OH2 9353   2.860   3.161   4.407  0.2199  0.1796 -0.3961
 3130TIP3    H1 9354   2.902   3.079   4.434  0.5912  0.1811 -0.9661
 3130TIP3    H2 9355   2.812   3.138   4.328 -0.5484  0.2736  0.0299
 3131TIP3   OH2 9356   2.100   3.839   0.727  0.6392  0.2340 -0.2011
 3131TIP3    H1 9357   2.158   3.858   0.653  1.8953  1.0636  0.9298
 3131TIP3    H2 9358   2.012   3.851   0.693  1.1030 -0.8824 -1.9406
 3132TIP3   OH2 9359   6.733   2.731   5.656  0.0146 -0.2507 -0.1395
 3132TIP3    H1 9360   6.690   2.687   5.729  1.0318 -0.9797  0.0460
 3132TIP3    H2 9361   6.791   2.795   5.697 -0.4394  0.3059 -0.3614
 3133TIP3   OH2 9362   6.296   5.762   1.555  0.5403  0.1456 -0.4498
 3133TIP3    H1 9363   6.352   5.688   1.579  1.0517  0.4852 -0.5831
 3133TIP3    H2 9364   6.327   5.835   1.609 -0.6835 -0.0024  0.4942
 3134TIP3   OH2 9365   5.462   0.490   5.693  0.2773  0.8705  0.0796
 3134TIP3    H1 9366   5.526   0.503   5.763 -0.7786 -1.0858  1.4942
 3134TIP3    H2 9367   5.398   0.559   5.707  0.8548  1.4164  0.0870
 3135TIP3   OH2 9368   4.340   4.973   5.591 -0.6015  0.6327  0.3453
 3135TIP3    H1 9369   4.356   4.895   5.538  0.5593  0.9213  0.2321
 3135TIP3    H2 9370   4.420   4.983   5.644 -1.4778  0.7032  1.7024
 3136TIP3   OH2 9371   0.995   6.493   0.237 -0.0261  0.0601 -0.2230
 3136TIP3    H1 9372   0.907   6.509   0.272  0.6859  1.6957  1.0060
 3136TIP3    H2 9373   1.037   6.437   0.303  1.1907  2.8255  1.5483
 3137TIP3   OH2 9374   1.068   1.686   3.270 -0.4932  0.1575  0.0223
 3137TIP3    H1 9375   0.973   1.692   3.267 -0.3874  2.0471 -1.4678
 3137TIP3    H2 9376   1.091   1.722   3.356 -1.0627  1.8139 -0.4742
 3138TIP3   OH2 9377   5.265   0.647   3.411  0.0812  0.2445 -0.8459
 3138TIP3    H1 9378   5.298   0.588   3.344  0.2995  0.7255 -1.1732
 3138TIP3    H2 9379   5.340   0.664   3.468 -0.5063 -1.4726  0.5242
 3139TIP3   OH2 9380   5.631   1.681   2.606 -0.6784 -0.1312 -0.4356
 3139TIP3    H1 9381   5.715   1.721   2.629  0.0957 -0.8505 -1.8934
 3139TIP3    H2 9382   5.583   1.751   2.562  0.4830 -0.5756 -2.5449
 3140TIP3   OH2 9383   7.048   1.981   4.293 -0.2385 -0.1022  0.5320
 3140TIP3    H1 9384   6.965   2.010   4.255 -0.0453 -0.1724  0.0558
 3140TIP3    H2 9385   7.082   2.059   4.338  1.8943  1.5789 -3.4567
 3141TIP3   OH2 9386   5.680   1.929   1.133  0.2490 -0.5689  0.2580
 3141TIP3    H1 9387   5.636   2.010   1.108  1.6056  0.4918  1.1491
 3141TIP3    H2 9388   5.674   1.927   1.229  0.5048 -1.3643  0.2647
 3142TIP3   OH2 9389   1.255   3.218   4.653  0.1662  0.6288 -0.1323
 3142TIP3    H1 9390   1.228   3.239   4.564 -0.2503  0.7419  0.0192
 3142TIP3    H2 9391   1.242   3.300   4.702  3.1006  1.4720 -0.5594
 3143TIP3   OH2 9392   4.410   3.003   3.393  0.0011 -0.2621  0.0908
 3143TIP3    H1 9393   4.473   2.975   3.460  0.8140  2.0398  0.3698
 3143TIP3    H2 9394   4.433   2.951   3.316  1.3937 -0.4181  0.5807
 3144TIP3   OH2 9395   7.052   5.994   3.783  0.5059  0.4947 -0.6862
 3144TIP3    H1 9396   7.127   5.947   3.747  0.0895 -0.1689 -0.7008
 3144TIP3    H2 9397   6.980   5.932   3.778  0.2633  0.6520  0.5884
 3145TIP3   OH2 9398   5.910   6.074   0.409 -0.3487 -0.3882 -0.0282
 3145TIP3    H1 9399   5.987   6.026   0.379  0.6547  2.0370 -1.7161
 3145TIP3    H2 9400   5.836   6.018   0.386  0.7493 -1.2739 -1.6118
 3146TIP3   OH2 9401   0.350   1.256   2.813  1.4295 -0.2358  0.0997
 3146TIP3    H1 9402   0.276   1.275   2.871  0.9949 -0.8858 -0.2241
 3146TIP3    H2 9403   0.311   1.250   2.726  2.3025  2.3976 -0.5658
 3147TIP3   OH2 9404   2.363   6.000   3.668  0.3190  0.2590  0.1027
 3147TIP3    H1 9405   2.325   5.981   3.582 -0.9342 -1.3378  0.9585
 3147TIP3    H2 9406   2.455   5.976   3.659  0.2989  0.5053 -0.9023
 3148TIP3   OH2 9407   0.537   5.867   1.367  0.0631  0.0599 -0.6116
 3148TIP3    H1 9408   0.442   5.864   1.379  0.1754  0.0975  0.3123
 3148TIP3    H2 9409   0.548   5.900   1.277 -0.7930 -0.1645 -0.8132
 3149TIP3   OH2 9410   6.246   1.511   5.648  0.0038  0.3903 -0.6696
 3149TIP3    H1 9411   6.266   1.603   5.667 -2.1590  0.8719 -0.4129
 3149TIP3    H2 9412   6.323   1.479   5.601  1.4688  1.8821  0.5466
 3150TIP3   OH2 9413   5.471   1.418   5.325  0.1444 -0.1927 -0.1929
 3150TIP3    H1 9414   5.412   1.364   5.272 -2.9045  3.4417 -0.8642
 3150TIP3    H2 9415   5.548   1.431   5.269  0.0985 -2.1169 -0.7722
 3151TIP3   OH2 9416   4.150   4.047   3.596 -0.1162  0.0914  0.3683
 3151TIP3    H1 9417   4.156   4.110   3.523 -0.9123  1.4726  1.4323
 3151TIP3    H2 9418   4.188   3.967   3.562  2.4403  1.5761 -0.5738
 3152TIP3   OH2 9419   5.410   0.721   2.700  0.2203 -0.1824  0.1847
 3152TIP3    H1 9420   5.453   0.793   2.654 -0.3151 -0.0363 -0.1015
 3152TIP3    H2 9421   5.320   0.752   2.713  0.1513 -0.5499  0.6166
 3153TIP3   OH2 9422   2.142   3.358   2.284  0.1135  0.0555  0.4767
 3153TIP3    H1 9423   2.183   3.304   2.216  0.6490  1.0959 -0.0406
 3153TIP3    H2 9424   2.054   3.321   2.293  0.5528 -1.0822  0.3427
 3154TIP3   OH2 9425   1.880   3.670   5.642 -0.3247 -0.0062 -0.1330
 3154TIP3    H1 9426   1.921   3.590   5.674 -2.4776 -1.4740 -0.8118
 3154TIP3    H2 9427   1.898   3.672   5.549 -0.7336  0.0036 -0.2144
 3155TIP3   OH2 9428   0.205   3.205   3.077 -0.5440 -0.0862 -0.5190
 3155TIP3    H1 9429   0.270   3.157   3.025  0.3696  1.1846 -0.5846
 3155TIP3    H2 9430   0.148   3.246   3.012 -1.5781 -1.3742 -0.4605
 3156TIP3   OH2 9431   3.715   1.744   3.720 -0.4823  0.2215  0.7603
 3156TIP3    H1 9432   3.662   1.742   3.640 -0.0233 -0.2619  0.4589
 3156TIP3    H2 9433   3.652   1.758   3.790 -1.0535 -0.6165  0.4401
 3157TIP3   OH2 9434   7.039   1.542   3.391 -0.2561 -0.0648 -0.1611
 3157TIP3    H1 9435   6.972   1.512   3.330 -0.6286 -0.2803  0.3527
 3157TIP3    H2 9436   7.031   1.637   3.391 -0.9685 -0.1223  0.3549
 3158TIP3   OH2 9437   0.282   1.689   0.359 -0.6132 -0.6610  0.1051
 3158TIP3    H1 9438   0.334   1.747   0.415 -1.4798 -0.5153  0.7890
 3158TIP3    H2 9439   0.265   1.612   0.414 -1.1995 -0.6595 -0.0619
 3159TIP3   OH2 9440   0.881   6.289   0.507 -0.6019 -0.1678 -0.3385
 3159TIP3    H1 9441   0.823   6.354   0.468 -0.8747 -0.8343 -1.0797
 3159TIP3    H2 9442   0.969   6.317   0.480 -0.7696 -0.4867 -1.2685
 3160TIP3   OH2 9443   0.860   3.057   1.404 -0.2151  0.2459  0.0711
 3160TIP3    H1 9444   0.866   3.152   1.398  0.9579  0.1767 -0.3283
 3160TIP3    H2 9445   0.940   3.026   1.360 -0.3514 -0.9051  0.5989
 3161TIP3   OH2 9446   0.654   4.643   2.153 -0.4668  0.3593 -0.6455
 3161TIP3    H1 9447   0.740   4.647   2.193 -0.0884 -0.9851 -1.2570
 3161TIP3    H2 9448   0.667   4.679   2.065 -1.0034  2.0550 -0.0729
 3162TIP3   OH2 9449   4.970   2.895   1.196  0.3321 -0.0781  0.0951
 3162TIP3    H1 9450   5.061   2.917   1.178 -0.2839  2.8365 -0.0039
 3162TIP3    H2 9451   4.931   2.880   1.110  0.6576 -1.1437  0.1257
 3163TIP3   OH2 9452   7.222   2.528   1.776  0.5043 -0.2398 -0.1322
 3163TIP3    H1 9453   7.151   2.468   1.798 -0.3581  0.6907 -0.3335
 3163TIP3    H2 9454   7.239   2.513   1.683  0.3968 -0.2781 -0.1454
 3164TIP3   OH2 9455   0.176   2.852   2.965 -0.4606 -0.1378 -0.2054
 3164TIP3    H1 9456   0.106   2.899   3.010 -0.3808  0.3826 -0.6028
 3164TIP3    H2 9457   0.181   2.894   2.879 -1.2343 -1.7109 -1.0647
 3165TIP3   OH2 9458   5.410   6.406   1.389 -0.5950 -0.5204 -0.2283
 3165TIP3    H1 9459   5.383   6.482   1.338 -0.3249 -1.4852 -1.8812
 3165TIP3    H2 9460   5.505   6.414   1.395 -0.2771 -1.8210 -2.3743
 3166TIP3   OH2 9461   6.333   2.741   2.778 -0.9038 -0.0007 -0.8993
 3166TIP3    H1 9462   6.400   2.680   2.748 -1.2695 -0.2087 -1.2990
 3166TIP3    H2 9463   6.369   2.827   2.760  0.3400 -0.0231  1.1876
 3167TIP3   OH2 9464   6.358   1.364   2.215 -0.0869  0.1588  0.0974
 3167TIP3    H1 9465   6.391   1.358   2.304 -0.9677  1.0432  0.4923
 3167TIP3    H2 9466   6.364   1.456   2.192  0.5598 -0.1191 -0.9384
 3168TIP3   OH2 9467   1.958   5.019   1.132  0.1930  0.3165 -0.4243
 3168TIP3    H1 9468   1.895   4.965   1.180  1.0580 -0.7077 -0.3941
 3168TIP3    H2 9469   1.914   5.039   1.049 -2.2076  3.8995  1.4556
 3169TIP3   OH2 9470   4.545   6.349   0.759  0.0987  0.3682  0.0287
 3169TIP3    H1 9471   4.627   6.349   0.709  1.0250 -0.7053  1.4947
 3169TIP3    H2 9472   4.496   6.423   0.722  2.0466  1.5662 -0.3411
 3170TIP3   OH2 9473   4.577   1.149   3.916  0.5127  0.1281 -0.9341
 3170TIP3    H1 9474   4.649   1.099   3.954 -0.4144  0.7420  1.8636
 3170TIP3    H2 9475   4.503   1.088   3.916 -0.0944  0.8111  0.5768
 3171TIP3   OH2 9476   6.657   4.925   5.107 -0.1337 -0.3476 -0.3076
 3171TIP3    H1 9477   6.684   4.857   5.044  2.4374  1.2673 -1.1281
 3171TIP3    H2 9478   6.732   4.934   5.165 -1.6936 -0.3726  1.8053
 3172TIP3   OH2 9479   5.867   1.954   3.457 -0.3323  0.0123 -0.1328
 3172TIP3    H1 9480   5.859   2.047   3.476 -2.2834 -0.3474  1.0359
 3172TIP3    H2 9481   5.810   1.940   3.382 -1.6041 -0.5554  0.9111
 3173TIP3   OH2 9482   4.873   6.486   3.970 -0.1615  0.1196  0.1350
 3173TIP3    H1 9483   4.795   6.534   3.945  0.3289  0.5576 -0.5934
 3173TIP3    H2 9484   4.863   6.400   3.930  0.1116  0.4547 -0.6638
 3174TIP3   OH2 9485   0.358   5.176  -0.013 -0.6309 -0.1192  0.3063
 3174TIP3    H1 9486   0.380   5.268   0.003 -0.7868 -0.0346  0.0384
 3174TIP3    H2 9487   0.280   5.161   0.039 -2.2441  0.6684 -1.7175
 3175TIP3   OH2 9488   0.036   3.361   2.103 -0.7551  0.1233  0.0282
 3175TIP3    H1 9489   0.008   3.270   2.110  1.2825 -0.5537 -0.2414
 3175TIP3    H2 9490   0.071   3.383   2.190 -0.7293  0.4833 -0.0698
 3176TIP3   OH2 9491   1.979   3.696   1.996  0.5427 -0.1413 -0.3800
 3176TIP3    H1 9492   2.056   3.638   1.999  0.2450 -0.5021  1.8747
 3176TIP3    H2 9493   1.985   3.747   2.076 -0.4448  1.3875 -1.2322
 3177TIP3   OH2 9494   3.932   6.735   1.020  0.5387 -0.0563 -0.2390
 3177TIP3    H1 9495   3.888   6.801   1.074  0.8557 -0.1247  0.1105
 3177TIP3    H2 9496   3.865   6.704   0.960  0.4445  0.7750 -0.5832
 3178TIP3   OH2 9497   4.945   1.773   4.148 -0.4995  0.4966  0.3030
 3178TIP3    H1 9498   4.992   1.695   4.178 -0.8269 -0.0173 -0.4855
 3178TIP3    H2 9499   4.919   1.752   4.059 -1.8900  0.9150  0.5887
 3179TIP3   OH2 9500   2.386   4.091   5.113 -0.4746 -0.0739  0.0879
 3179TIP3    H1 9501   2.312   4.077   5.053 -0.9654 -0.0147  0.6709
 3179TIP3    H2 9502   2.370   4.029   5.184 -0.7688  0.9737  0.9474
 3180TIP3   OH2 9503   6.175   4.955   4.555  0.2161 -0.8198 -0.0042
 3180TIP3    H1 9504   6.132   4.948   4.470  1.4838 -1.5191 -0.6095
 3180TIP3    H2 9505   6.237   5.027   4.545 -1.0346  0.4605  0.9946
 3181TIP3   OH2 9506   0.881   6.735   3.448 -0.1198  0.3851  0.6681
 3181TIP3    H1 9507   0.884   6.787   3.529 -2.2096  1.1588  0.3150
 3181TIP3    H2 9508   0.796   6.757   3.410 -0.6561 -2.5643 -0.0123
 3182TIP3   OH2 9509   1.533   5.635   2.667 -0.4280 -0.4994 -0.2347
 3182TIP3    H1 9510   1.561   5.544   2.657  1.3904 -0.0148  0.0819
 3182TIP3    H2 9511   1.512   5.643   2.759 -0.5221 -0.5888 -0.2485
 3183TIP3   OH2 9512   4.979   5.750   5.617  0.2171  0.0821 -0.0439
 3183TIP3    H1 9513   5.063   5.724   5.656  0.5010  2.1735  0.9048
 3183TIP3    H2 9514   4.995   5.749   5.523  1.8909  2.0042  0.1429
 3184TIP3   OH2 9515   4.528   5.177   2.827 -0.1389  0.6033 -0.0147
 3184TIP3    H1 9516   4.550   5.233   2.901  0.3727  0.0890  0.2307
 3184TIP3    H2 9517   4.432   5.170   2.830 -0.0609 -0.6318  1.5346
 3185TIP3   OH2 9518   6.771   3.050   0.435 -0.0831  0.6748 -0.2516
 3185TIP3    H1 9519   6.677   3.057   0.419 -0.4846  0.0532  1.5029
 3185TIP3    H2 9520   6.786   2.956   0.448  0.4834  0.8951  0.8947
 3186TIP3   OH2 9521   2.906   3.953   0.490 -0.2467  0.4742 -0.1573
 3186TIP3    H1 9522   2.837   3.916   0.435 -1.0957  0.6823  0.7445
 3186TIP3    H2 9523   2.961   3.878   0.513 -1.5507 -0.1286  1.0844
 3187TIP3   OH2 9524   2.309   2.504   2.628 -0.2245  0.0474 -0.2190
 3187TIP3    H1 9525   2.277   2.414   2.617  1.4940 -0.5249 -0.9418
 3187TIP3    H2 9526   2.373   2.499   2.698  3.7532 -0.5202 -3.4810
 3188TIP3   OH2 9527   3.431   0.279   3.086  0.6906  0.4759 -0.0462
 3188TIP3    H1 9528   3.370   0.345   3.054  0.1533  0.5701  1.1245
 3188TIP3    H2 9529   3.502   0.328   3.127  1.1731  0.3436 -0.6836
 3189TIP3   OH2 9530   6.278   5.171   3.915 -0.1224 -0.2707 -0.3366
 3189TIP3    H1 9531   6.349   5.148   3.975 -0.8824 -0.1339  0.6431
 3189TIP3    H2 9532   6.284   5.266   3.907 -1.1451 -0.0501  1.0335
 3190TIP3   OH2 9533   1.526   1.240   0.796  0.1635 -0.1872  0.2895
 3190TIP3    H1 9534   1.549   1.189   0.719 -1.9445 -0.4352 -0.2271
 3190TIP3    H2 9535   1.586   1.315   0.794  3.0641 -2.3349  0.8646
 3191TIP3   OH2 9536   3.704   1.683   1.153  0.2646 -0.1827 -0.2255
 3191TIP3    H1 9537   3.765   1.750   1.184 -0.1600 -0.0362  0.3125
 3191TIP3    H2 9538   3.701   1.696   1.058  2.4889 -1.4094 -0.5296
 3192TIP3   OH2 9539   4.369   2.806   2.730  0.1561 -0.0207 -0.4688
 3192TIP3    H1 9540   4.357   2.834   2.639 -2.0352  0.7187  0.0007
 3192TIP3    H2 9541   4.292   2.754   2.750  0.8621 -0.6156  0.8294
 3193TIP3   OH2 9542   6.433   4.797   5.716 -0.9968  0.2772 -0.0594
 3193TIP3    H1 9543   6.383   4.773   5.794 -0.6482  0.1023  0.1123
 3193TIP3    H2 9544   6.371   4.846   5.662 -1.7667 -1.0682 -0.4504
 3194TIP3   OH2 9545   5.848   1.660   5.084 -0.1522 -0.0141 -0.0287
 3194TIP3    H1 9546   5.900   1.727   5.128  0.5884 -1.7847  1.9471
 3194TIP3    H2 9547   5.893   1.646   5.000  0.6934  0.7257  0.2855
 3195TIP3   OH2 9548   2.961   0.598   3.282  0.0816 -0.3767 -0.1885
 3195TIP3    H1 9549   2.936   0.523   3.227  1.4480 -1.0166  0.0149
 3195TIP3    H2 9550   3.023   0.562   3.345  0.6793  0.9087 -0.0104
 3196TIP3   OH2 9551   1.356   2.863   3.681  0.3101 -0.4185  0.0549
 3196TIP3    H1 9552   1.272   2.835   3.717  1.0921 -2.0637  0.6624
 3196TIP3    H2 9553   1.350   2.959   3.678 -0.7951 -0.3822  2.0408
 3197TIP3   OH2 9554   4.017   5.778   5.015  0.0662 -0.1353  0.5939
 3197TIP3    H1 9555   4.106   5.800   4.988 -0.1845 -0.4190 -0.5056
 3197TIP3    H2 9556   4.023   5.764   5.110  1.0800  0.3539  0.6131
 3198TIP3   OH2 9557   5.722   0.086   2.384  0.5004 -0.1895  0.5459
 3198TIP3    H1 9558   5.743   0.172   2.420  1.4998 -0.2248  0.0926
 3198TIP3    H2 9559   5.710   0.102   2.290 -0.0525 -0.4242  0.5755
 3199TIP3   OH2 9560   6.409   3.587   4.363  0.1950  0.0131  0.4674
 3199TIP3    H1 9561   6.461   3.646   4.309 -1.8687  1.8691  0.4045
 3199TIP3    H2 9562   6.408   3.628   4.449 -0.7438 -0.2588  0.5953
 3200TIP3   OH2 9563   6.092   0.385   3.928  0.0734  0.1317 -0.3115
 3200TIP3    H1 9564   6.021   0.407   3.868 -0.1357 -2.3138 -1.0763
 3200TIP3    H2 9565   6.172   0.394   3.876  0.0234 -0.3915 -0.4885
 3201TIP3   OH2 9566   0.682   5.488   1.570 -0.2443  0.7187  0.5075
 3201TIP3    H1 9567   0.733   5.565   1.546  0.4422 -0.0379 -0.5722
 3201TIP3    H2 9568   0.703   5.472   1.662  1.0838  0.7267  0.2264
 3202TIP3   OH2 9569   0.257   0.676   3.524 -0.2066  0.0158  0.6384
 3202TIP3    H1 9570   0.178   0.625   3.542 -0.8499  0.4541 -0.7533
 3202TIP3    H2 9571   0.232   0.734   3.452  0.3111  2.7405  2.4890
 3203TIP3   OH2 9572   3.421   3.467   3.644  0.3745  0.0714  0.6884
 3203TIP3    H1 9573   3.464   3.382   3.640 -2.6492 -1.5767 -0.4514
 3203TIP3    H2 9574   3.441   3.508   3.560  0.2804 -0.3815  0.4412
 3204TIP3   OH2 9575   4.796   6.000   3.738 -0.1500  0.1112  0.2964
 3204TIP3    H1 9576   4.766   5.982   3.649 -0.8645 -1.3986  0.8121
 3204TIP3    H2 9577   4.772   5.922   3.788  0.2847  0.9058  1.8121
 3205TIP3   OH2 9578   3.836   3.737   2.965  0.6255  0.5759  0.0308
 3205TIP3    H1 9579   3.883   3.710   2.886 -0.6694 -1.0537 -0.2551
 3205TIP3    H2 9580   3.808   3.827   2.948 -0.6493 -0.1380 -1.9114
 3206TIP3   OH2 9581   6.412   4.207   2.168  0.0552  0.1529  0.0617
 3206TIP3    H1 9582   6.320   4.223   2.148  0.1796 -0.7091 -1.3127
 3206TIP3    H2 9583   6.425   4.247   2.255 -2.0570 -1.2508  1.1038
 3207TIP3   OH2 9584   5.053   0.382   3.417  0.3864 -0.3810  0.0334
 3207TIP3    H1 9585   5.072   0.474   3.435  0.0220 -0.2788 -0.0981
 3207TIP3    H2 9586   4.959   0.374   3.430  0.3010 -0.5713 -0.6751
 3208TIP3   OH2 9587   5.775   0.919   0.801 -0.2882  0.0672  0.4909
 3208TIP3    H1 9588   5.713   0.899   0.730  0.8335 -1.7382 -0.0530
 3208TIP3    H2 9589   5.827   0.992   0.767 -1.2996  0.7921  0.4547
 3209TIP3   OH2 9590   4.818   1.933   1.095 -0.2649 -0.0763  0.0896
 3209TIP3    H1 9591   4.908   1.959   1.114 -0.5434  1.5759 -0.6646
 3209TIP3    H2 9592   4.772   1.944   1.178  0.0134  0.1530  0.2173
 3210TIP3   OH2 9593   2.951   1.214   1.618 -0.5708  0.1091 -0.3661
 3210TIP3    H1 9594   2.898   1.204   1.539 -0.9477  0.3518 -0.1444
 3210TIP3    H2 9595   2.936   1.134   1.668  0.4903 -0.5236 -1.0225
 3211TIP3   OH2 9596   2.434   3.257   3.478  0.2197 -0.6659  0.1433
 3211TIP3    H1 9597   2.369   3.326   3.466  0.9230  0.4363  2.1192
 3211TIP3    H2 9598   2.506   3.282   3.421  1.2300  1.3455  2.1608
 3212TIP3   OH2 9599   5.045   6.426   1.116 -0.2486 -0.1378  0.2522
 3212TIP3    H1 9600   4.998   6.400   1.037  1.2860  0.4161 -0.8925
 3212TIP3    H2 9601   5.005   6.509   1.142 -0.0281  0.2439 -0.6065
 3213TIP3   OH2 9602   1.500   2.557   0.072  0.0514  0.1013 -0.2891
 3213TIP3    H1 9603   1.530   2.474   0.035 -1.3192 -0.1625 -0.8775
 3213TIP3    H2 9604   1.425   2.534   0.126  1.6222  0.5675  2.2518
 3214TIP3   OH2 9605   5.029   4.201   2.819  0.2276  0.3868 -0.0425
 3214TIP3    H1 9606   4.959   4.265   2.808  0.8818  0.7900 -2.2538
 3214TIP3    H2 9607   5.099   4.250   2.862  0.8251  1.3161 -1.9554
 3215TIP3   OH2 9608   4.538   4.983   4.941 -0.0996  0.2246 -0.0423
 3215TIP3    H1 9609   4.533   4.892   4.911 -1.6488  0.4073 -0.4000
 3215TIP3    H2 9610   4.591   5.027   4.875 -0.1186 -0.2276 -0.3660
 3216TIP3   OH2 9611   5.944   5.010   2.614  0.0789  0.6938 -0.3758
 3216TIP3    H1 9612   5.942   4.967   2.529 -1.4737  0.5937 -0.3092
 3216TIP3    H2 9613   6.012   5.077   2.605  0.6761 -0.0127 -1.3344
 3217TIP3   OH2 9614   5.185   5.430   0.392 -0.0403  0.1038 -0.3057
 3217TIP3    H1 9615   5.259   5.490   0.386  0.8021 -0.8593  0.1662
 3217TIP3    H2 9616   5.209   5.369   0.461 -1.1104 -0.4701 -0.4190
 3218TIP3   OH2 9617   3.606   5.662   3.752  0.0799  0.0361 -0.2293
 3218TIP3    H1 9618   3.673   5.600   3.782  1.0155  1.5596  0.9923
 3218TIP3    H2 9619   3.652   5.716   3.687  0.1555  1.2535  0.7977
 3219TIP3   OH2 9620   7.127   4.631   3.316  0.4281 -0.2265  0.2697
 3219TIP3    H1 9621   7.214   4.606   3.349  0.8266  1.6136  0.7494
 3219TIP3    H2 9622   7.142   4.715   3.273 -1.2108  0.3643  0.8087
 3220TIP3   OH2 9623   2.171   4.892   5.855 -0.1426  0.1198  0.1276
 3220TIP3    H1 9624   2.172   4.796   5.860  0.5307  0.0479 -0.9734
 3220TIP3    H2 9625   2.210   4.912   5.770  0.8037  1.4086  0.8234
 3221TIP3   OH2 9626   2.795   6.408   4.524  0.3016  0.2538 -1.1250
 3221TIP3    H1 9627   2.879   6.362   4.525 -0.2990 -0.9276  1.3084
 3221TIP3    H2 9628   2.810   6.485   4.579 -0.1342  0.1660 -0.8792
 3222TIP3   OH2 9629   4.012   6.207   0.497  0.1613  0.4469 -0.1007
 3222TIP3    H1 9630   4.106   6.212   0.514 -0.0250 -1.1835  1.6929
 3222TIP3    H2 9631   3.982   6.133   0.549 -2.4149  1.9419  0.7038
 3223TIP3   OH2 9632   3.414   5.427   3.635  0.0698  0.7784  0.1055
 3223TIP3    H1 9633   3.502   5.439   3.598  0.2433  1.9317  0.8278
 3223TIP3    H2 9634   3.369   5.509   3.615 -0.7784  0.2884 -0.0477
 3224TIP3   OH2 9635   3.413   1.474   3.885 -0.0403  0.3089  0.6418
 3224TIP3    H1 9636   3.417   1.553   3.939  0.7380  0.8775 -0.2214
 3224TIP3    H2 9637   3.502   1.438   3.887  0.4445  1.2272 -1.5006
 3225TIP3   OH2 9638   5.083   1.357   0.598  0.0545 -0.1742 -0.3589
 3225TIP3    H1 9639   5.176   1.374   0.610 -0.6700  4.2535  0.5846
 3225TIP3    H2 9640   5.045   1.370   0.685 -1.6101 -0.5846 -0.9855
 3226TIP3   OH2 9641   4.280   1.358   5.115  0.1941  0.8853  0.2113
 3226TIP3    H1 9642   4.273   1.401   5.030  0.7067 -1.5452 -1.1267
 3226TIP3    H2 9643   4.201   1.305   5.122  0.9638 -0.2545  0.4592
 3227TIP3   OH2 9644   6.898   2.774   5.115  0.3954  0.0409  0.7236
 3227TIP3    H1 9645   6.878   2.683   5.095 -0.8542  0.6560 -1.0216
 3227TIP3    H2 9646   6.819   2.808   5.156  0.2493  0.7516 -0.1136
 3228TIP3   OH2 9647   5.044   4.014   1.812  0.1194  0.2183 -0.6519
 3228TIP3    H1 9648   5.081   4.011   1.724  0.4797  1.9199 -0.5969
 3228TIP3    H2 9649   5.050   4.107   1.837  1.0655 -0.3817  1.5855
 3229TIP3   OH2 9650   1.151   4.822   4.034 -0.0650 -0.1056  0.0183
 3229TIP3    H1 9651   1.230   4.875   4.045  1.6625 -2.4549 -0.3657
 3229TIP3    H2 9652   1.129   4.793   4.122 -0.6266  0.6783  0.1461
 3230TIP3   OH2 9653   1.102   0.271   3.105 -0.5289 -0.0054  0.3515
 3230TIP3    H1 9654   1.007   0.283   3.092 -0.4762 -0.8834 -1.0342
 3230TIP3    H2 9655   1.141   0.312   3.028  0.2506  0.5908  1.0556
 3231TIP3   OH2 9656   4.194   4.621   4.402  0.1840 -0.2782  0.4539
 3231TIP3    H1 9657   4.262   4.653   4.343 -0.5805 -0.9932 -0.8660
 3231TIP3    H2 9658   4.190   4.527   4.385  0.2931 -0.6017  2.0496
 3232TIP3   OH2 9659   1.271  -0.003   2.317 -0.4365  0.0133 -0.1718
 3232TIP3    H1 9660   1.287   0.090   2.306 -1.3383  0.1553 -0.3437
 3232TIP3    H2 9661   1.188  -0.019   2.273 -0.5672 -0.7663  0.3311
 3233TIP3   OH2 9662   3.842   0.437   3.982 -0.4283  0.0135  0.3142
 3233TIP3    H1 9663   3.758   0.477   4.005  0.0067  2.0942 -1.4439
 3233TIP3    H2 9664   3.902   0.465   4.052 -0.8656 -0.3395  0.8424
 3234TIP3   OH2 9665   1.952   5.539   5.109  0.4973  0.4364  0.2568
 3234TIP3    H1 9666   1.885   5.509   5.048  0.8575 -0.2137  0.1715
 3234TIP3    H2 9667   1.942   5.634   5.111  1.4029  0.6338 -1.9242
 3235TIP3   OH2 9668   3.576   2.489   5.703  0.6497  0.5712 -0.6035
 3235TIP3    H1 9669   3.651   2.549   5.696  2.5228 -1.2099  2.3885
 3235TIP3    H2 9670   3.531   2.517   5.782  0.6706 -1.0215 -0.0143
 3236TIP3   OH2 9671   4.977   4.644   3.753  0.5878  0.2252  0.5835
 3236TIP3    H1 9672   4.924   4.582   3.703  1.8640 -0.6801  0.2737
 3236TIP3    H2 9673   5.005   4.594   3.830  1.2775  0.5466  0.5479
 3237TIP3   OH2 9674   1.790   0.394   4.913 -0.0758 -0.1802 -0.2640
 3237TIP3    H1 9675   1.816   0.368   5.001 -0.1619 -0.2068 -0.2459
 3237TIP3    H2 9676   1.756   0.482   4.923 -0.4167 -0.3163 -0.2106
 3238TIP3   OH2 9677   5.266   2.477   3.079  0.0934  0.2778  0.0703
 3238TIP3    H1 9678   5.192   2.467   3.020 -0.1614  2.1789  0.0246
 3238TIP3    H2 9679   5.236   2.441   3.163 -0.0971 -0.9495 -0.5080
 3239TIP3   OH2 9680   5.813   0.709   1.463  0.2979 -0.4391 -0.0059
 3239TIP3    H1 9681   5.891   0.765   1.470 -0.2294  0.4069 -0.7787
 3239TIP3    H2 9682   5.740   0.770   1.465 -0.3606 -1.2236  0.5953
 3240TIP3   OH2 9683   4.316   6.079   0.066  0.3237 -0.6502 -0.3145
 3240TIP3    H1 9684   4.265   6.054  -0.010  1.3917 -0.7539 -1.0247
 3240TIP3    H2 9685   4.257   6.067   0.141 -0.8825 -0.1163 -1.1558
 3241TIP3   OH2 9686   2.673   5.594   4.035  0.5577 -0.0721 -0.5986
 3241TIP3    H1 9687   2.637   5.558   4.116  1.6479  1.2029  0.4861
 3241TIP3    H2 9688   2.613   5.665   4.011  0.5686 -0.0557 -0.5777
 3242TIP3   OH2 9689   3.301   3.415   0.448  0.5941 -0.1809 -0.5739
 3242TIP3    H1 9690   3.295   3.463   0.530  0.3051 -1.7454  0.3695
 3242TIP3    H2 9691   3.387   3.372   0.452 -0.5148 -2.5194  0.2890
 3243TIP3   OH2 9692   6.229   0.463   1.886  0.4431 -0.2387 -0.3895
 3243TIP3    H1 9693   6.192   0.525   1.949  0.9564 -0.2460 -0.0705
 3243TIP3    H2 9694   6.187   0.379   1.909  0.2948 -0.1546 -0.3480
 3244TIP3   OH2 9695   5.450   6.665   4.638 -0.3785 -0.2075 -0.1677
 3244TIP3    H1 9696   5.487   6.597   4.695 -0.0773 -0.8932 -1.1485
 3244TIP3    H2 9697   5.371   6.625   4.601 -0.2164 -0.0172 -0.7281
 3245TIP3   OH2 9698   5.057   1.380   4.544  0.0975 -0.5335 -0.2329
 3245TIP3    H1 9699   5.040   1.363   4.637  1.8347  0.7307  0.3643
 3245TIP3    H2 9700   4.971   1.374   4.503 -0.8746 -0.0700  1.6303
 3246TIP3   OH2 9701   5.054   0.048   1.622 -0.1824  0.6298  0.1844
 3246TIP3    H1 9702   5.112   0.039   1.546 -0.7259  1.1375 -0.2985
 3246TIP3    H2 9703   4.978  -0.006   1.601 -0.1323  0.4024  0.5768
 3247TIP3   OH2 9704   5.482   0.210   4.305  0.2318 -0.0094  0.2237
 3247TIP3    H1 9705   5.502   0.271   4.376  0.9967  0.1722 -0.1424
 3247TIP3    H2 9706   5.517   0.126   4.334  0.6607  0.0938  0.0031
 3248TIP3   OH2 9707   3.476   2.525   4.484 -0.1669  0.1332 -0.1415
 3248TIP3    H1 9708   3.486   2.432   4.467  0.8672  0.4543 -1.3866
 3248TIP3    H2 9709   3.533   2.542   4.559  1.0347  0.0711 -1.0125
 3249TIP3   OH2 9710   0.254   1.879   1.446  0.2367  0.3837 -0.1663
 3249TIP3    H1 9711   0.241   1.952   1.506 -0.5517  0.6732 -0.6649
 3249TIP3    H2 9712   0.335   1.900   1.400 -0.7862  1.7775 -1.4238
 3250TIP3   OH2 9713   5.018   0.260   4.927 -0.0347 -0.8759  0.4982
 3250TIP3    H1 9714   5.020   0.175   4.971  0.1212 -0.5953  1.0440
 3250TIP3    H2 9715   4.929   0.292   4.939 -0.3275 -1.3184 -0.4128
 3251TIP3   OH2 9716   0.640   5.545   2.041 -0.3176  0.1354  0.4235
 3251TIP3    H1 9717   0.676   5.490   2.111 -0.1158 -0.5775 -0.2326
 3251TIP3    H2 9718   0.703   5.537   1.969 -0.7655  0.4802 -0.0132
 3252TIP3   OH2 9719   4.064   2.485   1.569  0.4839  0.6794  0.3770
 3252TIP3    H1 9720   4.154   2.507   1.593 -0.1509  2.5129  1.2723
 3252TIP3    H2 9721   4.057   2.511   1.477  1.1070 -0.3572  0.0160
 3253TIP3   OH2 9722   0.235   5.833   3.134 -0.2933 -0.2134 -0.3871
 3253TIP3    H1 9723   0.169   5.839   3.064 -2.3414 -0.0454  1.4322
 3253TIP3    H2 9724   0.209   5.755   3.183  2.0591 -1.2515 -0.6665
 3254TIP3   OH2 9725   0.759   5.490   3.354 -0.1270  0.0952 -0.0292
 3254TIP3    H1 9726   0.754   5.397   3.330  1.5498  0.0216 -0.1674
 3254TIP3    H2 9727   0.724   5.536   3.278  0.6803 -0.3600 -0.6948
 3255TIP3   OH2 9728   5.227   4.746   3.696  0.0229 -0.1681  0.4055
 3255TIP3    H1 9729   5.217   4.827   3.747  0.6238 -0.2089  0.5993
 3255TIP3    H2 9730   5.146   4.697   3.711 -0.8228  0.8645 -0.5662
 3256TIP3   OH2 9731   6.119   1.805   4.416 -0.4025 -0.4854 -0.1246
 3256TIP3    H1 9732   6.047   1.827   4.357  0.6074 -1.3210 -1.7631
 3256TIP3    H2 9733   6.198   1.817   4.363  0.6005 -0.7297  1.2506
 3257TIP3   OH2 9734   1.672   0.344   1.634 -0.1093  0.0738 -0.2549
 3257TIP3    H1 9735   1.694   0.347   1.541  0.0151  1.9337 -0.1948
 3257TIP3    H2 9736   1.633   0.257   1.646 -0.9572  0.1278 -2.2202
 3258TIP3   OH2 9737   1.668   1.889   0.688 -0.6772  0.0314 -0.2548
 3258TIP3    H1 9738   1.756   1.904   0.725 -0.7927  1.0620 -0.3573
 3258TIP3    H2 9739   1.635   1.977   0.670 -2.4371 -0.2148  1.4033
 3259TIP3   OH2 9740   4.685   5.325   5.757  0.2752  0.4371 -0.3501
 3259TIP3    H1 9741   4.634   5.243   5.757 -0.8789  1.1330 -0.0032
 3259TIP3    H2 9742   4.721   5.330   5.845 -0.1135  0.5729 -0.1967
 3260TIP3   OH2 9743   1.865   0.761   4.088 -0.4699 -0.3995  0.0625
 3260TIP3    H1 9744   1.874   0.743   4.182 -1.0704  0.2895  0.2562
 3260TIP3    H2 9745   1.857   0.674   4.048 -2.4073 -0.6497  0.8863
 3261TIP3   OH2 9746   6.950   1.918   3.835  0.5546  0.0456 -0.3592
 3261TIP3    H1 9747   6.948   1.971   3.755 -0.7681  0.7746  0.1374
 3261TIP3    H2 9748   6.918   1.977   3.904 -1.2323 -1.4542  0.1697
 3262TIP3   OH2 9749   0.147   5.724   1.823 -0.5515 -0.8467  0.3086
 3262TIP3    H1 9750   0.158   5.815   1.796  0.0702 -0.6746  1.0803
 3262TIP3    H2 9751   0.150   5.674   1.742  1.9616 -0.4163  0.0650
 3263TIP3   OH2 9752   4.874   6.207   0.178  0.3292  0.2153 -0.5463
 3263TIP3    H1 9753   4.806   6.222   0.113  0.6495 -0.1942 -0.9854
 3263TIP3    H2 9754   4.929   6.285   0.175  0.6588 -0.0344 -1.1652
 3264TIP3   OH2 9755   1.506   1.435   2.777 -0.1971 -0.6087  0.8013
 3264TIP3    H1 9756   1.594   1.403   2.756  0.5612  1.4435  0.5467
 3264TIP3    H2 9757   1.460   1.438   2.693  0.5876  1.2601  0.3868
 3265TIP3   OH2 9758   2.007   5.192   3.103 -0.2573  0.0828 -0.1736
 3265TIP3    H1 9759   1.986   5.265   3.161 -2.2389  2.1620 -3.2148
 3265TIP3    H2 9760   1.926   5.141   3.097  0.2919 -0.8172 -0.1901
 3266TIP3   OH2 9761   4.920   4.266   5.762 -0.1245  0.4938  0.1603
 3266TIP3    H1 9762   4.952   4.313   5.839 -2.9639 -0.3277  2.0203
 3266TIP3    H2 9763   4.835   4.306   5.744 -1.8378 -2.6011  0.7107
 3267TIP3   OH2 9764   5.534   0.049   2.605 -0.5484 -0.2713  0.3131
 3267TIP3    H1 9765   5.496  -0.037   2.589  2.6682 -2.0988  1.5037
 3267TIP3    H2 9766   5.591   0.066   2.530  2.0731 -1.3166  1.8968
 3268TIP3   OH2 9767   3.029   5.304   0.308  0.2631 -0.0106 -0.0490
 3268TIP3    H1 9768   3.071   5.228   0.348  0.7512 -0.2925 -1.0588
 3268TIP3    H2 9769   3.026   5.282   0.214  0.6430  1.3240 -0.3879
 3269TIP3   OH2 9770   3.998   1.066   3.567 -0.3635 -0.8103 -0.0359
 3269TIP3    H1 9771   3.964   1.073   3.478 -0.4517 -0.8236 -0.0032
 3269TIP3    H2 9772   4.052   0.988   3.566 -0.6826 -1.0318  0.0279
 3270TIP3   OH2 9773   6.969   5.117   5.127 -0.1737 -0.0710  0.1079
 3270TIP3    H1 9774   6.991   5.195   5.077  2.0143  0.3369  1.5551
 3270TIP3    H2 9775   6.926   5.150   5.206 -1.9671 -0.5882 -0.5968
 3271TIP3   OH2 9776   0.482   1.290   0.531 -0.4716 -0.3730  0.4582
 3271TIP3    H1 9777   0.535   1.246   0.464 -2.4645  0.2079 -1.6346
 3271TIP3    H2 9778   0.532   1.279   0.612  2.4356 -0.4856 -1.2091
 3272TIP3   OH2 9779   6.764   0.228   0.646 -0.3331  0.2926  0.2778
 3272TIP3    H1 9780   6.675   0.263   0.635 -0.0595  1.3814  1.3368
 3272TIP3    H2 9781   6.782   0.239   0.739  1.0288  0.3573  0.0154
 3273TIP3   OH2 9782   6.410   0.779   3.646  0.1494  0.8513  0.0426
 3273TIP3    H1 9783   6.445   0.862   3.680 -0.7272  0.5809  1.7512
 3273TIP3    H2 9784   6.318   0.799   3.626 -0.5995 -0.0797  2.2189
 3274TIP3   OH2 9785   0.471   5.971   3.041 -0.5702 -0.4449 -0.4506
 3274TIP3    H1 9786   0.391   5.932   3.078  0.7297 -1.6562  1.2335
 3274TIP3    H2 9787   0.491   5.916   2.965 -1.2593 -0.1964 -0.8244
 3275TIP3   OH2 9788   4.029   1.230   5.057 -0.5051  0.1341  0.0433
 3275TIP3    H1 9789   3.983   1.260   5.136 -0.5114 -0.3051  0.2076
 3275TIP3    H2 9790   3.962   1.234   4.988 -0.3303  1.1370 -0.0850
 3276TIP3   OH2 9791   4.068   0.102   4.135  0.2991  0.2428 -1.0038
 3276TIP3    H1 9792   4.143   0.143   4.091  1.2181 -0.3771 -0.0573
 3276TIP3    H2 9793   4.077   0.128   4.227 -0.2542 -0.4088 -0.7558
 3277TIP3   OH2 9794   3.108   4.551   3.484 -0.6365 -0.9669 -0.2562
 3277TIP3    H1 9795   3.042   4.592   3.540 -1.2605  0.4855 -1.9549
 3277TIP3    H2 9796   3.086   4.580   3.395  1.9151 -0.9446 -0.9718
 3278TIP3   OH2 9797   2.279   5.313   1.459 -0.2122 -0.2995 -0.1750
 3278TIP3    H1 9798   2.197   5.269   1.438 -0.3417 -0.6056  0.9170
 3278TIP3    H2 9799   2.314   5.265   1.535  1.7101 -1.1154 -1.4828
 3279TIP3   OH2 9800   6.228   6.606   3.927  0.3732 -0.3869  0.0533
 3279TIP3    H1 9801   6.319   6.624   3.949  0.1816 -0.2294  0.7318
 3279TIP3    H2 9802   6.178   6.638   4.002 -0.1604 -1.4509  0.1726
 3280TIP3   OH2 9803   1.949   6.116   3.391 -0.0539 -0.6148 -0.2600
 3280TIP3    H1 9804   2.008   6.149   3.323 -1.3529 -0.2135 -1.2497
 3280TIP3    H2 9805   1.865   6.105   3.346 -0.3819 -2.6215  0.7246
 3281TIP3   OH2 9806   0.787   1.398   4.810 -0.5667 -0.6901  0.6960
 3281TIP3    H1 9807   0.817   1.476   4.856 -1.0582 -0.8377  1.2789
 3281TIP3    H2 9808   0.762   1.429   4.723 -0.4491 -0.2589  0.8157
 3282TIP3   OH2 9809   3.658   3.961   4.860  0.3741  0.1761  0.2572
 3282TIP3    H1 9810   3.669   3.924   4.773 -1.3227  0.5831 -0.1718
 3282TIP3    H2 9811   3.746   3.964   4.897  1.2953  1.0367 -1.8568
 3283TIP3   OH2 9812   0.904   2.478   3.887 -0.1542 -0.0100  0.4328
 3283TIP3    H1 9813   0.953   2.493   3.806  1.0754 -1.5350  0.8418
 3283TIP3    H2 9814   0.866   2.391   3.876 -2.0816  0.7792  0.5104
 3284TIP3   OH2 9815   1.856   6.416   3.845 -0.0808 -0.2356  0.2702
 3284TIP3    H1 9816   1.868   6.358   3.920  1.9757 -0.4147 -0.1230
 3284TIP3    H2 9817   1.878   6.362   3.769 -2.2211 -0.0845 -0.5153
 3285TIP3   OH2 9818   6.617   1.283   2.804 -0.0547  0.3442  0.1463
 3285TIP3    H1 9819   6.640   1.216   2.740 -3.6763 -0.2890 -0.7031
 3285TIP3    H2 9820   6.674   1.266   2.879  1.1709 -1.7713 -1.1806
 3286TIP3   OH2 9821   3.844   4.965   5.603  0.1094  0.3822 -0.5396
 3286TIP3    H1 9822   3.850   4.951   5.509  1.1895  0.8484 -0.5511
 3286TIP3    H2 9823   3.875   4.883   5.641  1.3851  0.8070 -0.6088
 3287TIP3   OH2 9824   0.829   3.661   0.622  0.1427  0.3283  0.0720
 3287TIP3    H1 9825   0.766   3.647   0.693  0.4340  1.1144  0.4934
 3287TIP3    H2 9826   0.899   3.598   0.640 -0.3867 -0.3718 -0.2563
 3288TIP3   OH2 9827   6.229   2.959   3.368  0.5478  0.2908  0.3124
 3288TIP3    H1 9828   6.250   2.944   3.460 -0.1387  1.8457  0.7520
 3288TIP3    H2 9829   6.141   2.997   3.369 -0.4973 -1.8389 -1.1600
 3289TIP3   OH2 9830   1.631   5.644   0.267  0.3108 -0.1535 -0.0276
 3289TIP3    H1 9831   1.581   5.725   0.275  0.4610 -0.0441 -0.1806
 3289TIP3    H2 9832   1.720   5.669   0.293  0.0203 -0.6410  1.4951
 3290TIP3   OH2 9833   5.952   3.505   1.729  0.1923 -0.5334 -0.0300
 3290TIP3    H1 9834   6.008   3.434   1.698  0.8219 -0.4211  0.8000
 3290TIP3    H2 9835   5.927   3.478   1.818  0.4030  0.2504  0.2782
 3291TIP3   OH2 9836   6.016   5.226   4.267 -0.0807  0.2731 -0.7810
 3291TIP3    H1 9837   6.034   5.208   4.359 -1.1790  0.2811 -0.5457
 3291TIP3    H2 9838   6.057   5.310   4.250  0.8252 -0.1099 -0.5251
 3292TIP3   OH2 9839   4.548   1.029   0.117 -0.1421 -1.0791 -0.2793
 3292TIP3    H1 9840   4.500   1.082   0.053  0.5457 -1.4900 -1.1524
 3292TIP3    H2 9841   4.515   0.940   0.103 -0.0475 -1.1589  0.0031
 3293TIP3   OH2 9842   6.278   3.087   3.836 -0.3548  0.3025  0.4636
 3293TIP3    H1 9843   6.353   3.134   3.872 -0.0561 -1.8436  2.9075
 3293TIP3    H2 9844   6.218   3.076   3.909 -1.4873 -0.9941 -0.5910
 3294TIP3   OH2 9845   5.704   6.356   4.008  0.0163 -0.3608 -0.0848
 3294TIP3    H1 9846   5.800   6.364   4.011 -0.1027  1.0289  0.8041
 3294TIP3    H2 9847   5.679   6.396   3.924  0.1684 -0.1812 -0.0445
 3295TIP3   OH2 9848   6.608   5.725   0.972 -0.1503  0.2178 -0.3382
 3295TIP3    H1 9849   6.561   5.807   0.953  0.0309  0.0673 -1.4792
 3295TIP3    H2 9850   6.558   5.685   1.044 -1.0510  0.6541 -0.7064
 3296TIP3   OH2 9851   3.617   0.842   0.608 -0.3076 -0.7113 -0.2531
 3296TIP3    H1 9852   3.698   0.792   0.617  0.3993  0.6316  1.2064
 3296TIP3    H2 9853   3.610   0.861   0.514  2.8826  1.9998 -0.1052
 3297TIP3   OH2 9854   2.613   4.543   2.016  0.1243  0.4053 -0.3758
 3297TIP3    H1 9855   2.668   4.471   1.985  0.4528  1.1831 -1.6718
 3297TIP3    H2 9856   2.594   4.522   2.107  2.3124 -0.0317  0.0165
 3298TIP3   OH2 9857   5.342   4.636   5.668  0.3097 -0.0124 -0.8170
 3298TIP3    H1 9858   5.347   4.710   5.607  0.0888  0.5658 -0.1529
 3298TIP3    H2 9859   5.387   4.565   5.624  0.9541  0.6635 -1.2672
 3299TIP3   OH2 9860   6.350   1.588   3.161  0.5458  0.1739 -0.6174
 3299TIP3    H1 9861   6.390   1.587   3.074 -2.1067 -0.2620 -1.9405
 3299TIP3    H2 9862   6.330   1.680   3.178  0.3411  0.1740 -0.8518
 3300TIP3   OH2 9863   4.158   5.423   3.479  0.0141 -0.5478  0.0959
 3300TIP3    H1 9864   4.194   5.416   3.568  0.8645 -1.3672 -0.2935
 3300TIP3    H2 9865   4.111   5.506   3.479 -0.8567 -0.9893  1.6072
 3301TIP3   OH2 9866   6.884   4.448   0.163 -0.2695 -0.1080  0.0412
 3301TIP3    H1 9867   6.977   4.439   0.143 -0.1018  0.5581  0.4783
 3301TIP3    H2 9868   6.847   4.491   0.085  0.0810  1.0037  0.4663
 3302TIP3   OH2 9869   1.364   0.987   0.882 -0.1555  0.3296 -0.2611
 3302TIP3    H1 9870   1.350   1.061   0.940 -0.3232  0.9341 -1.0641
 3302TIP3    H2 9871   1.391   1.025   0.799  0.4464 -0.5408 -0.4873
 3303TIP3   OH2 9872   6.344   0.298   3.191 -0.6428  0.3203  0.5424
 3303TIP3    H1 9873   6.354   0.391   3.211 -0.9177  0.8699 -1.5503
 3303TIP3    H2 9874   6.249   0.285   3.188 -0.6060  0.0823  0.3887
 3304TIP3   OH2 9875   5.079   3.539   4.782  0.3550 -0.4534  0.3276
 3304TIP3    H1 9876   5.111   3.502   4.865  0.1678 -0.4512  0.4016
 3304TIP3    H2 9877   5.117   3.626   4.779  0.2230 -0.3886  0.4969
 3305TIP3   OH2 9878   0.769   5.993   5.864  0.3039 -0.0059  0.1082
 3305TIP3    H1 9879   0.703   6.054   5.831  1.2938  1.0745  0.0781
 3305TIP3    H2 9880   0.767   5.919   5.803 -0.5775  0.2049 -0.1235
 3306TIP3   OH2 9881   7.164   4.908   3.201  0.4068 -0.3194  0.0521
 3306TIP3    H1 9882   7.095   4.920   3.136  1.0024  1.0855 -0.3431
 3306TIP3    H2 9883   7.242   4.947   3.161  1.3401 -1.4790  0.6702
 3307TIP3   OH2 9884   7.105   6.019   0.315 -0.5483 -0.0089  0.5046
 3307TIP3    H1 9885   7.145   6.104   0.332  2.4174 -1.1643 -0.1517
 3307TIP3    H2 9886   7.037   6.038   0.249  0.6142  1.7430 -0.2863
 3308TIP3   OH2 9887   2.332   1.281   1.255 -0.0587 -0.4659  0.1065
 3308TIP3    H1 9888   2.374   1.353   1.301  0.9113 -0.8563 -0.1426
 3308TIP3    H2 9889   2.370   1.202   1.295 -0.7310 -0.8378  0.0308
 3309TIP3   OH2 9890   6.515   1.444   1.668  0.2197 -0.0738 -0.2743
 3309TIP3    H1 9891   6.568   1.524   1.667  0.5380 -0.2871 -0.7247
 3309TIP3    H2 9892   6.483   1.435   1.579 -0.8174  0.2028  0.0574
 3310TIP3   OH2 9893   5.380   0.830   4.068 -0.1463  0.0383  0.0693
 3310TIP3    H1 9894   5.396   0.816   4.162 -0.3752  0.4904  0.1756
 3310TIP3    H2 9895   5.308   0.892   4.065 -0.5444 -0.4396 -0.4123
 3311TIP3   OH2 9896   5.509   2.726   1.386  0.3373  0.2847 -0.1153
 3311TIP3    H1 9897   5.559   2.649   1.358  0.3474 -0.1065  0.9167
 3311TIP3    H2 9898   5.417   2.700   1.375  0.1620 -1.3901  3.7057
 3312TIP3   OH2 9899   6.555   1.956   2.289 -0.1089 -0.4335  0.4410
 3312TIP3    H1 9900   6.615   1.889   2.322  0.9955  0.5039  0.3930
 3312TIP3    H2 9901   6.593   2.039   2.319 -0.9491  0.2245 -0.2767
 3313TIP3   OH2 9902   2.534   6.530   5.111 -0.1895  0.2352 -0.0998
 3313TIP3    H1 9903   2.569   6.552   5.198  0.8818  3.0318 -1.1130
 3313TIP3    H2 9904   2.590   6.458   5.080 -1.5781 -1.9160  2.0423
 3314TIP3   OH2 9905   3.082   1.950   5.480  0.0609 -0.0352  0.5017
 3314TIP3    H1 9906   3.161   1.961   5.534  0.1061  2.7207  0.0120
 3314TIP3    H2 9907   3.020   2.014   5.516  0.1981  2.1794 -2.7655
 3315TIP3   OH2 9908   6.542   6.326   1.169 -0.6303 -0.4168  0.1233
 3315TIP3    H1 9909   6.462   6.275   1.179 -0.2466 -1.4362 -1.5406
 3315TIP3    H2 9910   6.531   6.370   1.084  0.3249 -0.1273  0.1385
 3316TIP3   OH2 9911   0.401   0.289   2.086 -0.4980  0.0223 -0.1178
 3316TIP3    H1 9912   0.313   0.274   2.051 -0.3775  1.0523 -0.9189
 3316TIP3    H2 9913   0.405   0.384   2.100  1.2132  0.3354 -2.1787
 3317TIP3   OH2 9914   4.845   1.568   2.958 -0.1537 -0.4351 -0.2172
 3317TIP3    H1 9915   4.777   1.500   2.959  0.2855 -0.8927 -0.9727
 3317TIP3    H2 9916   4.890   1.558   3.042 -1.6057  0.4869  0.7187
 3318TIP3   OH2 9917   1.062   1.842   0.064  0.3499 -0.0381  0.4126
 3318TIP3    H1 9918   0.985   1.797   0.101 -0.1235 -0.2415 -0.7884
 3318TIP3    H2 9919   1.110   1.774   0.018 -0.2742  0.6202 -1.2707
 3319TIP3   OH2 9920   6.952   0.341   3.975 -0.7147  0.1854 -0.1715
 3319TIP3    H1 9921   6.879   0.394   4.006 -1.0993  0.0475 -0.8327
 3319TIP3    H2 9922   7.027   0.371   4.027 -1.4281 -0.3869  1.2497
 3320TIP3   OH2 9923   0.063   0.781   2.286  0.1314 -0.0373  0.2635
 3320TIP3    H1 9924   0.047   0.850   2.221  0.7164  1.0364  1.2244
 3320TIP3    H2 9925  -0.019   0.772   2.333  0.2430  0.4687  0.5589
 3321TIP3   OH2 9926   4.690   3.043   0.488 -0.4213 -0.5941 -0.1887
 3321TIP3    H1 9927   4.748   2.988   0.436 -1.8736  0.3431 -3.0151
 3321TIP3    H2 9928   4.728   3.131   0.483 -1.7462 -0.0600 -1.6929
 3322TIP3   OH2 9929   6.998   6.104   2.959 -0.1617  0.1628 -0.0457
 3322TIP3    H1 9930   7.051   6.135   2.886 -0.2992  2.5220  0.7659
 3322TIP3    H2 9931   6.991   6.180   3.017 -3.4383 -0.3948  0.4604
 3323TIP3   OH2 9932   7.064   0.471   1.343 -0.5250 -0.1002  0.2247
 3323TIP3    H1 9933   7.149   0.428   1.350 -0.3441  0.3053  0.5587
 3323TIP3    H2 9934   7.002   0.404   1.372 -0.4966 -0.9427 -1.5639
 3324TIP3   OH2 9935   3.831   4.765   1.451 -0.8622 -0.0169  0.3222
 3324TIP3    H1 9936   3.880   4.815   1.385  2.0418 -2.0014  0.7832
 3324TIP3    H2 9937   3.829   4.823   1.527 -0.7756  0.7834 -0.2627
 3325TIP3   OH2 9938   0.117   5.015   1.719  0.4981 -0.8988  0.6104
 3325TIP3    H1 9939   0.123   5.110   1.708  0.4658 -0.7367  1.8200
 3325TIP3    H2 9940   0.077   4.984   1.638 -0.5278  0.2512  0.6500
 3326TIP3   OH2 9941   4.729   2.766   3.462  0.3161  0.3493 -0.1834
 3326TIP3    H1 9942   4.645   2.747   3.504  0.3458  0.1498 -0.2138
 3326TIP3    H2 9943   4.766   2.838   3.513  1.6725 -1.7019  1.9210
 3327TIP3   OH2 9944   0.771   3.702   1.721  0.3738 -0.2737  0.1323
 3327TIP3    H1 9945   0.782   3.651   1.640  0.1242 -1.5506  0.8705
 3327TIP3    H2 9946   0.858   3.740   1.737  0.9930 -1.6714  0.3165
 3328TIP3   OH2 9947   3.498   1.705   0.105  0.8955 -0.6231 -0.2552
 3328TIP3    H1 9948   3.589   1.712   0.131  0.7353 -0.9259  0.4179
 3328TIP3    H2 9949   3.458   1.788   0.133  0.3995 -1.5064  1.8932
 3329TIP3   OH2 9950   2.457   3.062   0.272 -0.1995 -0.3769 -0.5090
 3329TIP3    H1 9951   2.503   2.979   0.278  2.6151  0.9690 -1.5538
 3329TIP3    H2 9952   2.414   3.060   0.187  1.1052 -0.2234 -1.1905
 3330TIP3   OH2 9953   5.443   2.447   3.584  0.5223 -0.3650  0.7915
 3330TIP3    H1 9954   5.511   2.381   3.599  1.1153 -0.0218 -0.3065
 3330TIP3    H2 9955   5.460   2.515   3.649  0.2691 -1.0054  1.5418
 3331TIP3   OH2 9956   6.180   3.938   5.756 -0.0528  0.3539 -0.3082
 3331TIP3    H1 9957   6.199   4.005   5.821 -1.5538  0.4098  0.1010
 3331TIP3    H2 9958   6.105   3.973   5.707 -0.3332 -0.6526 -0.6195
 3332TIP3   OH2 9959   0.936   5.847   3.572 -0.5195  0.2362 -0.3451
 3332TIP3    H1 9960   1.014   5.900   3.583 -1.1759  0.9017  1.4674
 3332TIP3    H2 9961   0.969   5.758   3.560  0.5461  0.3922  1.1067
 3333TIP3   OH2 9962   6.314   0.960   1.635  0.1953  0.3506 -0.6011
 3333TIP3    H1 9963   6.359   0.994   1.558  0.9737 -0.7146 -0.6401
 3333TIP3    H2 9964   6.365   0.992   1.709  1.2430 -1.0829 -0.6536
 3334TIP3   OH2 9965   4.047   5.381   5.273  0.2065 -0.6714  0.0175
 3334TIP3    H1 9966   4.092   5.443   5.215  1.8545 -1.1003  0.7861
 3334TIP3    H2 9967   4.000   5.323   5.213  0.2193  0.1365 -0.7968
 3335TIP3   OH2 9968   2.859   5.167   0.945 -0.7793  0.1408  0.2299
 3335TIP3    H1 9969   2.839   5.221   1.022 -2.1680  0.9287 -0.6509
 3335TIP3    H2 9970   2.810   5.207   0.874  1.2580  0.0355 -1.3270
 3336TIP3   OH2 9971   1.359   4.740   0.477 -0.2545  0.0462  0.8109
 3336TIP3    H1 9972   1.292   4.738   0.545  0.0750 -1.5086  1.1324
 3336TIP3    H2 9973   1.428   4.796   0.512 -1.0639  1.0814  0.7796
 3337TIP3   OH2 9974   4.247   2.307   2.415  0.3980 -0.2615 -0.5618
 3337TIP3    H1 9975   4.205   2.222   2.422 -0.3572  0.0607 -1.0699
 3337TIP3    H2 9976   4.177   2.371   2.428  0.7111  0.2877 -1.4411
 3338TIP3   OH2 9977   3.218   0.604   4.352 -0.2253  0.1083  0.2621
 3338TIP3    H1 9978   3.150   0.637   4.294  0.5298  0.5488 -0.3949
 3338TIP3    H2 9979   3.227   0.671   4.419 -2.1491 -1.0766  1.8172
 3339TIP3   OH2 9980   0.989   1.288   0.425 -0.0504  0.1513 -0.6073
 3339TIP3    H1 9981   1.010   1.342   0.350 -0.9009  0.4253 -0.6480
 3339TIP3    H2 9982   0.902   1.254   0.408 -0.9158  1.4470  0.9408
 3340TIP3   OH2 9983   3.496   4.512   1.978  0.3483  0.1240  0.1668
 3340TIP3    H1 9984   3.563   4.542   2.039  0.1019  0.4159  0.2984
 3340TIP3    H2 9985   3.417   4.560   2.003 -0.0153 -0.5140  0.2671
 3341TIP3   OH2 9986   6.485   5.057   1.049 -0.0748  0.1571 -0.4235
 3341TIP3    H1 9987   6.530   5.133   1.085  1.1736 -1.0582  0.6574
 3341TIP3    H2 9988   6.432   5.023   1.121  2.4672 -2.3138  0.4795
 3342TIP3   OH2 9989   5.327   5.978   3.228  0.0586  0.7433  0.4015
 3342TIP3    H1 9990   5.268   5.992   3.303  0.3828  0.5738  0.6889
 3342TIP3    H2 9991   5.349   5.885   3.232  0.9310  0.9574  0.7311
 3343TIP3   OH2 9992   4.117   2.216   1.697  0.5604  0.1315  0.1710
 3343TIP3    H1 9993   4.073   2.292   1.660  0.1709 -1.0484 -1.9602
 3343TIP3    H2 9994   4.205   2.247   1.717  0.3147  1.2291 -0.3491
 3344TIP3   OH2 9995   4.146   3.931   1.676  0.2691  0.3654 -0.1060
 3344TIP3    H1 9996   4.115   3.906   1.588 -1.6568  0.6649  0.4415
 3344TIP3    H2 9997   4.106   3.866   1.734  0.0463  1.2178  0.7200
 3345TIP3   OH2 9998   5.735   5.375   0.128  0.1691 -0.1915  0.4427
 3345TIP3    H1 9999   5.665   5.378   0.063 -0.2658 -2.0895  0.7663
 3345TIP3    H210000   5.804   5.430   0.092 -1.6271  2.1012  0.3310
 3346TIP3   OH210001   2.631   3.536   4.297 -0.6051  0.3240 -0.4020
 3346TIP3    H110002   2.704   3.483   4.265 -1.8659 -1.4271 -0.5099
 3346TIP3    H210003   2.554   3.480   4.288 -2.0355  2.1953 -0.5422
 3347TIP3   OH210004   6.435   2.025   2.869  0.2672 -0.0141 -0.2795
 3347TIP3    H110005   6.476   1.986   2.946  1.0058  1.0499 -0.1153
 3347TIP3    H210006   6.341   2.025   2.889  0.5071  0.8638  0.9175
 3348TIP3   OH210007   2.696   5.788   0.960 -1.0879 -0.1052  0.3140
 3348TIP3    H110008   2.625   5.767   0.899 -2.2502  2.1365  0.7920
 3348TIP3    H210009   2.686   5.725   1.031 -1.9920 -0.4129 -0.0748
 3349TIP3   OH210010   4.162   5.049   5.330  0.0532  0.1468  0.1622
 3349TIP3    H110011   4.230   5.090   5.276 -1.0989 -0.5473 -1.9025
 3349TIP3    H210012   4.211   5.004   5.399  1.7024 -0.2085 -1.1715
 3350TIP3   OH210013   4.923   3.273   3.473 -0.0618 -0.2757 -0.1076
 3350TIP3    H110014   4.851   3.246   3.416 -0.6176 -0.4364  0.6515
 3350TIP3    H210015   4.996   3.216   3.449 -0.8773 -1.7186  0.7008
 3351TIP3   OH210016   3.648   6.128   4.855  0.1004  0.1557 -0.3588
 3351TIP3    H110017   3.691   6.094   4.933  0.7107 -0.0630 -0.7848
 3351TIP3    H210018   3.594   6.201   4.887  0.5063  0.2023  0.2338
 3352TIP3   OH210019   1.142   1.696   2.860  0.2733  0.0509  0.3094
 3352TIP3    H110020   1.237   1.704   2.866  0.1879 -0.0989  3.4447
 3352TIP3    H210021   1.112   1.783   2.836  1.1822 -0.2686 -2.4074
 3353TIP3   OH210022   4.809   6.284   2.284  0.7034  0.2332  0.1357
 3353TIP3    H110023   4.747   6.233   2.336  1.1352 -0.0099  0.4248
 3353TIP3    H210024   4.759   6.315   2.209  0.2889 -0.1370  0.2592
 3354TIP3   OH210025   1.616   5.826   5.444 -0.4513  0.5758 -0.2354
 3354TIP3    H110026   1.564   5.906   5.439 -0.4142  0.6161  0.0176
 3354TIP3    H210027   1.702   5.852   5.410 -0.4916  0.5966 -0.3238
 3355TIP3   OH210028   5.262   5.823   2.753  0.0192 -0.5675  0.1401
 3355TIP3    H110029   5.297   5.879   2.821 -0.9999 -0.5888  0.7090
 3355TIP3    H210030   5.200   5.878   2.705 -0.3441 -0.9483  0.1569
 3356TIP3   OH210031   4.964   0.123   3.564 -0.5711 -0.5904 -0.2472
 3356TIP3    H110032   4.927   0.193   3.510 -0.3491  0.2505  0.6670
 3356TIP3    H210033   5.048   0.103   3.522  0.8451  1.8806  1.1600
 3357TIP3   OH210034   0.822   1.163   2.913 -0.4512  0.0896  0.0981
 3357TIP3    H110035   0.891   1.231   2.916  0.8870 -0.7629 -4.0451
 3357TIP3    H210036   0.741   1.212   2.898 -0.1097  0.9488  0.9863
 3358TIP3   OH210037   2.834   6.158   1.461 -0.1707  0.3162 -0.6960
 3358TIP3    H110038   2.785   6.077   1.476  3.0214 -1.4743  1.3198
 3358TIP3    H210039   2.867   6.149   1.372 -1.3279  0.3048 -1.1376
 3359TIP3   OH210040   0.282   2.076   4.572 -0.0306  0.8211 -0.0134
 3359TIP3    H110041   0.372   2.049   4.592 -0.0392  0.2067 -0.7621
 3359TIP3    H210042   0.227   2.019   4.624 -0.0196  0.0541 -0.8154
 3360TIP3   OH210043   3.910   1.205   4.512 -0.1385 -0.2935  0.1160
 3360TIP3    H110044   3.975   1.208   4.442 -0.5887  1.0094 -0.2541
 3360TIP3    H210045   3.831   1.171   4.471 -0.2295 -0.1155  0.1462
 3361TIP3   OH210046   0.173   0.724   0.306 -0.0248 -0.5172 -0.1426
 3361TIP3    H110047   0.088   0.756   0.338 -0.5183 -0.4019 -1.4952
 3361TIP3    H210048   0.217   0.802   0.274  0.6364 -0.5735  0.5943
 3362TIP3   OH210049   4.907   5.673   4.931  0.7138  0.0557  0.4213
 3362TIP3    H110050   4.913   5.738   4.861  0.6825 -0.8946 -0.4972
 3362TIP3    H210051   4.973   5.700   4.995  0.0221  1.5357  0.5558
 3363TIP3   OH210052   1.405   3.695   1.079  0.0193  0.0383  0.4137
 3363TIP3    H110053   1.435   3.606   1.096  0.4227  0.3660  1.4945
 3363TIP3    H210054   1.456   3.724   1.003 -0.4007 -0.7706 -0.2007
 3364TIP3   OH210055   6.725   0.269   4.429  0.3527  0.5499 -0.1091
 3364TIP3    H110056   6.630   0.267   4.426  0.2939 -0.7430  1.2613
 3364TIP3    H210057   6.751   0.178   4.417  1.2861  0.5414  1.6143
 3365TIP3   OH210058   2.604   4.293   4.076  0.2056  0.2258  0.0736
 3365TIP3    H110059   2.579   4.382   4.102 -2.7943  0.0230 -1.6937
 3365TIP3    H210060   2.535   4.237   4.111  0.7499 -1.0961 -0.8662
 3366TIP3   OH210061   0.733   4.429   1.368  0.5264  0.3863 -0.1367
 3366TIP3    H110062   0.766   4.517   1.384  1.6445 -0.1068  0.3547
 3366TIP3    H210063   0.802   4.386   1.318  0.5007 -0.5625  0.6183
 3367TIP3   OH210064   5.588   4.773   5.590 -0.5796 -0.1433  0.2591
 3367TIP3    H110065   5.543   4.703   5.637 -0.3487  0.9962  2.3185
 3367TIP3    H210066   5.640   4.817   5.657  0.3046  1.1867 -1.2235
 3368TIP3   OH210067   1.233   2.490   5.185  0.5655  0.4830 -0.5018
 3368TIP3    H110068   1.322   2.478   5.151  0.4389  1.3629 -1.1692
 3368TIP3    H210069   1.195   2.557   5.130 -0.8197 -0.4796 -0.7651
 3369TIP3   OH210070   5.156   1.316   5.760 -0.1284  0.0171 -0.5218
 3369TIP3    H110071   5.150   1.266   5.841 -1.5291  0.2127 -0.4877
 3369TIP3    H210072   5.246   1.303   5.731  0.2107 -0.5756  0.7247
 3370TIP3   OH210073   6.660   5.400   1.707 -0.4039  0.4972  0.4461
 3370TIP3    H110074   6.673   5.456   1.783  1.1861  1.5570 -0.5207
 3370TIP3    H210075   6.585   5.437   1.661 -0.3480  0.8602  0.6488
 3371TIP3   OH210076   3.385   6.348   2.358  0.1430 -0.1414 -0.4423
 3371TIP3    H110077   3.316   6.414   2.351  0.8254  0.6264 -0.0860
 3371TIP3    H210078   3.342   6.274   2.401 -0.2858  0.5936  0.4294
 3372TIP3   OH210079   1.114   1.555   4.428 -0.2732  0.0668  0.2747
 3372TIP3    H110080   1.084   1.594   4.511 -0.6198  1.5254 -0.4912
 3372TIP3    H210081   1.041   1.502   4.399 -0.0352 -0.7013  1.0429
 3373TIP3   OH210082   6.154   1.265   1.614 -0.1463  0.5843  0.2916
 3373TIP3    H110083   6.068   1.233   1.642  1.2112 -1.1483  2.8136
 3373TIP3    H210084   6.211   1.249   1.689  2.6678  0.5162 -1.7285
 3374TIP3   OH210085   3.172   2.293   1.197 -0.0760  0.0044  0.0598
 3374TIP3    H110086   3.121   2.228   1.244 -2.7933  1.0493 -1.2241
 3374TIP3    H210087   3.200   2.249   1.117 -0.4981 -0.0869 -0.0412
 3375TIP3   OH210088   6.139   6.255   1.754 -0.2152 -0.0786 -0.1282
 3375TIP3    H110089   6.059   6.262   1.806 -1.0180 -2.0085 -0.9921
 3375TIP3    H210090   6.200   6.208   1.811  0.5260  1.7912  0.7035
 3376TIP3   OH210091   0.957   2.751   2.713  0.0704 -0.3859  0.3332
 3376TIP3    H110092   0.920   2.696   2.644  0.1685  1.0020 -0.8704
 3376TIP3    H210093   1.033   2.702   2.744  0.3460 -0.8032 -0.9325
 3377TIP3   OH210094   1.263   0.316   5.453  0.5158  0.4321  0.1022
 3377TIP3    H110095   1.337   0.277   5.406  0.5245  0.6022 -0.0262
 3377TIP3    H210096   1.255   0.404   5.416 -1.7146 -0.6003 -2.1624
 3378TIP3   OH210097   3.399   1.117   4.626  0.6672  0.1853 -0.3271
 3378TIP3    H110098   3.441   1.190   4.672 -0.5208 -0.3516  1.7215
 3378TIP3    H210099   3.325   1.094   4.681 -0.7332 -0.6578 -2.4658
 3379TIP3   OH210100   4.333   4.110   1.951  0.0626  0.4309  0.1769
 3379TIP3    H110101   4.344   4.105   2.046  0.2211  1.3335  0.2173
 3379TIP3    H210102   4.421   4.100   1.916  0.3635  2.4300  0.2533
 3380TIP3   OH210103   6.859   2.271   1.506  0.0474 -0.7638  0.3691
 3380TIP3    H110104   6.829   2.350   1.551  0.3797  0.1583 -0.9500
 3380TIP3    H210105   6.790   2.206   1.522 -0.9591  0.2482  0.2792
 3381TIP3   OH210106   5.539   3.107   2.693 -0.9448  0.3576 -0.1987
 3381TIP3    H110107   5.444   3.100   2.680 -0.6887 -0.0243 -2.1310
 3381TIP3    H210108   5.564   3.024   2.733 -1.4074  0.4406  0.2776
 3382TIP3   OH210109   1.513   1.949   4.982 -0.6096 -0.8465 -0.0055
 3382TIP3    H110110   1.417   1.941   4.978 -0.4621 -2.6652 -1.5203
 3382TIP3    H210111   1.532   2.026   4.927 -1.2286  0.2870  1.3032
 3383TIP3   OH210112   3.391   5.017   0.113  0.0445 -0.2942  0.6899
 3383TIP3    H110113   3.320   5.062   0.068  1.0741  1.2186  0.5218
 3383TIP3    H210114   3.471   5.048   0.070  0.9875  0.1607  2.6361
 3384TIP3   OH210115   4.764   5.943   0.999 -0.4597 -0.0422 -0.1628
 3384TIP3    H110116   4.694   5.906   0.947  0.2553 -1.4497 -0.1609
 3384TIP3    H210117   4.727   5.954   1.086 -0.4809 -1.5126  0.0379
 3385TIP3   OH210118   7.096   6.258   3.717  0.1823 -0.8274  0.3427
 3385TIP3    H110119   7.114   6.249   3.624 -1.9028 -1.2002 -0.0909
 3385TIP3    H210120   7.085   6.168   3.748  0.8441 -0.7051  0.9617
 3386TIP3   OH210121   7.002   3.200   3.718  0.1230  0.1246 -0.4519
 3386TIP3    H110122   7.031   3.131   3.659  0.5589  0.2733 -0.4104
 3386TIP3    H210123   6.906   3.194   3.715  0.1289  0.2203 -1.2849
 3387TIP3   OH210124   2.438   6.100   0.400 -0.0789 -0.2551  0.0681
 3387TIP3    H110125   2.473   6.179   0.441  1.2454 -0.4175 -0.7150
 3387TIP3    H210126   2.474   6.028   0.452 -2.3484 -0.3827  1.6208
 3388TIP3   OH210127   5.549   6.166   5.893  0.3302 -0.1200 -0.0418
 3388TIP3    H110128   5.603   6.113   5.834  0.3195 -1.7877  1.3653
 3388TIP3    H210129   5.464   6.172   5.849  0.0917 -1.9638  0.0828
 3389TIP3   OH210130   5.653   0.565   0.399 -0.5262  0.4168 -0.1489
 3389TIP3    H110131   5.657   0.581   0.494 -0.1522  0.9939 -0.2577
 3389TIP3    H210132   5.658   0.652   0.360 -1.7408  0.2607 -0.6771
 3390TIP3   OH210133   0.069   4.459   1.085  0.1986  0.7288 -0.3381
 3390TIP3    H110134   0.058   4.426   1.174  0.6786  0.9388 -0.1985
 3390TIP3    H210135  -0.007   4.516   1.072 -1.1551 -1.0834 -0.9073
 3391TIP3   OH210136   5.126   2.210   0.302 -0.2361  0.2924  0.7065
 3391TIP3    H110137   5.036   2.199   0.271 -0.2612  0.3999  0.7398
 3391TIP3    H210138   5.117   2.247   0.389 -0.1507  2.0769  0.0068
 3392TIP3   OH210139   7.194   1.008   2.678  0.1130  0.2225 -0.8609
 3392TIP3    H110140   7.282   0.971   2.667 -0.2237 -1.0711  0.4548
 3392TIP3    H210141   7.137   0.946   2.632 -0.1338  1.1045 -1.7836
 3393TIP3   OH210142   3.479   4.618   0.528  0.1400  0.5115 -0.1134
 3393TIP3    H110143   3.486   4.682   0.458  0.2116  0.3653 -0.2398
 3393TIP3    H210144   3.397   4.639   0.572 -0.4936 -0.1137 -0.9541
 3394TIP3   OH210145   0.300   0.389   3.350 -0.6097  0.2600  0.2745
 3394TIP3    H110146   0.350   0.448   3.294  0.0669 -0.3601  0.2157
 3394TIP3    H210147   0.296   0.436   3.434 -1.6995  1.2242 -0.2908
 3395TIP3   OH210148   6.761   4.521   3.019  0.7335 -0.2728  0.5117
 3395TIP3    H110149   6.806   4.443   2.987  1.5909  0.3850  0.0713
 3395TIP3    H210150   6.701   4.545   2.948  0.3635 -0.5998  0.7064
 3396TIP3   OH210151   4.697   0.901   3.614  0.0394 -0.3533 -0.1354
 3396TIP3    H110152   4.743   0.939   3.688 -0.5758 -1.1288  0.6702
 3396TIP3    H210153   4.729   0.950   3.538  1.5504 -0.3294  0.4873
 3397TIP3   OH210154   2.106   5.666   4.016  0.0217 -0.4466  0.0799
 3397TIP3    H110155   2.141   5.756   4.016 -1.2874  0.0858 -0.3832
 3397TIP3    H210156   2.052   5.661   3.937 -1.9003 -0.8252  1.3422
 3398TIP3   OH210157   0.555   6.730   5.087  0.1844 -0.2284 -0.2460
 3398TIP3    H110158   0.623   6.762   5.028  0.2369 -0.5600 -0.3700
 3398TIP3    H210159   0.516   6.656   5.040 -1.2412  0.8477 -0.8198
 3399TIP3   OH210160   6.446   4.594   1.461  0.0618  0.1344 -0.1037
 3399TIP3    H110161   6.515   4.530   1.483  0.5497  0.4025 -0.8265
 3399TIP3    H210162   6.444   4.653   1.536 -0.8570 -1.1043  0.8840
 3400TIP3   OH210163   1.965   0.516   1.005  0.1683  0.2184  0.1082
 3400TIP3    H110164   2.042   0.464   1.025 -0.4928 -0.9607 -0.2821
 3400TIP3    H210165   1.986   0.560   0.922 -0.2317 -1.5149 -0.9450
 3401TIP3   OH210166   6.129   0.193   5.635  0.5304  0.8225  0.2601
 3401TIP3    H110167   6.186   0.200   5.559 -1.6857 -0.3684 -1.6414
 3401TIP3    H210168   6.154   0.112   5.678 -0.7149 -0.5659 -1.5168
 3402TIP3   OH210169   0.597   2.553   4.049 -0.4929 -0.2064 -0.3831
 3402TIP3    H110170   0.554   2.596   3.975 -1.1488 -0.0276  0.0886
 3402TIP3    H210171   0.598   2.619   4.118 -0.0189 -0.4215 -0.1801
 3403TIP3   OH210172   6.347   4.110   3.419 -0.7734 -0.2886 -0.3531
 3403TIP3    H110173   6.364   4.075   3.332  1.3161  1.0110 -0.5444
 3403TIP3    H210174   6.404   4.060   3.477 -0.1976  0.5518 -0.1597
 3404TIP3   OH210175   4.429   2.299   1.213  0.2484 -0.4526  0.1149
 3404TIP3    H110176   4.420   2.264   1.302 -1.5918 -0.3138  0.0106
 3404TIP3    H210177   4.413   2.225   1.156  0.1010 -0.2602 -0.0964
 3405TIP3   OH210178   3.003   1.896   1.847 -0.7099 -0.3937 -0.0854
 3405TIP3    H110179   3.028   1.930   1.761  1.0740  0.6028  0.7504
 3405TIP3    H210180   2.949   1.965   1.885  0.2868  0.1579  0.3846
 3406TIP3   OH210181   0.937   1.031   4.740 -0.2798  0.1305  0.5390
 3406TIP3    H110182   0.844   1.033   4.760 -0.5847 -0.8007 -0.6152
 3406TIP3    H210183   0.974   0.971   4.804 -0.6520 -0.2513  0.4044
 3407TIP3   OH210184   6.924   4.625   5.144 -0.0339 -0.4078  0.1599
 3407TIP3    H110185   6.959   4.708   5.175 -3.0203  0.7433  0.7743
 3407TIP3    H210186   6.875   4.647   5.065 -0.4488 -1.6783  0.0276
 3408TIP3   OH210187   6.673   6.568   1.433  0.4520 -0.0080  0.0600
 3408TIP3    H110188   6.585   6.541   1.460  1.2854 -0.7517  2.2965
 3408TIP3    H210189   6.709   6.491   1.389 -0.0329  0.3521 -1.0078
 3409TIP3   OH210190   0.183   0.365   2.535  0.5924 -0.2576 -0.9781
 3409TIP3    H110191   0.185   0.420   2.457  0.3199 -1.0474 -1.5577
 3409TIP3    H210192   0.193   0.276   2.502  1.4023 -0.5351 -0.0243
 3410TIP3   OH210193   0.243   6.258   3.048 -0.3920 -0.1611 -0.2567
 3410TIP3    H110194   0.185   6.289   3.117 -1.1571 -1.1328 -0.4516
 3410TIP3    H210195   0.322   6.229   3.095 -0.7995 -0.5658  0.1806
 3411TIP3   OH210196   2.435   5.489   2.730 -0.2810 -0.4397 -0.4168
 3411TIP3    H110197   2.489   5.414   2.755 -1.1419 -0.6905  0.7931
 3411TIP3    H210198   2.440   5.492   2.634  1.6961 -0.5578 -0.3500
 3412TIP3   OH210199   0.956   0.659   5.885  0.0222 -0.3980  0.6148
 3412TIP3    H110200   0.982   0.595   5.818 -0.5291  0.8003 -0.8011
 3412TIP3    H210201   0.891   0.613   5.938 -0.2115 -1.0781 -0.2338
 3413TIP3   OH210202   3.078   6.348   5.651  0.2279 -0.2288  0.1932
 3413TIP3    H110203   2.987   6.321   5.636  0.0978  0.6867 -0.8144
 3413TIP3    H210204   3.127   6.267   5.657  0.0234 -0.8000 -3.6538
 3414TIP3   OH210205   7.134   0.866   0.265 -0.1711  0.1321  0.0346
 3414TIP3    H110206   7.170   0.872   0.177 -0.4659  1.0201 -0.0335
 3414TIP3    H210207   7.094   0.779   0.269  0.5875 -0.2460 -0.4120
 3415TIP3   OH210208   2.020   4.627   2.224  0.2932 -0.0250 -0.2761
 3415TIP3    H110209   2.099   4.575   2.237  0.4308  0.3927  0.5762
 3415TIP3    H210210   2.015   4.684   2.300 -0.4303  0.4758 -0.6830
 3416TIP3   OH210211   0.038   4.102   2.860 -0.1508  0.3323 -0.2859
 3416TIP3    H110212  -0.052   4.073   2.853  0.3664 -1.4928  0.0850
 3416TIP3    H210213   0.087   4.024   2.887  2.0096  0.4939 -3.2292
 3417TIP3   OH210214   5.671   5.242   3.206  0.2619 -0.0188 -0.1399
 3417TIP3    H110215   5.738   5.310   3.200  0.8464 -0.5339  0.4064
 3417TIP3    H210216   5.693   5.181   3.136  0.3611 -0.1792  0.0292
 3418TIP3   OH210217   4.938   3.228   1.769  0.0643 -0.6981 -0.1485
 3418TIP3    H110218   4.857   3.195   1.729 -0.5580 -1.4162  1.6207
 3418TIP3    H210219   4.936   3.322   1.751 -0.9148 -0.7781 -0.5531
 3419TIP3   OH210220   3.181   1.160   1.867  0.2792 -0.0938 -0.3384
 3419TIP3    H110221   3.227   1.116   1.795  0.1817 -0.6004 -0.0999
 3419TIP3    H210222   3.134   1.089   1.911  2.4601 -0.3133  1.8834
 3420TIP3   OH210223   5.777   1.091   2.180 -0.2263  0.4193  0.0707
 3420TIP3    H110224   5.703   1.037   2.153  0.2973 -0.5296  0.4769
 3420TIP3    H210225   5.845   1.072   2.115  0.2530 -0.0984  0.7031
 3421TIP3   OH210226   1.622   2.429   1.631  0.4733  0.1563 -0.2076
 3421TIP3    H110227   1.713   2.398   1.630  1.1437  1.7818  2.1441
 3421TIP3    H210228   1.574   2.360   1.677  0.5192 -0.6119 -1.2727
 3422TIP3   OH210229   6.152   5.803   5.397  0.3490 -0.2652 -0.0415
 3422TIP3    H110230   6.112   5.721   5.368  1.2819 -0.8233  0.2205
 3422TIP3    H210231   6.228   5.814   5.340  0.0538  0.5843 -0.2821
 3423TIP3   OH210232   6.400   5.032   1.338 -0.4073  0.3738  0.5254
 3423TIP3    H110233   6.450   4.978   1.398  0.4197  0.2158 -0.2834
 3423TIP3    H210234   6.345   5.087   1.394  1.7570  1.6407  1.5233
 3424TIP3   OH210235   2.623   1.094   5.053 -0.2310 -0.1489  0.3480
 3424TIP3    H110236   2.629   1.016   5.108 -0.5624 -0.5529 -0.1849
 3424TIP3    H210237   2.615   1.061   4.964 -0.5289  0.4887  0.1296
 3425TIP3   OH210238   1.111   5.911   5.014 -0.0224 -0.1199 -0.1348
 3425TIP3    H110239   1.021   5.905   4.981 -0.2489 -1.4645  0.6438
 3425TIP3    H210240   1.153   5.831   4.981  0.1316 -0.8050  1.6109
 3426TIP3   OH210241   6.373   0.916   4.831  0.1760  0.0740  0.7672
 3426TIP3    H110242   6.456   0.962   4.826  0.1004  0.0944 -0.4927
 3426TIP3    H210243   6.396   0.823   4.838  0.3116  0.0590  0.1670
 3427TIP3   OH210244   4.473   3.425   0.171  0.0778 -0.6042  0.1050
 3427TIP3    H110245   4.398   3.475   0.140  1.6218  1.4941 -0.4284
 3427TIP3    H210246   4.441   3.334   0.173 -1.8570 -0.0752 -2.0096
 3428TIP3   OH210247   2.194   6.056   0.306  0.8698  0.2251  0.5353
 3428TIP3    H110248   2.279   6.071   0.346  0.0936 -0.6316  2.6312
 3428TIP3    H210249   2.190   5.962   0.292 -0.5769 -0.0967  2.6384
 3429TIP3   OH210250   6.301   5.684   4.571  0.6046 -0.0724  0.0651
 3429TIP3    H110251   6.373   5.634   4.609  1.3594  0.1308 -1.0557
 3429TIP3    H210252   6.342   5.762   4.534 -0.0945 -0.2341 -1.1174
 3430TIP3   OH210253   2.337   4.825   2.908 -0.0557 -0.1643  0.3540
 3430TIP3    H110254   2.316   4.897   2.967 -0.1980 -0.3583  0.5418
 3430TIP3    H210255   2.395   4.768   2.959  1.2719  0.5714 -0.2902
 3431TIP3   OH210256   2.604   4.681   1.292  0.7147  0.6508  0.2316
 3431TIP3    H110257   2.626   4.610   1.352 -0.5766 -0.9377 -1.0989
 3431TIP3    H210258   2.688   4.713   1.260  1.3895 -3.0839 -2.2645
 3432TIP3   OH210259   0.346   4.415   3.248 -0.4847 -0.3346 -0.1950
 3432TIP3    H110260   0.440   4.430   3.242 -0.7629  2.8592  1.2614
 3432TIP3    H210261   0.337   4.345   3.313  0.8632 -1.4462 -1.1434
 3433TIP3   OH210262   2.732   2.635   5.060  0.1453 -0.3872 -0.0782
 3433TIP3    H110263   2.764   2.689   5.133  1.2937  1.2054 -1.6602
 3433TIP3    H210264   2.649   2.675   5.036 -0.2883 -0.9820  0.3983
 3434TIP3   OH210265   6.943   0.888   3.957 -0.4978  0.8818  0.0653
 3434TIP3    H110266   7.027   0.858   3.990 -0.7149  0.7238  0.4804
 3434TIP3    H210267   6.886   0.890   4.033 -0.4425  2.5926  0.1028
 3435TIP3   OH210268   3.754   1.392   2.755  0.2487  0.0098 -0.5748
 3435TIP3    H110269   3.765   1.337   2.677  0.8786  0.4314 -0.7923
 3435TIP3    H210270   3.668   1.432   2.744  0.4897  0.3583 -1.2456
 3436TIP3   OH210271   5.922   6.425   0.663  0.4222 -0.4670  0.5246
 3436TIP3    H110272   5.951   6.444   0.574 -0.6444  1.6290  0.5730
 3436TIP3    H210273   5.924   6.329   0.669 -1.6087 -0.8248 -2.4796
 3437TIP3   OH210274   1.592   0.692   1.000 -0.3400  0.0795  0.9399
 3437TIP3    H110275   1.558   0.716   1.086 -0.9843  0.7537  0.5077
 3437TIP3    H210276   1.637   0.771   0.969  0.7086 -0.4564  1.0492
 3438TIP3   OH210277   1.864   4.147   5.088 -0.7352 -0.5167 -0.2653
 3438TIP3    H110278   1.848   4.161   4.995 -2.4001  0.5847  0.1297
 3438TIP3    H210279   1.898   4.230   5.120  0.3815 -1.0624  0.0381
 3439TIP3   OH210280   4.194   5.362   0.944  0.4433 -0.1261  0.1698
 3439TIP3    H110281   4.168   5.418   1.017 -0.5341  0.9340 -0.9510
 3439TIP3    H210282   4.115   5.356   0.889  1.1185 -0.9958 -0.7372
 3440TIP3   OH210283   3.204   0.807   0.640  0.0519  0.2149  0.0304
 3440TIP3    H110284   3.214   0.884   0.585 -0.2925 -0.1942 -0.6149
 3440TIP3    H210285   3.286   0.801   0.689  0.5639  0.2827 -0.8185
 3441TIP3   OH210286   0.240   3.275   5.593  0.1257  0.2393 -0.1717
 3441TIP3    H110287   0.219   3.299   5.683  0.4626 -0.5063  0.1117
 3441TIP3    H210288   0.205   3.347   5.540  0.6652  1.0972  0.6097
 3442TIP3   OH210289   5.781   5.355   1.612  0.3697 -0.4585  0.1084
 3442TIP3    H110290   5.821   5.415   1.676 -1.3974  0.3903  0.4752
 3442TIP3    H210291   5.797   5.397   1.528 -0.0658  0.0776  0.2859
 3443TIP3   OH210292   5.081   6.184   2.352 -0.3741 -0.1748 -0.0513
 3443TIP3    H110293   5.006   6.238   2.327 -0.1260 -1.0126 -2.9844
 3443TIP3    H210294   5.155   6.223   2.306  0.5518 -0.8028  0.8555
 3444TIP3   OH210295   7.111   4.725   2.438  0.0904 -0.1428  0.0014
 3444TIP3    H110296   7.071   4.759   2.358  1.1841 -0.1766 -0.5752
 3444TIP3    H210297   7.149   4.642   2.412  1.1330  0.2081  0.3523
 3445TIP3   OH210298   1.844   5.756   4.240  0.5990  0.0411 -0.6404
 3445TIP3    H110299   1.833   5.685   4.176 -0.9859  0.1710 -0.5487
 3445TIP3    H210300   1.909   5.723   4.301  0.6924 -0.8920 -1.2188
 3446TIP3   OH210301   5.001   1.164   2.201 -0.2974  0.4864 -0.1663
 3446TIP3    H110302   4.970   1.077   2.228  1.8558 -0.6453 -1.0506
 3446TIP3    H210303   4.985   1.220   2.277  1.4311 -1.5141  1.8183
 3447TIP3   OH210304   0.581   0.375   1.114 -0.0791  0.1538  0.3443
 3447TIP3    H110305   0.603   0.379   1.020 -0.1100  0.3435  0.3442
 3447TIP3    H210306   0.658   0.411   1.157 -1.7175  4.4657  0.1662
 3448TIP3   OH210307   5.307   6.111   5.810  0.1334 -0.7938  0.6311
 3448TIP3    H110308   5.304   6.065   5.726  1.4433  0.2536 -0.0358
 3448TIP3    H210309   5.215   6.121   5.835 -0.2214 -2.9204  0.3687
 3449TIP3   OH210310   1.507   1.101   1.586  0.5785 -0.3027  0.3239
 3449TIP3    H110311   1.524   1.092   1.679  0.7823  0.5080  0.3674
 3449TIP3    H210312   1.578   1.156   1.553 -0.9349  1.6769  0.1918
 3450TIP3   OH210313   2.600   4.401   2.690 -0.1373  0.0456 -0.1604
 3450TIP3    H110314   2.571   4.313   2.665  0.6471 -0.3595  0.3188
 3450TIP3    H210315   2.665   4.424   2.624 -3.0793  1.9437 -2.6930
 3451TIP3   OH210316   4.256   2.856   0.077  0.2644 -0.0540 -0.2954
 3451TIP3    H110317   4.239   2.949   0.064  1.9004  0.1385 -1.4520
 3451TIP3    H210318   4.175   2.820   0.113  0.1639  2.1387  1.9538
 3452TIP3   OH210319   1.725   4.677   0.956  0.3270 -0.3416  0.4973
 3452TIP3    H110320   1.662   4.745   0.980 -0.4691 -0.7193 -0.4387
 3452TIP3    H210321   1.784   4.670   1.031  0.4604  1.4122  0.5891
 3453TIP3   OH210322   0.024   3.477   5.716 -0.7635 -0.1827 -0.3834
 3453TIP3    H110323  -0.064   3.511   5.735 -0.6167 -0.4145  0.7324
 3453TIP3    H210324   0.056   3.535   5.646 -1.7422 -0.0076 -0.7106
 3454TIP3   OH210325   1.153   0.755   1.489  0.3101  0.2610 -0.1248
 3454TIP3    H110326   1.227   0.812   1.470  0.7476  0.1028  1.0744
 3454TIP3    H210327   1.157   0.739   1.583 -1.5756  0.7031  0.0686
 3455TIP3   OH210328   6.758   6.201   5.689 -0.1499 -0.1520  0.4294
 3455TIP3    H110329   6.723   6.212   5.778  0.7680 -1.7542  1.0275
 3455TIP3    H210330   6.728   6.114   5.662  2.1895 -1.0188  0.4388
 3456TIP3   OH210331   0.922   0.948   2.630  0.2136  0.3774 -0.0474
 3456TIP3    H110332   0.925   1.043   2.623 -0.4386  0.3067 -1.8165
 3456TIP3    H210333   0.829   0.927   2.641  0.1458 -0.0928 -1.2601
 3457TIP3   OH210334   1.492   4.363   1.405 -0.0838 -0.2999  0.1097
 3457TIP3    H110335   1.533   4.449   1.398  1.4705 -1.0912 -0.8157
 3457TIP3    H210336   1.431   4.360   1.331 -0.6283  0.2227  0.5175
 3458TIP3   OH210337   6.971   5.078   1.288  0.2408 -0.0743 -0.3468
 3458TIP3    H110338   6.888   5.037   1.313  0.9533 -0.5352  1.4139
 3458TIP3    H210339   7.029   5.004   1.269  0.4334  0.2397 -1.0234
 3459TIP3   OH210340   0.231   3.909   5.397 -0.3993  0.2731 -0.6120
 3459TIP3    H110341   0.209   3.997   5.365 -0.6413  1.1511  1.7568
 3459TIP3    H210342   0.171   3.851   5.351 -0.8746  1.4531 -1.5505
 3460TIP3   OH210343   2.917   1.290   5.132 -0.4563 -0.0233  0.4109
 3460TIP3    H110344   2.937   1.210   5.180 -1.2602 -0.6957 -0.3389
 3460TIP3    H210345   2.874   1.347   5.195 -0.4092 -0.4090  0.7921
 3461TIP3   OH210346   1.022   4.962   0.981  0.7001 -0.1779 -0.2268
 3461TIP3    H110347   0.993   4.951   0.890 -0.4083 -1.5497  0.2522
 3461TIP3    H210348   0.941   4.968   1.031  1.3000  1.2904  0.6247
 3462TIP3   OH210349   4.503   2.217   3.550  0.1020 -0.7018  0.2907
 3462TIP3    H110350   4.541   2.235   3.463  0.4462 -1.9348  0.1760
 3462TIP3    H210351   4.428   2.276   3.555 -0.9859 -1.8084 -1.5781
 3463TIP3   OH210352   6.375   1.784   3.519 -0.4271 -0.0182  0.4300
 3463TIP3    H110353   6.395   1.738   3.601 -0.1048  0.4531  0.6205
 3463TIP3    H210354   6.287   1.820   3.534  0.1560  1.1973  1.0987
 3464TIP3   OH210355   3.565   3.201   1.868  0.3981  0.2238 -0.8825
 3464TIP3    H110356   3.567   3.131   1.934  0.0062  0.1648 -0.9293
 3464TIP3    H210357   3.475   3.235   1.871  0.9833  1.7661  0.2069
 3465TIP3   OH210358   4.516   5.106   1.040 -0.0765  0.4008 -0.2055
 3465TIP3    H110359   4.550   5.156   0.967  0.1688  0.1553 -0.2589
 3465TIP3    H210360   4.427   5.081   1.014  0.0477  0.2261 -0.4631
 3466TIP3   OH210361   4.584   2.512   2.592 -0.3404 -0.2531  0.5135
 3466TIP3    H110362   4.495   2.478   2.605  0.0706 -0.4075  3.9214
 3466TIP3    H210363   4.636   2.468   2.659  2.2665  0.1957 -1.0797
 3467TIP3   OH210364   2.376   3.085   0.580 -0.3393 -0.6756 -0.3316
 3467TIP3    H110365   2.333   3.087   0.494  0.6875  0.5626 -0.8608
 3467TIP3    H210366   2.321   3.140   0.636 -1.2284 -1.8115 -0.0672
 3468TIP3   OH210367   2.665   1.032   1.779 -0.4654 -0.5077  0.0652
 3468TIP3    H110368   2.680   1.071   1.865 -2.2099 -1.1978  0.7310
 3468TIP3    H210369   2.752   1.002   1.750 -0.0319 -1.4160  2.1587
 3469TIP3   OH210370   6.740   1.081   1.974  0.4801  0.2035 -0.6052
 3469TIP3    H110371   6.683   1.123   1.910  0.1473 -0.4976 -0.7759
 3469TIP3    H210372   6.816   1.053   1.923  0.2577 -0.2704 -0.6830
 3470TIP3   OH210373   4.650   4.132   3.020 -0.0937 -0.1448 -0.6783
 3470TIP3    H110374   4.643   4.038   3.004 -0.1920 -0.4796  1.1681
 3470TIP3    H210375   4.738   4.144   3.053 -0.2887  0.3188 -0.3235
 3471TIP3   OH210376   6.963   4.076   5.640 -0.2069  0.3820  0.2640
 3471TIP3    H110377   6.918   4.155   5.610 -0.3111  0.0831 -0.3902
 3471TIP3    H210378   7.056   4.100   5.641  0.1081 -0.3004 -2.7734
 3472TIP3   OH210379   4.717   1.253   2.628  0.1265  0.8653  0.3280
 3472TIP3    H110380   4.701   1.313   2.700 -0.4545 -0.8441  1.6920
 3472TIP3    H210381   4.631   1.216   2.607  0.6587 -0.6319  0.6155
 3473TIP3   OH210382   4.840   6.250   3.237  0.0300  0.5026  0.2990
 3473TIP3    H110383   4.814   6.342   3.243  0.7970  0.7863 -0.6446
 3473TIP3    H210384   4.931   6.248   3.267  0.0202  0.0466  0.3157
 3474TIP3   OH210385   5.034   6.436   0.193  0.1339  0.4236 -0.4000
 3474TIP3    H110386   5.125   6.467   0.188 -0.0422  0.7920 -1.7498
 3474TIP3    H210387   4.982   6.516   0.187 -0.2931  0.2102  0.3604
 3475TIP3   OH210388   5.269   1.989   0.266 -0.1656 -0.8384  0.4313
 3475TIP3    H110389   5.361   2.006   0.282 -0.3537 -0.3551  1.0618
 3475TIP3    H210390   5.225   2.073   0.284 -0.8198 -1.2940  1.0215
 3476TIP3   OH210391   1.792   0.121   0.575 -0.0841  0.4645 -0.0410
 3476TIP3    H110392   1.732   0.191   0.600 -0.1524  0.2212  0.4907
 3476TIP3    H210393   1.809   0.136   0.482 -0.9612  0.5420 -0.1998
 3477TIP3   OH210394   6.514   1.905   3.870  0.6207 -0.3961 -0.5318
 3477TIP3    H110395   6.419   1.902   3.862  0.4441 -0.8126  1.2763
 3477TIP3    H210396   6.545   1.922   3.781 -1.1232 -0.4080 -1.1832
 3478TIP3   OH210397   0.869   2.832   2.052 -0.3010 -0.4230 -0.4565
 3478TIP3    H110398   0.880   2.925   2.070 -0.1152 -0.4047 -0.6546
 3478TIP3    H210399   0.872   2.789   2.137 -1.5880 -0.1314 -0.2474
 3479TIP3   OH210400   0.875   5.974   4.741  0.2164  0.2542  0.0483
 3479TIP3    H110401   0.836   5.927   4.667 -1.3930  0.8916  0.4460
 3479TIP3    H210402   0.859   5.917   4.816  1.6043 -0.2640 -0.0229
 3480TIP3   OH210403   1.482   1.067   3.768  0.7884 -0.2447 -0.4428
 3480TIP3    H110404   1.458   1.001   3.703  1.5089  0.5782 -1.5858
 3480TIP3    H210405   1.408   1.069   3.829  0.8055 -2.1833 -0.2842
 3481TIP3   OH210406   1.491   0.113   3.101 -0.2347 -0.4664  0.2298
 3481TIP3    H110407   1.524   0.131   3.013  1.9009  1.1827  1.2963
 3481TIP3    H210408   1.396   0.113   3.090 -0.0673 -2.3972 -2.4209
 3482TIP3   OH210409   0.311   0.942   1.296 -0.1805 -0.5255 -0.5659
 3482TIP3    H110410   0.279   0.866   1.345  2.1299 -1.1563  0.0836
 3482TIP3    H210411   0.383   0.908   1.243  0.2576  1.0160 -1.0215
 3483TIP3   OH210412   1.995   0.692   2.853  0.2036  0.1721 -0.6256
 3483TIP3    H110413   2.086   0.716   2.865 -0.1899  0.3379  3.0314
 3483TIP3    H210414   1.967   0.741   2.776  2.5547  2.0098 -0.4065
 3484TIP3   OH210415   0.152   0.728   1.384 -0.0064 -0.0670 -0.1119
 3484TIP3    H110416   0.123   0.656   1.329  1.0534 -0.8318  0.3043
 3484TIP3    H210417   0.170   0.688   1.469 -0.8366  0.9555  0.5767
 3485TIP3   OH210418   6.992   0.080   3.873  0.2830 -0.2348  0.0613
 3485TIP3    H110419   6.945   0.078   3.789 -0.3569 -0.4789  0.4230
 3485TIP3    H210420   6.979   0.169   3.906 -0.5864 -0.5217  0.5248
 3486TIP3   OH210421   1.714   0.572   0.339  0.4823 -0.1094  0.1737
 3486TIP3    H110422   1.735   0.531   0.255  1.7260  0.0584  0.3841
 3486TIP3    H210423   1.657   0.509   0.383 -0.8384  0.1528 -1.1044
 3487TIP3   OH210424   5.069   0.616   2.501 -0.4678 -0.3134  0.2587
 3487TIP3    H110425   5.105   0.576   2.579 -2.8737 -1.2585  0.9664
 3487TIP3    H210426   4.986   0.570   2.485 -2.4237  2.9601 -0.0458
 3488TIP3   OH210427   5.654   3.693   0.909  0.2237  0.0261 -0.3168
 3488TIP3    H110428   5.601   3.623   0.869  0.4926 -1.3094  1.5346
 3488TIP3    H210429   5.592   3.742   0.963  0.5808 -0.7072  0.7890
 3489TIP3   OH210430   6.095   6.539   0.412  0.2416 -0.0046  0.4071
 3489TIP3    H110431   6.123   6.447   0.420  1.8604  0.2111 -1.7820
 3489TIP3    H210432   6.140   6.571   0.334 -2.9243  1.7187 -0.9126
 3490TIP3   OH210433   0.083   5.299   4.916  0.3487 -0.1821  0.3967
 3490TIP3    H110434   0.150   5.314   4.982 -0.2528  1.9566  0.6018
 3490TIP3    H210435   0.130   5.262   4.841  1.6354  0.5672  0.8075
 3491TIP3   OH210436   0.938   0.240   0.646  0.6613 -0.1325  0.5772
 3491TIP3    H110437   0.872   0.308   0.632  0.3015 -0.5693  0.1339
 3491TIP3    H210438   0.999   0.250   0.573 -0.2170 -1.2393 -0.3427
 3492TIP3   OH210439   2.751   3.280   3.414 -0.0009  0.4381 -0.5788
 3492TIP3    H110440   2.845   3.282   3.399  0.3686  0.3361  1.4683
 3492TIP3    H210441   2.715   3.339   3.347  1.5210  0.6780 -1.2204
 3493TIP3   OH210442   4.518   5.853   3.087  0.3620 -0.1411 -0.2223
 3493TIP3    H110443   4.532   5.834   2.994 -0.2010  0.5016 -0.4473
 3493TIP3    H210444   4.554   5.941   3.099  1.2018 -0.5534  0.3684
 3494TIP3   OH210445   4.482   3.968   3.516 -0.7499 -0.0611  0.3243
 3494TIP3    H110446   4.461   4.046   3.466 -3.0998 -0.1911  0.9609
 3494TIP3    H210447   4.413   3.906   3.494  0.5507 -1.6503  0.5232
 3495TIP3   OH210448   7.218   5.240   1.225  0.0488  0.4989 -0.0901
 3495TIP3    H110449   7.161   5.200   1.160  0.3417 -1.1743  0.6348
 3495TIP3    H210450   7.165   5.310   1.263 -0.5307  0.7432 -1.3114
 3496TIP3   OH210451   1.099   1.876   2.110 -0.4825  0.4826  0.1924
 3496TIP3    H110452   1.100   1.963   2.151  2.1047  0.1118  1.1506
 3496TIP3    H210453   1.062   1.819   2.178  0.1755  0.4675  0.5461
 3497TIP3   OH210454   5.944   1.168   3.973 -0.1081  0.2825  0.2256
 3497TIP3    H110455   5.939   1.120   3.890 -0.7182 -2.2301  1.5897
 3497TIP3    H210456   6.021   1.224   3.963 -0.1867  0.0867 -2.0389
 3498TIP3   OH210457   5.633   6.225   1.988 -0.0756 -0.3368  0.1603
 3498TIP3    H110458   5.586   6.144   2.006 -0.1677  0.1630  2.4425
 3498TIP3    H210459   5.674   6.248   2.071  2.9817  0.0767 -1.3039
 3499TIP3   OH210460   1.112   6.311   3.549 -0.1636  0.0520 -0.2911
 3499TIP3    H110461   1.056   6.247   3.593 -0.0589 -0.3483 -0.7269
 3499TIP3    H210462   1.068   6.395   3.560 -1.0180 -0.3037 -0.9187
 3500TIP3   OH210463   0.868   5.436   0.531  0.4340  0.2980 -0.1728
 3500TIP3    H110464   0.796   5.379   0.506 -0.1787  0.9965 -0.0411
 3500TIP3    H210465   0.897   5.403   0.615  1.3473 -0.9842 -0.9583
 3501TIP3   OH210466   4.459   3.704   1.434  0.2967  1.0883  0.0287
 3501TIP3    H110467   4.491   3.705   1.524 -0.6201 -1.5380  0.4718
 3501TIP3    H210468   4.374   3.660   1.439  0.1068  1.0797 -2.0983
 3502TIP3   OH210469   6.503   2.349   4.954 -0.4213  0.7020  0.3686
 3502TIP3    H110470   6.591   2.354   4.991 -1.0708  0.0071  2.1267
 3502TIP3    H210471   6.505   2.271   4.899  0.1617  0.8860  0.1243
 3503TIP3   OH210472   6.964   0.025   0.626  0.2766  0.2300  0.3404
 3503TIP3    H110473   6.940  -0.043   0.563 -0.1234  0.2669  0.4492
 3503TIP3    H210474   6.902   0.096   0.610  0.5916  0.5043  0.3346
 3504TIP3   OH210475   4.975   3.112   4.504 -0.2391 -0.0410 -0.1909
 3504TIP3    H110476   5.014   3.198   4.519  0.9304 -0.7312  0.9340
 3504TIP3    H210477   4.881   3.129   4.493  0.2055  1.5388 -1.7932
 3505TIP3   OH210478   4.182   4.331   2.849  0.8203  0.0039 -0.0384
 3505TIP3    H110479   4.202   4.390   2.922 -0.6809 -0.7759  1.0557
 3505TIP3    H210480   4.088   4.313   2.858  0.5544  0.0143 -2.2782
 3506TIP3   OH210481   1.057   2.558   0.101 -0.3378 -0.3743 -0.0049
 3506TIP3    H110482   1.128   2.575   0.163  0.8510 -0.4367 -1.3288
 3506TIP3    H210483   1.023   2.645   0.081  2.3222  0.1904 -2.7462
 3507TIP3   OH210484   4.564   1.149   4.498  0.1368  0.0279 -0.3697
 3507TIP3    H110485   4.531   1.139   4.409 -1.2914  0.7784  0.0421
 3507TIP3    H210486   4.517   1.083   4.549  2.6241 -2.0127 -0.5040
 3508TIP3   OH210487   1.322   6.652   0.258 -0.6534  0.3859  0.2871
 3508TIP3    H110488   1.309   6.644   0.164  0.6322 -0.6396  0.1774
 3508TIP3    H210489   1.233   6.657   0.294 -1.1478  1.9393 -1.0445
 3509TIP3   OH210490   6.529   1.980   3.620  0.2251  0.0674  0.0366
 3509TIP3    H110491   6.523   1.898   3.570  2.0997 -0.0274 -0.0850
 3509TIP3    H210492   6.614   2.016   3.597 -0.9783  2.6651 -0.7993
 3510TIP3   OH210493   2.771   4.636   4.073  0.0241 -0.0176  0.2926
 3510TIP3    H110494   2.677   4.616   4.080 -0.1635  0.8429  0.3960
 3510TIP3    H210495   2.785   4.650   3.980 -0.1325  0.6515  0.3638
 3511TIP3   OH210496   2.342   6.194   4.438  0.5894 -0.5306 -0.0809
 3511TIP3    H110497   2.271   6.200   4.502 -0.1074 -2.5212 -0.5789
 3511TIP3    H210498   2.421   6.215   4.488 -0.1509 -0.0702  0.9298
 3512TIP3   OH210499   6.472   4.832   4.212 -0.2704 -0.1420  0.4941
 3512TIP3    H110500   6.547   4.783   4.179 -1.0569 -0.6819 -0.5325
 3512TIP3    H210501   6.482   4.831   4.307 -0.4506 -2.6278  0.5448
 3513TIP3   OH210502   5.458   2.191   0.607  0.9282  0.1220 -0.6211
 3513TIP3    H110503   5.401   2.226   0.675 -0.1010  0.3376 -1.5622
 3513TIP3    H210504   5.530   2.149   0.654 -0.8239 -1.5907  0.6730
 3514TIP3   OH210505   6.576   5.066   5.558 -0.2365 -0.0166 -0.0112
 3514TIP3    H110506   6.556   4.978   5.527  0.0494  0.1856 -0.7872
 3514TIP3    H210507   6.502   5.119   5.530 -0.4264 -0.0078  0.4890
 3515TIP3   OH210508   2.704   5.569   2.857  0.0942  0.3886 -0.3414
 3515TIP3    H110509   2.732   5.481   2.831  1.9889  0.2711  1.7105
 3515TIP3    H210510   2.780   5.625   2.838 -0.3197  1.1775  0.2277
 3516TIP3   OH210511   2.998   4.447   3.968 -0.3455 -0.1744 -0.3350
 3516TIP3    H110512   2.917   4.430   3.921  0.2306  1.0404 -1.8588
 3516TIP3    H210513   2.971   4.461   4.059 -2.1793  2.3821 -1.1512
 3517TIP3   OH210514   4.392   1.543   3.333 -0.9310 -0.2077 -0.1149
 3517TIP3    H110515   4.336   1.487   3.278 -0.2132 -0.8082 -0.2497
 3517TIP3    H210516   4.423   1.612   3.274 -1.3640  0.0135 -0.0872
 3518TIP3   OH210517   0.122   2.446   1.211  0.5709 -0.2656 -0.1896
 3518TIP3    H110518   0.126   2.351   1.214 -1.3035 -0.4008 -0.5735
 3518TIP3    H210519   0.055   2.466   1.146 -0.5593  1.2412  1.3247
 3519TIP3   OH210520   4.393   5.947   1.626  0.4468 -0.4087  0.0459
 3519TIP3    H110521   4.479   5.932   1.586  0.7955  1.5997 -0.1107
 3519TIP3    H210522   4.362   6.028   1.585 -0.4995  0.1346  1.7405
 3520TIP3   OH210523   4.914   6.655   4.531 -0.4892  0.9620 -0.0363
 3520TIP3    H110524   4.833   6.659   4.481 -1.4186  1.9871  1.4610
 3520TIP3    H210525   4.909   6.572   4.579  0.4087 -0.0277 -1.5518
 3521TIP3   OH210526   4.490   1.502   4.388  0.2998 -0.3888  0.1124
 3521TIP3    H110527   4.466   1.532   4.300  0.2560 -1.1815 -0.1615
 3521TIP3    H210528   4.529   1.416   4.373  0.2553 -0.5486  0.8800
 3522TIP3   OH210529   2.579   5.853   0.467  1.0298  0.5776  0.0428
 3522TIP3    H110530   2.521   5.795   0.417  0.8824  1.5123 -0.9174
 3522TIP3    H210531   2.657   5.800   0.483  0.2902 -0.4006  0.5632
 3523TIP3   OH210532   6.996   2.899   4.585 -0.0890  0.1445  0.2743
 3523TIP3    H110533   7.022   2.836   4.652  0.5111 -1.1119 -1.0904
 3523TIP3    H210534   6.990   2.848   4.504  0.0037  1.7538 -0.8063
 3524TIP3   OH210535   4.696   5.118   1.609  0.5978 -0.1532 -0.3008
 3524TIP3    H110536   4.701   5.109   1.514  0.7964 -1.2005 -0.2123
 3524TIP3    H210537   4.727   5.033   1.642 -1.5900 -0.6609  0.6478
 3525TIP3   OH210538   2.613   6.108   3.507  0.1209 -0.2325  0.0693
 3525TIP3    H110539   2.643   6.197   3.492  0.2631 -0.1623  0.7351
 3525TIP3    H210540   2.635   6.061   3.426 -0.4651  0.4528 -0.5088
 3526TIP3   OH210541   0.830   0.548   5.183  0.5031  0.0449 -0.3367
 3526TIP3    H110542   0.884   0.472   5.161 -1.4400 -1.4679 -0.1731
 3526TIP3    H210543   0.820   0.544   5.278 -0.7601 -0.3583 -0.4678
 3527TIP3   OH210544   5.390   0.868   1.019 -0.1414 -0.3713  0.0413
 3527TIP3    H110545   5.326   0.812   0.975  0.2213 -0.3667 -0.4992
 3527TIP3    H210546   5.395   0.833   1.108 -1.7180  0.3093  0.4382
 3528TIP3   OH210547   0.862   6.606   2.713 -0.1328 -0.0798 -0.4653
 3528TIP3    H110548   0.912   6.660   2.652 -1.1490  0.6046 -0.7254
 3528TIP3    H210549   0.927   6.571   2.774  0.5699  1.3723 -0.3476
 3529TIP3   OH210550   1.045   0.942   3.416 -0.4484 -0.5666 -0.0586
 3529TIP3    H110551   1.094   0.885   3.474 -0.8751  0.3188  1.2062
 3529TIP3    H210552   0.960   0.953   3.458 -0.6723  0.3168 -0.7036
 3530TIP3   OH210553   2.679   2.229   4.475  0.5559 -0.2746 -0.1268
 3530TIP3    H110554   2.770   2.203   4.490  1.4533  1.7298 -1.6695
 3530TIP3    H210555   2.640   2.154   4.430  1.7505 -0.7407 -0.4261
 3531TIP3   OH210556   3.445   3.637   3.276  0.1329  0.6032  0.3108
 3531TIP3    H110557   3.533   3.674   3.285  0.8713 -0.5313 -1.6013
 3531TIP3    H210558   3.387   3.702   3.315  1.7027  2.0192  0.3893
 3532TIP3   OH210559   1.015   3.863   5.403 -0.0315 -0.0979 -0.4352
 3532TIP3    H110560   0.979   3.777   5.380 -0.8045  0.0073  0.3395
 3532TIP3    H210561   1.108   3.846   5.421  0.6580 -0.2053 -3.4569
 3533TIP3   OH210562   3.183   3.320   5.024  0.0058 -0.0506 -0.6962
 3533TIP3    H110563   3.208   3.334   4.933 -1.7875  0.5678 -1.1233
 3533TIP3    H210564   3.119   3.388   5.043  0.0862 -0.3777  0.9426
 3534TIP3   OH210565   3.237   0.204   1.649  0.4166  0.8600 -0.7859
 3534TIP3    H110566   3.158   0.231   1.695  0.5332 -0.2582  0.1158
 3534TIP3    H210567   3.307   0.254   1.691  0.3669  0.7625 -0.5855
 3535TIP3   OH210568   3.863   5.388   4.506  0.3205  0.2755 -0.5244
 3535TIP3    H110569   3.940   5.407   4.561 -0.7241  1.2725  0.6707
 3535TIP3    H210570   3.822   5.473   4.493 -0.4913 -0.2211 -1.3072
 3536TIP3   OH210571   0.145   5.063   0.142 -0.5464 -0.6938  0.6902
 3536TIP3    H110572   0.075   5.102   0.089 -1.7070 -2.0227  1.1811
 3536TIP3    H210573   0.158   5.124   0.214 -3.0543 -1.5772  2.0216
 3537TIP3   OH210574   4.495   3.226   1.828 -0.1769 -0.6085 -0.1242
 3537TIP3    H110575   4.555   3.290   1.868 -1.2824  0.6359 -0.3793
 3537TIP3    H210576   4.506   3.240   1.733  0.9893 -2.1743 -0.2480
 3538TIP3   OH210577   1.303   6.093   0.486  0.2989  0.1907  0.3291
 3538TIP3    H110578   1.234   6.145   0.527  0.1174 -0.1189  0.4161
 3538TIP3    H210579   1.378   6.103   0.544 -0.3024 -1.2021  1.3847
 3539TIP3   OH210580   3.001   3.447   5.803  0.3031  0.7025 -0.7144
 3539TIP3    H110581   3.061   3.423   5.732  0.1998 -0.4146 -0.4433
 3539TIP3    H210582   3.026   3.537   5.826  1.7028  0.3500 -0.7713
 3540TIP3   OH210583   2.777   0.863   1.483 -0.0423 -0.0414  0.4300
 3540TIP3    H110584   2.799   0.817   1.402 -0.1669  0.1197  0.3038
 3540TIP3    H210585   2.722   0.801   1.532 -0.5090  0.1119  0.1003
 3541TIP3   OH210586   2.573   1.793   5.513 -0.0698  0.1959 -0.0683
 3541TIP3    H110587   2.637   1.793   5.441 -0.4013  0.1182 -0.3653
 3541TIP3    H210588   2.614   1.740   5.581  0.7535  1.2220  0.2614
 3542TIP3   OH210589   4.360   6.810   4.370 -0.4155 -0.0189  0.4485
 3542TIP3    H110590   4.315   6.736   4.410 -1.9120  0.5105 -0.1795
 3542TIP3    H210591   4.452   6.782   4.364 -0.7206 -1.3188  1.3320
 3543TIP3   OH210592   5.619   5.850   5.309 -0.2565 -0.4729  0.2192
 3543TIP3    H110593   5.564   5.929   5.315  0.9018  0.2398  2.4169
 3543TIP3    H210594   5.705   5.883   5.284 -0.0021 -1.1816  0.1446
 3544TIP3   OH210595   6.056   4.195   2.206  0.1321  0.4923 -0.2022
 3544TIP3    H110596   6.057   4.107   2.167 -2.2649  0.2329  0.1652
 3544TIP3    H210597   6.068   4.179   2.300 -2.7075  0.2428  0.1969
 3545TIP3   OH210598   4.628   2.513   2.328  0.6228  0.0186 -0.3025
 3545TIP3    H110599   4.564   2.565   2.278 -0.9965 -1.8390 -0.2728
 3545TIP3    H210600   4.611   2.537   2.419  1.0150  0.6201 -0.3777
 3546TIP3   OH210601   5.099   1.786   1.508 -0.4955  0.0879  0.2071
 3546TIP3    H110602   5.037   1.743   1.449  1.6748  0.7211 -2.7509
 3546TIP3    H210603   5.052   1.864   1.538 -1.2568  0.5156 -1.8634
 3547TIP3   OH210604   4.566   5.118   5.335 -0.1411 -0.5060  0.5283
 3547TIP3    H110605   4.518   5.131   5.253  0.1471  1.6906  0.6611
 3547TIP3    H210606   4.511   5.159   5.402  0.9892  0.3199  0.9767
 3548TIP3   OH210607   5.610   2.307   4.871 -0.2478 -0.3456 -0.5466
 3548TIP3    H110608   5.603   2.333   4.779 -2.2702  0.0217 -0.3424
 3548TIP3    H210609   5.638   2.387   4.916 -0.6468 -0.1399 -0.6629
 3549TIP3   OH210610   1.061   3.960   3.737  0.2251  0.0731 -0.1178
 3549TIP3    H110611   1.049   3.880   3.685 -2.3171  0.4800 -0.2828
 3549TIP3    H210612   1.072   4.030   3.672  0.6498  0.1015 -0.0164
 3550TIP3   OH210613   3.102   3.914   4.927 -0.5715 -0.2815  0.4495
 3550TIP3    H110614   3.103   3.990   4.869 -1.1571 -0.8689 -0.3523
 3550TIP3    H210615   3.093   3.839   4.868 -1.3155 -0.8810  1.3059
 3551TIP3   OH210616   2.364   4.038   0.715 -0.1058  0.1506 -0.3959
 3551TIP3    H110617   2.365   4.000   0.627 -0.5609 -1.1489  0.1292
 3551TIP3    H210618   2.364   3.962   0.774  1.2106  0.9876  0.7533
 3552TIP3   OH210619   0.278   1.471   0.508  0.1788  0.2774 -0.0842
 3552TIP3    H110620   0.258   1.463   0.601  0.8655  1.5373  0.1970
 3552TIP3    H210621   0.345   1.404   0.493  0.4828  0.4507  0.4657
 3553TIP3   OH210622   4.224   1.868   4.869  0.5347 -0.3531  0.7961
 3553TIP3    H110623   4.129   1.868   4.864  0.4739  1.1775  1.5130
 3553TIP3    H210624   4.253   1.874   4.778 -0.0537 -0.2393  0.6133
 3554TIP3   OH210625   6.456   3.291   2.072 -0.4916 -0.0543 -0.2430
 3554TIP3    H110626   6.443   3.224   2.140 -1.7218 -0.2634 -0.6523
 3554TIP3    H210627   6.494   3.365   2.119 -1.7783 -0.0078  0.8116
 3555TIP3   OH210628   4.505   1.636   5.035 -0.2300 -0.3208 -0.2307
 3555TIP3    H110629   4.584   1.686   5.056 -0.7020  0.0634  0.7582
 3555TIP3    H210630   4.490   1.582   5.113 -0.3534 -1.1905 -0.8408
 3556TIP3   OH210631   6.454   0.750   0.765 -0.5427  0.3379 -0.7966
 3556TIP3    H110632   6.525   0.701   0.807 -0.0236  0.4068 -1.5767
 3556TIP3    H210633   6.374   0.718   0.807 -0.1337 -0.5300 -0.6673
 3557TIP3   OH210634   4.559   4.907   0.637  0.0209 -0.4367 -0.4820
 3557TIP3    H110635   4.573   4.868   0.723  0.7232  0.7834 -0.0230
 3557TIP3    H210636   4.602   4.993   0.642 -0.8983  0.1238 -1.6710
 3558TIP3   OH210637   4.716   1.373   5.041 -0.4099  0.0104 -0.2457
 3558TIP3    H110638   4.669   1.324   4.974  0.5986  0.4710 -1.3247
 3558TIP3    H210639   4.650   1.388   5.110 -1.6825  0.1539 -1.4452
 3559TIP3   OH210640   5.261   1.306   0.200 -0.2597  0.2190  0.3131
 3559TIP3    H110641   5.322   1.361   0.249 -0.9445  0.5745  0.7827
 3559TIP3    H210642   5.180   1.356   0.197 -0.9353 -0.7908  0.8547
 3560TIP3   OH210643   6.768   2.907   1.638 -0.2930 -0.3630 -0.7732
 3560TIP3    H110644   6.720   2.989   1.623 -1.1986 -0.5178  0.9852
 3560TIP3    H210645   6.755   2.889   1.731  0.1772 -2.3363 -1.0507
 3561TIP3   OH210646   0.783   0.478   4.872 -0.0112 -0.3574 -0.2362
 3561TIP3    H110647   0.695   0.457   4.841 -0.2404 -1.3851  1.0407
 3561TIP3    H210648   0.773   0.495   4.966  1.3659 -2.1594  0.3092
 3562TIP3   OH210649   4.307   4.675   3.441  0.5656 -0.3723  0.0194
 3562TIP3    H110650   4.285   4.594   3.397 -1.4815  0.2704 -0.2177
 3562TIP3    H210651   4.286   4.659   3.533 -1.2644  0.2976 -0.2329
 3563TIP3   OH210652   5.679   4.748   1.302  0.2581  0.0209 -0.1464
 3563TIP3    H110653   5.585   4.765   1.309  0.3977  0.9917 -0.3996
 3563TIP3    H210654   5.717   4.805   1.369  0.7453  0.5448 -0.8594
 3564TIP3   OH210655   2.688   0.594   2.760  0.5778  0.7352 -0.1510
 3564TIP3    H110656   2.777   0.628   2.752  0.0120  2.3361 -0.0677
 3564TIP3    H210657   2.657   0.630   2.843  0.2689 -0.8493  0.4475
 3565TIP3   OH210658   1.516   2.452   3.626 -0.3345  0.5197 -0.2316
 3565TIP3    H110659   1.608   2.435   3.606 -0.2989  0.5606 -0.0984
 3565TIP3    H210660   1.473   2.367   3.615 -0.2464  0.4570 -0.0910
 3566TIP3   OH210661   1.753   3.073   1.399  0.2583 -1.2432  0.0346
 3566TIP3    H110662   1.830   3.017   1.390 -0.2686 -1.9927  0.0381
 3566TIP3    H210663   1.787   3.159   1.423  1.0197 -1.8386  1.1308
 3567TIP3   OH210664   3.871   2.196   3.295 -0.3725  0.2251 -0.2584
 3567TIP3    H110665   3.905   2.223   3.381  0.5289 -2.4354  0.3055
 3567TIP3    H210666   3.784   2.236   3.291  0.2906  1.9779  1.0259
 3568TIP3   OH210667   1.756   3.718   2.396 -0.5658  0.5503  0.2703
 3568TIP3    H110668   1.689   3.664   2.354 -0.9601  0.4053  1.0814
 3568TIP3    H210669   1.775   3.674   2.478  0.8445  0.3572 -0.1258
 3569TIP3   OH210670   1.631  -0.022   4.028 -0.2668 -0.4742  0.0093
 3569TIP3    H110671   1.611   0.048   4.090 -2.4624 -0.9311 -0.0925
 3569TIP3    H210672   1.622   0.018   3.942 -1.6897 -0.8500 -0.0532
 3570TIP3   OH210673   0.268   6.171   4.517  0.9921  0.0483  0.4899
 3570TIP3    H110674   0.198   6.233   4.496  0.9663  0.1415  0.8526
 3570TIP3    H210675   0.320   6.215   4.584  0.1154 -0.8985  1.8651
 3571TIP3   OH210676   5.598   5.501   4.070  0.2856  0.0691  0.3737
 3571TIP3    H110677   5.521   5.458   4.034  0.1513 -0.6471  1.4728
 3571TIP3    H210678   5.577   5.595   4.067 -1.1633 -0.1714  1.7769
 3572TIP3   OH210679   3.978   6.091   2.104  0.5335 -0.2647 -0.3962
 3572TIP3    H110680   3.948   6.000   2.095  1.4094 -0.4954 -1.0882
 3572TIP3    H210681   3.901   6.138   2.136  0.1040 -1.2716  0.1149
 3573TIP3   OH210682   4.776   3.282   4.224 -0.3921 -0.0263 -0.5036
 3573TIP3    H110683   4.733   3.353   4.175 -0.8758  0.7621  1.0171
 3573TIP3    H210684   4.870   3.297   4.208 -0.5402 -0.0268 -1.4874
 3574TIP3   OH210685   6.134   5.199   0.376 -0.0074 -0.1547 -0.4786
 3574TIP3    H110686   6.127   5.287   0.341  1.0028 -0.1133 -0.6126
 3574TIP3    H210687   6.114   5.208   0.469 -0.5508  0.1025 -0.6208
 3575TIP3   OH210688   6.491   0.269   0.655  0.2746  0.0764  0.1038
 3575TIP3    H110689   6.486   0.178   0.687  0.2462 -0.2488 -0.8002
 3575TIP3    H210690   6.402   0.302   0.664 -0.5155 -1.0507 -2.5384
 3576TIP3   OH210691   5.188   0.349   3.937  0.0180 -0.5235 -0.0235
 3576TIP3    H110692   5.130   0.287   3.893  0.3545  0.5101 -2.0452
 3576TIP3    H210693   5.144   0.434   3.927 -0.0334 -0.2734  1.9565
 3577TIP3   OH210694   3.704   6.578   1.903 -0.4266  0.1625  0.0663
 3577TIP3    H110695   3.762   6.502   1.912 -0.7347 -0.1235 -0.3045
 3577TIP3    H210696   3.693   6.610   1.993  3.1688  2.4480 -0.1011
 3578TIP3   OH210697   4.976   4.716   0.122 -0.6948  0.0691 -0.4519
 3578TIP3    H110698   5.060   4.707   0.077  0.5070  0.6222  1.5997
 3578TIP3    H210699   4.921   4.649   0.082  0.5575 -0.0205 -2.1467
 3579TIP3   OH210700   6.489   1.630   4.629  0.4566 -0.1019  0.0972
 3579TIP3    H110701   6.560   1.621   4.566  2.2613 -1.0246  2.1090
 3579TIP3    H210702   6.450   1.543   4.632 -2.1253  0.8354 -2.3533
 3580TIP3   OH210703   3.115   4.723   0.915  0.8599 -0.2452  0.5454
 3580TIP3    H110704   3.163   4.672   0.980  2.0352 -0.5263 -0.5064
 3580TIP3    H210705   3.150   4.811   0.922  0.4354 -0.0944  0.8137
 3581TIP3   OH210706   0.778   1.936   3.291  0.1754 -0.2401  0.2692
 3581TIP3    H110707   0.869   1.965   3.281  0.5719 -1.2911  0.7568
 3581TIP3    H210708   0.736   1.962   3.209  1.3600 -1.3589 -0.7295
 3582TIP3   OH210709   3.156   1.681   5.189 -0.5060  0.2112 -0.2307
 3582TIP3    H110710   3.219   1.680   5.261 -0.4333 -0.2831 -0.2968
 3582TIP3    H210711   3.202   1.638   5.117 -0.8434  0.0457 -0.3472
 3583TIP3   OH210712   6.008   4.461   0.221 -0.1821 -0.1307 -0.3068
 3583TIP3    H110713   6.016   4.475   0.126 -0.1475  1.5199 -0.0887
 3583TIP3    H210714   5.997   4.549   0.257  0.3256 -0.6886  1.2814
 3584TIP3   OH210715   3.403   3.335   2.768 -0.4341  0.2017  0.3891
 3584TIP3    H110716   3.333   3.377   2.717 -0.8405 -1.7865 -0.7887
 3584TIP3    H210717   3.428   3.259   2.716  3.0869  1.1492  0.4659
 3585TIP3   OH210718   5.072   1.563   5.687  0.0209  0.2821  0.2350
 3585TIP3    H110719   5.091   1.469   5.696 -1.6745 -0.1174 -0.0579
 3585TIP3    H210720   5.061   1.594   5.777 -1.3118 -0.2364  0.2639
 3586TIP3   OH210721   2.922   0.536   2.021 -1.1011 -0.2046 -0.3511
 3586TIP3    H110722   2.883   0.474   1.960 -0.1607 -1.5487  0.3617
 3586TIP3    H210723   2.850   0.561   2.079 -1.3617 -1.1250 -0.2611
 3587TIP3   OH210724   0.203   4.700   2.453  0.2577  0.1238  0.1391
 3587TIP3    H110725   0.114   4.664   2.451  0.3211 -0.0118 -0.1921
 3587TIP3    H210726   0.210   4.741   2.540 -0.3047  0.5878 -0.0329
 3588TIP3   OH210727   0.484   6.402   4.484 -0.7450 -0.2077  0.6709
 3588TIP3    H110728   0.408   6.440   4.528 -0.9130 -1.1390  1.2238
 3588TIP3    H210729   0.522   6.474   4.434 -2.1007  0.2299  0.2302
 3589TIP3   OH210730   0.046   2.964   3.622 -0.3031  0.1396  0.2734
 3589TIP3    H110731   0.052   2.997   3.712  0.0332  0.0476  0.2867
 3589TIP3    H210732   0.093   3.029   3.570 -0.6977  0.3120  0.1299
 3590TIP3   OH210733   5.810   4.745   0.711 -0.6018  0.2670  0.2289
 3590TIP3    H110734   5.768   4.831   0.702  0.3361  0.7707  0.4923
 3590TIP3    H210735   5.899   4.765   0.739  0.0818 -0.7251 -1.0998
 3591TIP3   OH210736   2.126   6.055   0.915  0.3833  0.2338  0.3629
 3591TIP3    H110737   2.160   5.972   0.948  1.2551  0.6858  0.6099
 3591TIP3    H210738   2.099   6.103   0.993 -2.3592 -0.7309  0.1193
 3592TIP3   OH210739   0.860   5.176   3.643  0.0586 -0.0711  0.4928
 3592TIP3    H110740   0.793   5.177   3.576  0.3350 -1.5059  0.1417
 3592TIP3    H210741   0.867   5.083   3.668  0.6963  0.2900  1.7425
 3593TIP3   OH210742   5.187   2.319   1.536 -0.0945  0.4270  0.0562
 3593TIP3    H110743   5.153   2.393   1.586 -0.4283 -0.0724  0.5798
 3593TIP3    H210744   5.115   2.295   1.477 -0.6099 -0.4882  1.0095
 3594TIP3   OH210745   6.088   1.165   2.951 -0.1250 -0.0410  0.3281
 3594TIP3    H110746   6.104   1.256   2.976  0.6670  0.1046 -0.6287
 3594TIP3    H210747   6.175   1.124   2.953 -0.4708 -0.7674  0.7192
 3595TIP3   OH210748   2.995   3.126   1.675  0.0103 -0.3078  0.1484
 3595TIP3    H110749   3.073   3.072   1.682 -0.1775 -0.8496 -1.4669
 3595TIP3    H210750   2.922   3.064   1.675 -0.3465  0.1063  0.4295
 3596TIP3   OH210751   7.149   6.535   2.343  0.3112  0.4790 -0.2821
 3596TIP3    H110752   7.096   6.470   2.297  0.0764  0.5101 -0.0572
 3596TIP3    H210753   7.136   6.617   2.294  0.9458  0.2729 -0.8241
 3597TIP3   OH210754   1.314   2.266   3.169  0.3313  0.2657 -0.8370
 3597TIP3    H110755   1.290   2.183   3.210  2.3161 -0.5955 -1.2653
 3597TIP3    H210756   1.254   2.275   3.095 -1.2402  0.2816  0.3793
 3598TIP3   OH210757   6.318   3.293   0.861 -0.0182  0.3101 -0.1212
 3598TIP3    H110758   6.328   3.225   0.795  1.4216  1.1252 -0.7884
 3598TIP3    H210759   6.403   3.337   0.863 -1.0362  2.3861 -0.0550
 3599TIP3   OH210760   4.449   2.687   2.194 -0.0906  0.2406 -0.3982
 3599TIP3    H110761   4.426   2.702   2.102  0.2303 -1.7485 -0.8495
 3599TIP3    H210762   4.365   2.679   2.239 -0.2559  0.4472 -0.6679
 3600TIP3   OH210763   1.821   5.422   0.958  0.7175 -0.3214 -1.0086
 3600TIP3    H110764   1.777   5.432   0.873  0.8841 -0.9517 -1.1738
 3600TIP3    H210765   1.757   5.451   1.022  0.1286 -1.0371 -1.2639
 3601TIP3   OH210766   1.890   2.911   4.169  0.2162 -0.5172  0.3157
 3601TIP3    H110767   1.835   2.860   4.109  1.3389 -1.0717 -0.2744
 3601TIP3    H210768   1.887   3.000   4.133  0.6336 -0.7830 -0.4083
 3602TIP3   OH210769   0.554   4.392   4.643  0.0710  0.2209  0.7549
 3602TIP3    H110770   0.473   4.367   4.688  0.1693 -1.5108  0.0461
 3602TIP3    H210771   0.533   4.384   4.550  1.3251 -1.2698  0.5660
 3603TIP3   OH210772   5.707   0.872   5.177 -0.0055 -0.3805  0.3601
 3603TIP3    H110773   5.792   0.911   5.199 -0.4541  0.1099  1.2629
 3603TIP3    H210774   5.718   0.840   5.087  1.1373 -0.3421  0.4688
 3604TIP3   OH210775   1.288   2.706   2.757 -0.5888 -0.3584 -0.1128
 3604TIP3    H110776   1.259   2.792   2.787 -0.8454 -1.0163  1.6688
 3604TIP3    H210777   1.381   2.703   2.777 -0.7814 -0.8395  0.7845
 3605TIP3   OH210778   3.186   1.925   4.070  0.6299  0.3821  0.1452
 3605TIP3    H110779   3.131   1.852   4.099 -0.8934  1.3152 -0.2527
 3605TIP3    H210780   3.159   1.941   3.979  1.7829  0.6984 -0.1634
 3606TIP3   OH210781   2.951   6.495   3.457 -0.0622  0.0850  0.2349
 3606TIP3    H110782   2.885   6.430   3.431 -1.4621  1.9518 -1.1316
 3606TIP3    H210783   2.919   6.530   3.540  0.8889 -1.1502  1.1677
 3607TIP3   OH210784   2.745   2.987   4.748 -0.1890 -0.0033 -0.3033
 3607TIP3    H110785   2.715   2.911   4.698  0.1958 -0.1368 -0.3395
 3607TIP3    H210786   2.685   2.992   4.823  0.2794 -0.8538  0.1507
 3608TIP3   OH210787   0.646   2.953   4.806 -0.2153  0.1665  0.5385
 3608TIP3    H110788   0.554   2.973   4.821  0.3095  1.7781  1.9719
 3608TIP3    H210789   0.682   3.034   4.771  0.4975 -0.7268 -0.8554
 3609TIP3   OH210790   4.303   3.609   4.681 -0.2340  0.0582  0.3882
 3609TIP3    H110791   4.222   3.590   4.728 -0.6705 -0.9152 -0.6879
 3609TIP3    H210792   4.363   3.540   4.708 -0.5033 -0.5358 -0.4614
 3610TIP3   OH210793   1.544   6.651   1.372 -0.3033 -0.0161 -0.4745
 3610TIP3    H110794   1.594   6.712   1.426 -0.7325 -1.0262  1.1372
 3610TIP3    H210795   1.610   6.602   1.324  0.3321 -1.3152  1.5973
 3611TIP3   OH210796   2.584   0.889   2.796 -0.0908 -0.6795 -0.1936
 3611TIP3    H110797   2.534   0.885   2.715  1.2754  2.5734 -1.3638
 3611TIP3    H210798   2.519   0.903   2.864 -1.0518 -0.4954 -1.1275
 3612TIP3   OH210799   4.508   1.687   1.274 -0.5728  0.2687  0.4580
 3612TIP3    H110800   4.444   1.691   1.203  0.2847  2.6431 -0.2971
 3612TIP3    H210801   4.467   1.736   1.346  0.1151  1.3181  0.1650
 3613TIP3   OH210802   7.210   3.920   3.194 -0.0696 -0.0968  0.6769
 3613TIP3    H110803   7.122   3.949   3.171  0.4029  0.6393 -0.2621
 3613TIP3    H210804   7.263   3.999   3.188  0.8681 -0.7537  0.0832
 3614TIP3   OH210805   6.018   0.010   0.419 -0.2937  0.1363 -0.0932
 3614TIP3    H110806   6.010   0.098   0.382  0.5269  0.8128  1.2144
 3614TIP3    H210807   5.939  -0.001   0.471 -0.5212 -0.0101 -0.4680
 3615TIP3   OH210808   4.383   4.124   1.377  0.4455 -0.1500  0.2348
 3615TIP3    H110809   4.410   4.215   1.391 -1.2685  0.2327  1.3926
 3615TIP3    H210810   4.389   4.083   1.463  0.2571 -0.8667 -0.0808
 3616TIP3   OH210811   3.468   5.336   3.286 -0.6550 -0.4336  0.0037
 3616TIP3    H110812   3.426   5.415   3.252  0.1869 -0.5815 -1.4803
 3616TIP3    H210813   3.408   5.265   3.265 -0.7837 -0.3468  0.0823
 3617TIP3   OH210814   4.942   6.195   1.935 -0.2744 -0.3464  0.0449
 3617TIP3    H110815   4.862   6.242   1.960  0.0040  0.1023  0.1100
 3617TIP3    H210816   5.012   6.256   1.957  0.1698 -1.2263  1.1768
 3618TIP3   OH210817   6.209   3.049   2.397 -0.4523  0.0580  0.3668
 3618TIP3    H110818   6.125   3.024   2.358 -0.4084 -1.2416  1.0506
 3618TIP3    H210819   6.190   3.131   2.444 -1.3134 -0.1596  0.4183
 3619TIP3   OH210820   1.006   3.365   4.599  0.3043 -0.2276 -0.2980
 3619TIP3    H110821   1.063   3.435   4.630 -1.3540  1.1226 -0.1229
 3619TIP3    H210822   0.973   3.324   4.679 -0.7059  0.4979 -0.3231
 3620TIP3   OH210823   3.490   3.868   1.086 -0.3799  0.3462 -0.0881
 3620TIP3    H110824   3.520   3.958   1.097  1.3346 -0.2598  0.4707
 3620TIP3    H210825   3.444   3.869   1.002  0.6445  1.4946 -0.6804
 3621TIP3   OH210826   1.722   0.911   5.076 -0.9146 -0.3751 -0.8887
 3621TIP3    H110827   1.720   0.905   4.980 -2.9371 -2.9563 -0.7903
 3621TIP3    H210828   1.790   0.849   5.102 -0.7644 -0.1056 -0.6434
 3622TIP3   OH210829   5.899   0.146   5.426 -0.5770 -0.5099 -0.4368
 3622TIP3    H110830   5.819   0.180   5.466  0.8829  1.6288  0.8339
 3622TIP3    H210831   5.920   0.068   5.478 -0.6662  0.1731  0.6601
 3623TIP3   OH210832   3.775   0.841   5.599 -0.0643  0.1732 -0.4025
 3623TIP3    H110833   3.724   0.762   5.581 -1.2721  1.1319 -1.3543
 3623TIP3    H210834   3.857   0.828   5.551 -0.6641 -0.0934 -1.3882
 3624TIP3   OH210835   2.590   5.104   4.855  0.1486  0.1120  0.3223
 3624TIP3    H110836   2.540   5.132   4.932 -2.2419  1.0615 -1.4692
 3624TIP3    H210837   2.569   5.012   4.845  0.0793  0.1074  0.5017
 3625TIP3   OH210838   5.121   0.630   2.881  0.2273  0.2212 -0.1154
 3625TIP3    H110839   5.171   0.587   2.812 -0.8215 -0.6351 -0.3519
 3625TIP3    H210840   5.097   0.715   2.843 -0.5757 -0.3485 -0.9266
 3626TIP3   OH210841   2.687   3.611   1.234 -0.8212 -0.4669 -0.4463
 3626TIP3    H110842   2.623   3.664   1.281  0.9011 -0.0127  1.5783
 3626TIP3    H210843   2.681   3.524   1.274  1.5672  0.2508  1.7692
 3627TIP3   OH210844   2.087   4.275   1.710 -0.0370  0.5629 -0.6539
 3627TIP3    H110845   2.108   4.268   1.803  3.0426 -0.8654 -1.3379
 3627TIP3    H210846   2.037   4.196   1.691 -2.1423  1.6424  0.0109
 3628TIP3   OH210847   2.453   0.760   1.427  0.0819 -0.0957 -0.5016
 3628TIP3    H110848   2.414   0.719   1.504  0.5460 -0.9350 -0.6921
 3628TIP3    H210849   2.520   0.698   1.398  0.6534  0.7069 -0.9485
 3629TIP3   OH210850   6.690   4.327   3.544  0.0848 -0.3001 -0.6618
 3629TIP3    H110851   6.723   4.365   3.463  0.1514  2.2437  0.4738
 3629TIP3    H210852   6.602   4.363   3.554  0.1691 -0.3743  0.5084
 3630TIP3   OH210853   6.089   5.408   2.988  0.7100 -0.1586 -0.4675
 3630TIP3    H110854   6.110   5.428   2.897  0.3791  0.2171 -0.4645
 3630TIP3    H210855   6.124   5.482   3.037 -0.3007  0.3136 -0.4313
 3631TIP3   OH210856   5.732   2.661   1.882  0.0495  0.1411 -1.1641
 3631TIP3    H110857   5.695   2.700   1.803 -0.3449 -0.7366 -1.4272
 3631TIP3    H210858   5.796   2.598   1.851  0.3050  0.1982 -0.7644
 3632TIP3   OH210859   6.394   6.428   4.621 -0.0253 -0.0748  1.1429
 3632TIP3    H110860   6.459   6.359   4.635  1.3661  0.9395 -0.0156
 3632TIP3    H210861   6.346   6.433   4.704  1.0941 -1.1407  1.8950
 3633TIP3   OH210862   2.143   1.836   3.331 -0.1455  0.2087  0.2333
 3633TIP3    H110863   2.154   1.754   3.282  0.2125 -0.4322  1.3459
 3633TIP3    H210864   2.232   1.859   3.358 -0.4047  0.1611  1.1713
 3634TIP3   OH210865   3.248   3.977   4.059 -0.3362  0.1292 -0.0246
 3634TIP3    H110866   3.152   3.983   4.063 -0.3313  0.3372 -0.2217
 3634TIP3    H210867   3.273   3.943   4.145 -0.6162 -0.3203 -0.1147
 3635TIP3   OH210868   1.682   5.466   0.455 -0.5701 -0.0042  0.2150
 3635TIP3    H110869   1.636   5.492   0.375 -0.6894  1.0379  0.6149
 3635TIP3    H210870   1.742   5.538   0.473  1.6792 -1.5315 -0.5902
 3636TIP3   OH210871   6.620   3.479   3.331  0.3484  0.0250 -0.4357
 3636TIP3    H110872   6.612   3.574   3.340 -2.1782 -0.2340  0.9284
 3636TIP3    H210873   6.602   3.462   3.239  3.6981  0.9942 -1.4113
 3637TIP3   OH210874   5.909   3.626   2.661  0.5621 -0.0946 -0.5265
 3637TIP3    H110875   5.837   3.578   2.619  0.8968 -0.9962 -0.0822
 3637TIP3    H210876   5.969   3.558   2.691  1.2476  0.6251 -0.2427
 3638TIP3   OH210877   6.553   2.929   3.360  0.3867 -0.1489  0.0585
 3638TIP3    H110878   6.522   2.988   3.428  2.2102 -0.1020  0.8743
 3638TIP3    H210879   6.474   2.882   3.332 -0.9821  2.1281 -0.1342
 3639TIP3   OH210880   0.095   5.663   3.309 -0.0552  0.0921 -0.8113
 3639TIP3    H110881   0.042   5.686   3.385  1.5925  0.4436  0.2630
 3639TIP3    H210882   0.085   5.568   3.300  1.5759 -0.3622  1.3440
 3640TIP3   OH210883   1.496   3.087   4.536 -0.4720  0.1024  0.0361
 3640TIP3    H110884   1.418   3.134   4.568  1.0471  2.8027  0.0973
 3640TIP3    H210885   1.506   3.116   4.446  1.5571  1.4906  0.6342
 3641TIP3   OH210886   1.355   4.392   3.082 -0.2018  0.5677  0.5891
 3641TIP3    H110887   1.371   4.334   3.008  2.2147  0.7731  0.8449
 3641TIP3    H210888   1.419   4.462   3.071 -1.0152  1.5633  1.9077
 3642TIP3   OH210889   3.924   5.210   5.057 -0.4558  0.2827  0.0475
 3642TIP3    H110890   3.953   5.119   5.049  0.3243  0.4191  1.0415
 3642TIP3    H210891   3.927   5.245   4.968  1.5631  0.0034 -0.0384
 3643TIP3   OH210892   5.851   3.956   0.190 -0.1506  0.1055 -0.1521
 3643TIP3    H110893   5.922   4.010   0.223 -0.6920  0.5568  0.2847
 3643TIP3    H210894   5.821   3.905   0.265 -0.9618  0.6684 -0.0763
 3644TIP3   OH210895   4.886   5.484   3.057  0.3819  0.1634 -0.4318
 3644TIP3    H110896   4.915   5.503   2.968 -0.1617  1.9318 -0.2807
 3644TIP3    H210897   4.815   5.547   3.072 -2.5374 -2.8816 -0.2495
 3645TIP3   OH210898   1.045   5.815   4.213  0.0835 -0.2406  0.1282
 3645TIP3    H110899   0.992   5.852   4.284  0.6131 -1.7063  1.3592
 3645TIP3    H210900   1.112   5.882   4.195 -0.0036  0.1258  1.0965
 3646TIP3   OH210901   2.623   5.986   1.632  0.1009 -0.3313  0.2756
 3646TIP3    H110902   2.577   5.951   1.556 -2.8842  0.7245  1.4338
 3646TIP3    H210903   2.631   5.911   1.691 -0.9206 -0.3616  0.3866
 3647TIP3   OH210904   0.314   4.730   4.411 -0.2371 -0.3440 -0.4741
 3647TIP3    H110905   0.344   4.686   4.332  0.1951 -1.5630  0.3243
 3647TIP3    H210906   0.387   4.786   4.437  0.2926 -1.2011 -0.0568
 3648TIP3   OH210907   0.753   4.388   3.730 -0.2979 -0.6793 -0.8162
 3648TIP3    H110908   0.810   4.398   3.807 -1.8502 -0.1410  0.3143
 3648TIP3    H210909   0.729   4.296   3.730  0.2040 -0.8164 -1.0490
 3649TIP3   OH210910   4.694   2.659   4.012 -0.3247  0.3456 -0.3462
 3649TIP3    H110911   4.664   2.582   4.060  0.1421  0.6982  0.5503
 3649TIP3    H210912   4.695   2.632   3.921 -0.4604 -0.6138 -0.0760
 3650TIP3   OH210913   6.187   1.153   2.464 -0.2607  0.0883  0.1810
 3650TIP3    H110914   6.096   1.132   2.441 -0.3681  1.7177 -1.0427
 3650TIP3    H210915   6.180   1.198   2.549 -0.4143 -1.0886  0.8205
 3651TIP3   OH210916   0.651   3.764   0.152  0.2719  0.1507  0.3097
 3651TIP3    H110917   0.630   3.703   0.222 -0.0276  0.9794  0.9652
 3651TIP3    H210918   0.596   3.736   0.078 -0.7823  0.3578  0.9917
 3652TIP3   OH210919   0.582   2.771   4.211 -0.3191  0.1069 -0.4069
 3652TIP3    H110920   0.511   2.833   4.229 -0.7494 -0.5092  0.0612
 3652TIP3    H210921   0.662   2.819   4.235 -0.3772  1.4862 -2.6606
 3653TIP3   OH210922   0.551   2.916   2.121  0.3739  0.6913 -0.4292
 3653TIP3    H110923   0.484   2.892   2.186  2.1669 -0.5717  1.0749
 3653TIP3    H210924   0.509   2.898   2.037 -0.9795 -0.7319  0.4676
 3654TIP3   OH210925   3.878   2.300   5.873 -0.5213  0.4015  0.0896
 3654TIP3    H110926   3.884   2.275   5.781  0.3625 -1.5816  0.6384
 3654TIP3    H210927   3.913   2.389   5.876  2.4912 -0.6224 -1.0663
 3655TIP3   OH210928   2.733   6.340   3.367 -0.4571  0.3913  0.3288
 3655TIP3    H110929   2.772   6.277   3.306  0.8058  1.9315 -0.5345
 3655TIP3    H210930   2.700   6.410   3.310  0.6011  1.7914  1.3666
 3656TIP3   OH210931   3.308   3.625   2.602  0.5105 -0.2926  0.4013
 3656TIP3    H110932   3.362   3.556   2.565  0.8037 -1.5859  3.0146
 3656TIP3    H210933   3.367   3.699   2.613  0.5039 -0.0093 -1.2142
 3657TIP3   OH210934   4.228   4.823   4.894 -0.4160  0.5652  0.2847
 3657TIP3    H110935   4.240   4.780   4.810  0.2661 -0.0522  0.6899
 3657TIP3    H210936   4.309   4.871   4.908  0.1946 -0.7245  1.3752
 3658TIP3   OH210937   2.656   3.065   2.880  0.2743 -0.5307  0.3157
 3658TIP3    H110938   2.741   3.098   2.911 -0.0768  1.0082 -0.2842
 3658TIP3    H210939   2.648   3.098   2.791 -0.5647 -1.4387  0.0371
 3659TIP3   OH210940   0.881   1.884   4.405  0.1633  0.4483 -0.2790
 3659TIP3    H110941   0.892   1.975   4.431 -0.6146 -0.2068  2.7141
 3659TIP3    H210942   0.786   1.872   4.403  0.2682 -0.4164 -0.1778
 3660TIP3   OH210943   1.144   3.992   0.302  0.3183  0.1438  0.3747
 3660TIP3    H110944   1.053   3.964   0.302  0.2021  0.4248  2.2266
 3660TIP3    H210945   1.192   3.918   0.340  1.0239 -0.3589 -1.3809
 3661TIP3   OH210946   2.956   0.050   3.716  0.3052 -0.8618  0.4688
 3661TIP3    H110947   2.905   0.047   3.635  2.2757 -2.2428 -0.8034
 3661TIP3    H210948   2.971   0.143   3.732  1.0580 -0.6069 -1.5449
 3662TIP3   OH210949   5.360   2.198   1.741  0.4253 -0.1600  0.3383
 3662TIP3    H110950   5.303   2.123   1.722  0.8855 -0.3496 -0.3109
 3662TIP3    H210951   5.326   2.268   1.685  0.6413 -0.1840  0.1784
 3663TIP3   OH210952   1.288   4.600   5.373  0.3041 -0.0007 -0.0470
 3663TIP3    H110953   1.283   4.610   5.278  0.8770 -1.4947 -0.2529
 3663TIP3    H210954   1.227   4.666   5.407  0.6471  1.0677 -1.4087
 3664TIP3   OH210955   1.839   1.684   5.317  0.0858 -0.2835  0.2843
 3664TIP3    H110956   1.860   1.649   5.230  2.3938  0.0589  0.6418
 3664TIP3    H210957   1.893   1.763   5.325 -0.7073  0.1528  1.7293
 3665TIP3   OH210958   6.223   0.108   0.155 -0.1893 -0.3360  0.4566
 3665TIP3    H110959   6.234   0.144   0.243  0.3876  0.4927  0.0605
 3665TIP3    H210960   6.129   0.091   0.147 -0.9630  3.3735 -0.1654
 3666TIP3   OH210961   2.494   2.406   1.881 -0.1049 -0.7528  0.2492
 3666TIP3    H110962   2.491   2.333   1.942  0.8346 -1.3032 -0.3374
 3666TIP3    H210963   2.502   2.365   1.795  0.7388  0.0464 -0.0691
 3667TIP3   OH210964   1.867   2.405   3.074 -0.0824  0.2071  0.1665
 3667TIP3    H110965   1.941   2.439   3.026 -2.0117  2.0094 -1.7359
 3667TIP3    H210966   1.877   2.440   3.163  1.4015  0.2485  0.0024
 3668TIP3   OH210967   2.063   2.421   2.840  0.2641 -0.2772 -0.0239
 3668TIP3    H110968   2.033   2.355   2.778  2.4444 -1.1119 -0.2991
 3668TIP3    H210969   2.106   2.370   2.909 -0.5423  0.7318  1.2655
 3669TIP3   OH210970   0.778   2.054   1.395  0.0984 -0.1851 -0.2957
 3669TIP3    H110971   0.849   2.117   1.387  0.6332 -0.8386 -0.7944
 3669TIP3    H210972   0.771   2.036   1.488 -0.3975  0.9769 -0.0865
 3670TIP3   OH210973   4.523   1.954   5.508  0.1248  0.2248  0.3808
 3670TIP3    H110974   4.605   1.927   5.549  0.9663 -1.3915 -2.1362
 3670TIP3    H210975   4.460   1.956   5.581  1.7331 -1.3452  1.9541
 3671TIP3   OH210976   2.430   5.053   3.633 -0.4448  0.0986 -0.5751
 3671TIP3    H110977   2.382   5.131   3.661 -1.1892 -0.4861 -0.1880
 3671TIP3    H210978   2.423   5.054   3.538  0.9123  1.3446 -0.7043
 3672TIP3   OH210979   6.949   4.322   2.953 -0.0844  0.1351  0.1067
 3672TIP3    H110980   7.040   4.342   2.930 -0.2268  0.3635 -0.2669
 3672TIP3    H210981   6.922   4.257   2.888  0.1599 -0.7795  0.8987
 3673TIP3   OH210982   4.298   3.053   5.216  0.4678  0.3306  0.2621
 3673TIP3    H110983   4.303   3.099   5.133  1.0719 -0.5849 -0.2219
 3673TIP3    H210984   4.204   3.043   5.233  0.3391  0.0967 -0.5511
 3674TIP3   OH210985   1.039   2.369   2.158 -0.3843 -0.9580 -0.8961
 3674TIP3    H110986   1.089   2.451   2.163 -0.1102 -1.0382 -2.0454
 3674TIP3    H210987   0.949   2.395   2.181 -0.1796 -0.4578 -0.6372
 3675TIP3   OH210988   3.973   4.745   1.071 -0.5227  0.2230  0.0124
 3675TIP3    H110989   3.949   4.817   1.129 -0.1774 -0.7374  1.4236
 3675TIP3    H210990   4.060   4.719   1.101  0.3763  0.7037 -2.0063
 3676TIP3   OH210991   0.449   2.626   1.941 -0.4651 -0.3133 -0.7103
 3676TIP3    H110992   0.541   2.608   1.921 -0.5253 -1.8371  0.1890
 3676TIP3    H210993   0.439   2.720   1.929  0.8145 -0.3380 -2.3545
 3677TIP3   OH210994   3.382   2.306   1.989 -1.2164 -0.1798  0.8958
 3677TIP3    H110995   3.461   2.345   2.025 -0.8755 -0.7036  0.7218
 3677TIP3    H210996   3.326   2.291   2.065 -0.2553 -1.8428  1.3256
 3678TIP3   OH210997   7.066   5.740   5.381 -0.7863 -0.1744  0.2292
 3678TIP3    H110998   7.131   5.785   5.327  0.1758 -2.4794 -0.6241
 3678TIP3    H210999   7.084   5.771   5.470 -0.6393  1.6217 -0.3824
 3679TIP3   OH211000   6.345   5.417   1.318  0.0214 -0.2917 -0.0382
 3679TIP3    H111001   6.401   5.340   1.330 -1.4899 -1.2239  1.3786
 3679TIP3    H211002   6.300   5.402   1.235 -0.8447 -1.3606  0.6023
 3680TIP3   OH211003   6.260   2.370   0.920  0.0109 -0.3723 -0.2127
 3680TIP3    H111004   6.338   2.368   0.864 -0.3399 -1.3313 -0.6880
 3680TIP3    H211005   6.191   2.407   0.865  0.2125  0.8842  0.3440
 3681TIP3   OH211006   0.472   3.953   1.677  0.1855 -1.0485 -0.0212
 3681TIP3    H111007   0.448   3.928   1.766  1.2889 -0.9758  0.3052
 3681TIP3    H211008   0.495   3.871   1.634  1.5203 -0.8994  0.3528
 3682TIP3   OH211009   6.062   1.128   1.000  0.4506  0.0458 -0.0296
 3682TIP3    H111010   6.151   1.104   1.024  1.4093  1.3336 -2.0406
 3682TIP3    H211011   6.031   1.183   1.073  0.9105 -1.1471  1.1079
 3683TIP3   OH211012   2.203   4.210   2.775  0.0418  0.0714 -0.1824
 3683TIP3    H111013   2.293   4.240   2.764  0.4320 -0.9925  0.0067
 3683TIP3    H211014   2.153   4.290   2.792  0.9990  0.6387  0.0547
 3684TIP3   OH211015   4.731   3.024   2.454 -0.0962 -0.1072 -0.3457
 3684TIP3    H111016   4.645   2.985   2.437  0.1425 -0.9866  0.3877
 3684TIP3    H211017   4.794   2.958   2.424  0.3709  1.2632 -2.5708
 3685TIP3   OH211018   3.296   3.175   2.167 -0.2082 -0.4893 -0.4140
 3685TIP3    H111019   3.300   3.141   2.256  1.1343 -1.4023 -0.7830
 3685TIP3    H211020   3.289   3.269   2.176 -1.5398 -0.6667  0.6479
 3686TIP3   OH211021   0.998   1.788   2.605 -0.4783  0.0893 -0.0624
 3686TIP3    H111022   0.923   1.731   2.621 -0.2163 -0.4166 -0.5837
 3686TIP3    H211023   0.984   1.863   2.663 -0.4849 -0.8160  1.1556
 3687TIP3   OH211024   2.150   5.278   4.755 -0.2580  0.0198 -0.3955
 3687TIP3    H111025   2.107   5.246   4.835 -0.5429 -0.1322 -0.6047
 3687TIP3    H211026   2.136   5.208   4.691 -0.0068  0.1286 -0.5707
 3688TIP3   OH211027   5.901   5.945   5.372  0.6072  0.2791  0.4399
 3688TIP3    H111028   5.986   5.902   5.377  0.7962  0.6183  0.2018
 3688TIP3    H211029   5.906   5.999   5.293 -0.3957 -0.9123 -0.4863
 3689TIP3   OH211030   1.819   4.803   0.420 -0.1441  0.3663 -0.0987
 3689TIP3    H111031   1.837   4.892   0.450 -0.3750  0.7429 -1.0754
 3689TIP3    H211032   1.749   4.772   0.479  1.0197  0.2352  1.2773
 3690TIP3   OH211033   2.990   0.088   2.919 -0.0651 -0.4644 -1.1190
 3690TIP3    H111034   2.904   0.063   2.888 -0.0188 -1.1767 -0.6836
 3690TIP3    H211035   2.976   0.117   3.009  0.3494 -1.8818 -0.5831
 3691TIP3   OH211036   0.124   1.263   1.976  0.4775 -0.4449  0.4950
 3691TIP3    H111037   0.148   1.354   1.960  0.9369 -0.3408  1.6714
 3691TIP3    H211038   0.205   1.221   2.004  0.4417 -1.4198 -0.7864
 3692TIP3   OH211039   2.051   2.456   1.574 -0.2582 -0.3027 -0.6646
 3692TIP3    H111040   2.117   2.389   1.559  0.1111  0.1855 -1.2525
 3692TIP3    H211041   1.968   2.414   1.548  0.1814  0.0274 -2.8049
 3693TIP3   OH211042   5.285   6.220   0.351  0.0924  0.6090 -0.3708
 3693TIP3    H111043   5.293   6.265   0.267 -0.7302 -0.5665 -1.1166
 3693TIP3    H211044   5.374   6.218   0.386  0.8855 -0.8627 -2.3059
 3694TIP3   OH211045   0.027   6.133   2.236 -0.4138  0.1827 -0.2172
 3694TIP3    H111046   0.033   6.211   2.182 -0.1776 -0.6320 -1.4043
 3694TIP3    H211047  -0.050   6.148   2.291  0.1393  1.6134  0.2139
 3695TIP3   OH211048   2.275   6.086   3.090  0.1299  0.2693  0.2883
 3695TIP3    H111049   2.239   6.130   3.014  2.1760  0.7177 -0.4783
 3695TIP3    H211050   2.355   6.134   3.111  1.3777 -1.8200  0.6638
 3696TIP3   OH211051   6.596   2.836   4.361  0.6168 -0.0805 -0.4710
 3696TIP3    H111052   6.629   2.755   4.400  1.7903 -0.1296 -1.5199
 3696TIP3    H211053   6.603   2.823   4.267 -0.1226  0.8691 -0.6768
 3697TIP3   OH211054   3.384   0.364   4.517  0.3037 -0.4648 -0.0030
 3697TIP3    H111055   3.476   0.364   4.488  0.5338 -0.3839  0.7073
 3697TIP3    H211056   3.376   0.442   4.572 -0.4743  0.1039 -0.8984
 3698TIP3   OH211057   2.187   2.242   5.872 -0.0778 -0.4971  0.3620
 3698TIP3    H111058   2.112   2.194   5.835 -0.0149 -1.7469  1.7731
 3698TIP3    H211059   2.220   2.295   5.799 -0.8267 -1.7965 -0.9649
 3699TIP3   OH211060   2.327   4.705   2.072  0.2156  0.4496 -0.3075
 3699TIP3    H111061   2.296   4.622   2.109 -2.1602  1.5543  0.3568
 3699TIP3    H211062   2.391   4.737   2.136  0.9113 -0.6870 -0.4056
 3700TIP3   OH211063   6.035   4.528   1.870 -0.5254  0.5931  0.0363
 3700TIP3    H111064   5.955   4.521   1.819 -0.4217  3.1529 -0.6166
 3700TIP3    H211065   6.104   4.545   1.806 -0.0719  1.9488  0.8402
 3701TIP3   OH211066   0.957   0.527   3.348  0.0975  0.7231 -0.3786
 3701TIP3    H111067   0.969   0.574   3.266 -0.1782  0.3513 -0.6358
 3701TIP3    H211068   0.864   0.535   3.368  0.4744  2.5288  0.9621
 3702TIP3   OH211069   3.547   0.608   3.434  0.1772 -0.6555  0.4622
 3702TIP3    H111070   3.546   0.532   3.492  0.9003 -0.7815  0.3100
 3702TIP3    H211071   3.636   0.611   3.399  0.0684  0.0890  0.2375
 3703TIP3   OH211072   0.340   5.263   2.733 -0.2938 -0.1245  0.5067
 3703TIP3    H111073   0.330   5.358   2.732  0.6150 -0.0184 -0.4219
 3703TIP3    H211074   0.435   5.249   2.736 -0.2482 -0.9435 -2.2119
 3704TIP3   OH211075   5.377   3.683   2.925  0.7900  0.1367  0.2618
 3704TIP3    H111076   5.385   3.731   2.842 -0.4204  0.2690  0.2091
 3704TIP3    H211077   5.294   3.636   2.918  1.3420 -0.9407  0.8510
 3705TIP3   OH211078   5.223   2.155   5.541  0.0297  0.6136  0.3509
 3705TIP3    H111079   5.312   2.152   5.575  0.3855  3.1728 -0.1936
 3705TIP3    H211080   5.201   2.248   5.538 -1.6075  0.2408 -2.2218
 3706TIP3   OH211081   5.158   5.195   3.074  0.5713 -0.7094 -0.0677
 3706TIP3    H111082   5.103   5.121   3.100 -1.6291  0.6473 -0.5333
 3706TIP3    H211083   5.164   5.248   3.153 -0.3232  0.0068 -0.4556
 3707TIP3   OH211084   3.343   3.375   4.336 -0.2957 -0.6300 -0.1676
 3707TIP3    H111085   3.357   3.395   4.429 -3.3626 -0.4941  0.3795
 3707TIP3    H211086   3.267   3.427   4.312 -0.6281 -1.9826 -2.2851
 3708TIP3   OH211087   0.080   1.215   3.608  0.4180  0.1677 -0.0476
 3708TIP3    H111088   0.161   1.263   3.589 -0.0906  1.2050  0.3094
 3708TIP3    H211089   0.098   1.125   3.581  1.1119  0.7342 -1.5915
 3709TIP3   OH211090   5.608   3.104   5.766  0.3225  0.3019  0.3189
 3709TIP3    H111091   5.566   3.057   5.837 -1.0079  0.0556 -0.5843
 3709TIP3    H211092   5.581   3.195   5.778 -0.8073  0.0877 -0.4613
 3710TIP3   OH211093   4.613   1.400   5.727  0.4592  0.3090 -0.3132
 3710TIP3    H111094   4.617   1.459   5.802 -0.4635 -1.8300  1.5403
 3710TIP3    H211095   4.691   1.346   5.735  1.2407  1.1238 -1.9372
 3711TIP3   OH211096   1.376   2.207   2.840  0.2343 -0.5111  0.4197
 3711TIP3    H111097   1.282   2.188   2.844  0.2224 -0.8967 -1.2129
 3711TIP3    H211098   1.417   2.121   2.846  0.5368 -0.3042  1.6995
 3712TIP3   OH211099   5.591   1.275   2.753  0.6174 -0.7275 -0.3614
 3712TIP3    H111100   5.540   1.242   2.680  1.6669  1.4025 -2.1796
 3712TIP3    H211101   5.571   1.369   2.755  3.0536 -0.1622 -0.0041
 3713TIP3   OH211102   6.520   6.571   3.691 -0.6614  0.0758 -0.0846
 3713TIP3    H111103   6.436   6.526   3.702  0.3055 -2.3553 -1.7158
 3713TIP3    H211104   6.500   6.664   3.703 -4.1433 -0.0945 -3.0639
 3714TIP3   OH211105   2.534   2.493   2.331  0.1781 -0.5706 -0.0878
 3714TIP3    H111106   2.498   2.579   2.350 -1.6495 -1.2267 -0.2761
 3714TIP3    H211107   2.557   2.456   2.416 -1.5278 -0.8783  0.2803
 3715TIP3   OH211108   1.096   6.495   1.075 -0.2108  0.1791  0.0109
 3715TIP3    H111109   1.116   6.472   1.166  1.0148  0.3845 -0.1873
 3715TIP3    H211110   1.120   6.587   1.068 -2.5376  0.8642  0.0744
 3716TIP3   OH211111   1.964   1.085   4.315 -0.4155  0.8386 -0.4290
 3716TIP3    H111112   2.025   1.050   4.249  0.5769  1.1834  0.2723
 3716TIP3    H211113   1.888   1.027   4.310 -0.6849  1.2765 -2.3544
 3717TIP3   OH211114   3.792   0.975   5.096  0.1818 -0.0581 -0.2751
 3717TIP3    H111115   3.839   0.983   5.179 -0.4060 -1.1635  0.1894
 3717TIP3    H211116   3.794   1.063   5.058  1.3069  0.2391  0.4401
 3718TIP3   OH211117   2.292   3.213   2.077 -0.3545 -0.3545  0.1132
 3718TIP3    H111118   2.222   3.156   2.046  0.8748 -1.8891  0.0380
 3718TIP3    H211119   2.356   3.153   2.116  1.1490  0.9521 -0.2630
 3719TIP3   OH211120   3.791   6.074   2.696 -0.1713  0.2661 -0.7638
 3719TIP3    H111121   3.736   6.102   2.624 -2.3264 -1.0828  0.2602
 3719TIP3    H211122   3.799   5.979   2.686 -0.2798  0.0874  0.5901
 3720TIP3   OH211123   3.733   2.780   3.160 -0.7922  0.4573 -0.5785
 3720TIP3    H111124   3.817   2.741   3.181 -1.0792 -1.3970 -2.5658
 3720TIP3    H211125   3.691   2.795   3.245  0.8056 -0.2403  0.3618
 3721TIP3   OH211126   4.265   5.452   4.845  0.1022 -0.3814  0.0855
 3721TIP3    H111127   4.209   5.486   4.915  0.0067 -0.1660 -0.0937
 3721TIP3    H211128   4.333   5.518   4.833 -0.6514  0.2573 -0.9465
 3722TIP3   OH211129   2.225   2.801   3.199 -0.7109  0.2876 -0.5437
 3722TIP3    H111130   2.174   2.820   3.278 -1.0073 -1.2029 -0.3452
 3722TIP3    H211131   2.298   2.747   3.230  0.9038  2.1330 -0.8611
 3723TIP3   OH211132   3.075   3.941   1.080  0.2165  0.5512 -0.0022
 3723TIP3    H111133   3.018   3.968   1.008 -1.3456  1.4358  1.4834
 3723TIP3    H211134   3.016   3.901   1.143  1.5314 -0.1168  0.8431
 3724TIP3   OH211135   5.855   3.762   5.690 -0.1542 -0.4216  0.2410
 3724TIP3    H111136   5.859   3.854   5.663  0.5628 -0.6648 -0.5286
 3724TIP3    H211137   5.804   3.763   5.770  0.9381  0.8267  0.9647
 3725TIP3   OH211138   1.684   0.522   2.085 -0.3330  0.2338 -0.0475
 3725TIP3    H111139   1.719   0.508   1.997  0.3929  0.5355  0.1818
 3725TIP3    H211140   1.608   0.578   2.072 -1.7633 -1.7662 -0.7265
 3726TIP3   OH211141   1.160   5.224   2.654  0.1702 -0.0817  0.1395
 3726TIP3    H111142   1.248   5.236   2.691  0.6165 -0.7103 -0.6845
 3726TIP3    H211143   1.104   5.207   2.730  0.2875  2.6230  0.9607
 3727TIP3   OH211144   4.466   5.905   3.437 -0.4507 -0.1850 -0.4705
 3727TIP3    H111145   4.431   5.981   3.483 -1.6620 -0.9137 -0.1435
 3727TIP3    H211146   4.484   5.936   3.348 -1.3424  0.3751 -0.4659
 3728TIP3   OH211147   3.716   5.567   1.912 -0.5690  0.0041  0.3175
 3728TIP3    H111148   3.672   5.631   1.856 -1.0672 -0.5621  0.0595
 3728TIP3    H211149   3.700   5.483   1.870 -0.4223 -0.3604  0.9818
 3729TIP3   OH211150   5.551   2.758   0.298 -0.1187 -0.7349  0.0401
 3729TIP3    H111151   5.564   2.852   0.309 -4.1401  0.0242 -0.0713
 3729TIP3    H211152   5.638   2.720   0.309  1.4942  2.8588  1.2131
 3730TIP3   OH211153   5.642   0.888   5.487 -0.2170  0.6382  0.2754
 3730TIP3    H111154   5.646   0.928   5.400 -1.5975 -0.6880 -0.4484
 3730TIP3    H211155   5.549   0.883   5.507  0.0708  0.7357  1.7649
 3731TIP3   OH211156   3.337   0.755   2.156 -0.4546  0.1519 -0.0895
 3731TIP3    H111157   3.429   0.760   2.130 -0.6709  2.4821 -0.6755
 3731TIP3    H211158   3.290   0.745   2.073 -0.7635 -0.8125  0.1914
 3732TIP3   OH211159   6.545   5.178   0.292 -0.6708 -0.5044  0.2537
 3732TIP3    H111160   6.534   5.118   0.219 -1.6747 -1.7232  1.3633
 3732TIP3    H211161   6.505   5.260   0.262  0.0215 -0.6012 -0.9824
 3733TIP3   OH211162   0.724   2.306   4.121  0.0867 -0.7143 -0.1827
 3733TIP3    H111163   0.683   2.268   4.199  2.3283 -0.8112  1.0451
 3733TIP3    H211164   0.675   2.387   4.106 -1.0367 -1.2008  0.7306
 3734TIP3   OH211165   3.761   2.749   0.725 -0.2277  0.2134  0.3381
 3734TIP3    H111166   3.760   2.829   0.777 -1.2117 -0.2356  1.0334
 3734TIP3    H211167   3.809   2.686   0.780 -0.4591  0.0045  0.3032
 3735TIP3   OH211168   2.059   4.212   4.264 -0.4861  0.2033  0.0537
 3735TIP3    H111169   2.107   4.250   4.190  0.0219 -1.4396 -0.4991
 3735TIP3    H211170   2.097   4.255   4.341  0.3062  0.5657 -0.5167
 3736TIP3   OH211171   2.814   0.556   5.846 -0.2972  0.0686  0.4239
 3736TIP3    H111172   2.742   0.615   5.866 -0.1279 -0.1183  1.6422
 3736TIP3    H211173   2.827   0.565   5.752  0.4924  2.8599  0.7091
 3737TIP3   OH211174   6.754   4.220   0.732  0.3730 -0.1723  0.3427
 3737TIP3    H111175   6.782   4.308   0.706 -1.1302  0.3547  0.4322
 3737TIP3    H211176   6.780   4.164   0.659 -0.0144  0.6056 -0.4026
 3738TIP3   OH211177   3.715   0.835   5.889  0.2190 -0.0549  0.8197
 3738TIP3    H111178   3.641   0.775   5.893  0.8156 -0.7711  1.3510
 3738TIP3    H211179   3.738   0.839   5.796  0.0832 -0.5329  0.7683
 3739TIP3   OH211180   1.516   0.339   4.836 -0.3669  0.8285 -0.1595
 3739TIP3    H111181   1.499   0.405   4.902  0.0081 -0.4845  1.3165
 3739TIP3    H211182   1.609   0.319   4.844 -0.8038 -1.1044  0.6810
 3740TIP3   OH211183   0.716   5.898   4.099  0.7487  0.1112  0.2265
 3740TIP3    H111184   0.638   5.846   4.117  0.2881  0.2206 -1.3096
 3740TIP3    H211185   0.688   5.989   4.111  0.8515  0.1228  0.3884
 3741TIP3   OH211186   5.393   1.721   5.706  0.4484 -0.4189 -0.2893
 3741TIP3    H111187   5.307   1.729   5.746  0.9812  0.3815  0.7092
 3741TIP3    H211188   5.374   1.704   5.613 -0.7972 -2.6553  0.2917
 3742TIP3   OH211189   0.934   3.038   4.454  0.7979 -0.0977  0.2901
 3742TIP3    H111190   0.940   3.109   4.389  1.0726 -1.2624 -1.0034
 3742TIP3    H211191   1.024   3.021   4.480  0.7391 -0.0381  0.5370
 3743TIP3   OH211192   4.267   5.509   2.260 -0.3991  0.0817 -0.2497
 3743TIP3    H111193   4.249   5.597   2.226 -2.6539  0.2657  1.1792
 3743TIP3    H211194   4.249   5.451   2.186 -0.2339  0.7290 -0.8116
 3744TIP3   OH211195   5.000   3.066   4.089 -0.4783  0.0768 -0.2764
 3744TIP3    H111196   5.040   3.025   4.013 -1.1945  2.2336 -1.9172
 3744TIP3    H211197   4.914   3.024   4.097  0.0770 -1.0221  0.1596
 3745TIP3   OH211198   2.444   2.953   3.343  0.8015  0.2744 -0.0085
 3745TIP3    H111199   2.416   2.862   3.356 -0.2850  0.4770 -0.7994
 3745TIP3    H211200   2.505   2.949   3.270 -1.0012  0.4232 -1.6121
 3746TIP3   OH211201   1.335   5.906   1.338 -0.1488  0.0945 -0.2788
 3746TIP3    H111202   1.318   5.873   1.426  1.4064  2.3544  0.9801
 3746TIP3    H211203   1.397   5.843   1.300  0.6173  0.0643  0.9811
 3747TIP3   OH211204   5.508   6.237   4.957  0.2913  0.4420 -0.6140
 3747TIP3    H111205   5.506   6.176   4.883  1.9836 -0.7625  0.2563
 3747TIP3    H211206   5.593   6.222   4.999 -0.6463  0.9651  1.6725
 3748TIP3   OH211207   4.558   3.522   5.068 -0.1671  0.1404  0.0873
 3748TIP3    H111208   4.573   3.615   5.081  0.4396  0.3796 -2.0368
 3748TIP3    H211209   4.645   3.486   5.047 -0.7014 -0.5112 -1.1272
 3749TIP3   OH211210   4.476   0.416   1.784 -0.3615  0.0357  0.3445
 3749TIP3    H111211   4.385   0.410   1.756 -0.3386  0.5933  0.1352
 3749TIP3    H211212   4.525   0.432   1.703  0.2535 -2.8843  0.0372
 3750TIP3   OH211213   5.932   6.122   4.295 -0.6087  0.3959  0.4806
 3750TIP3    H111214   5.867   6.186   4.266  0.1023  0.9347  0.0437
 3750TIP3    H211215   5.955   6.074   4.216 -1.2132 -0.4852  0.8253
 3751TIP3   OH211216   2.118   3.990   0.218  0.1075 -0.2697 -0.6888
 3751TIP3    H111217   2.174   4.002   0.142 -0.9126 -1.5934 -1.7045
 3751TIP3    H211218   2.092   3.898   0.214  0.4888 -0.5503  1.6103
 3752TIP3   OH211219   1.382   5.910   4.173 -0.2896 -0.0665 -0.2558
 3752TIP3    H111220   1.470   5.936   4.199  0.5413 -0.6213 -2.3473
 3752TIP3    H211221   1.324   5.969   4.222  1.2158  0.3697  1.0727
 3753TIP3   OH211222   1.635   1.909   0.354  0.3202  0.2087 -0.2238
 3753TIP3    H111223   1.657   1.999   0.327 -0.0564  0.4613  0.3015
 3753TIP3    H211224   1.560   1.886   0.300  0.0227  0.4458  0.0844
 3754TIP3   OH211225   6.063   4.416   1.461 -0.0077  0.2825  0.1665
 3754TIP3    H111226   6.027   4.437   1.375 -0.1007  2.3772  0.6652
 3754TIP3    H211227   6.144   4.368   1.443 -0.7899 -0.6402 -1.0260
 3755TIP3   OH211228   0.165   0.051   4.111  0.6030 -0.1653  0.3621
 3755TIP3    H111229   0.146   0.089   4.025 -1.1808  1.2191  1.2947
 3755TIP3    H211230   0.079   0.029   4.147  1.2522  0.0462  2.1271
 3756TIP3   OH211231   0.572   5.800   2.811 -0.1716  0.6956  0.3100
 3756TIP3    H111232   0.506   5.848   2.760  0.3227  0.1231 -0.9169
 3756TIP3    H211233   0.625   5.755   2.745  1.4180  1.0975  1.2522
 3757TIP3   OH211234   0.263   5.399   1.443  0.1011 -0.3227 -0.1440
 3757TIP3    H111235   0.331   5.457   1.476 -0.3203 -0.2483  0.6264
 3757TIP3    H211236   0.255   5.420   1.350 -0.7548  1.5944  0.3194
 3758TIP3   OH211237   5.313   2.821   0.586 -0.5230  0.3013  0.0291
 3758TIP3    H111238   5.310   2.795   0.494  2.3893 -0.3326  0.0049
 3758TIP3    H211239   5.350   2.910   0.584  1.0732 -0.3245  0.6036
 3759TIP3   OH211240   0.714   0.809   1.260  0.0972 -0.1341 -0.3458
 3759TIP3    H111241   0.725   0.767   1.345  0.6242 -1.4958 -1.0658
 3759TIP3    H211242   0.797   0.795   1.215 -0.8019 -1.0991 -1.7952
 3760TIP3   OH211243   0.711   0.914   2.917  0.2224  0.4202 -0.3759
 3760TIP3    H111244   0.757   0.998   2.911 -1.4638  1.3735 -0.9778
 3760TIP3    H211245   0.752   0.859   2.850  1.4948  0.6705  0.1747
 3761TIP3   OH211246   6.559   6.650   5.711  0.5243  0.3085  0.1265
 3761TIP3    H111247   6.496   6.623   5.777  2.7540 -0.7532  1.9451
 3761TIP3    H211248   6.639   6.600   5.731  1.2117 -0.4168 -3.6625
 3762TIP3   OH211249   6.900   2.698   0.984 -0.8560  0.6659 -0.1923
 3762TIP3    H111250   6.924   2.750   0.907 -1.0139  0.6007 -0.2861
 3762TIP3    H211251   6.918   2.756   1.058 -3.9099  2.0615 -0.4033
 3763TIP3   OH211252   0.056   1.984   3.237  0.1277 -0.3711 -0.1176
 3763TIP3    H111253   0.118   2.001   3.308 -0.0125 -0.6087  0.0640
 3763TIP3    H211254   0.110   1.986   3.158  0.2353  0.1826 -0.0335
 3764TIP3   OH211255   5.168   6.236   3.020 -0.6594 -0.2006  0.2106
 3764TIP3    H111256   5.193   6.328   3.022 -0.0522 -0.3557 -0.0070
 3764TIP3    H211257   5.169   6.208   3.111  1.9091 -0.6979  0.1175
 3765TIP3   OH211258   5.248   5.684   5.624 -0.1870 -0.6515  0.4497
 3765TIP3    H111259   5.264   5.703   5.716 -2.0582  2.0786  0.3430
 3765TIP3    H211260   5.280   5.761   5.578 -1.4858 -0.8711 -0.9113
 3766TIP3   OH211261   5.731   6.059   3.996 -0.1133 -0.0058 -0.1371
 3766TIP3    H111262   5.696   6.144   3.967 -0.2963  0.3409  1.0602
 3766TIP3    H211263   5.693   5.996   3.934 -1.9932  0.4970  0.4375
 3767TIP3   OH211264   0.248   6.441   4.046  0.1191 -0.2899  0.7521
 3767TIP3    H111265   0.319   6.497   4.078 -2.0481  2.7250  0.6217
 3767TIP3    H211266   0.280   6.409   3.961  1.1165  1.4921  0.4101
 3768TIP3   OH211267   5.441   2.605   0.711  0.5921  0.2169  0.2307
 3768TIP3    H111268   5.413   2.521   0.676  0.0420  1.0599 -1.4489
 3768TIP3    H211269   5.395   2.670   0.659 -0.1502  1.5970  2.4555
 3769TIP3   OH211270   2.121   1.788   5.434 -0.0152  0.3889 -0.1060
 3769TIP3    H111271   2.211   1.772   5.405  0.8048  2.2932  1.1729
 3769TIP3    H211272   2.083   1.845   5.366 -0.0318  0.1540 -0.2954
 3770TIP3   OH211273   0.213   3.772   0.842  0.3310  0.1037  0.6539
 3770TIP3    H111274   0.265   3.849   0.819  2.1015 -0.6791  1.8219
 3770TIP3    H211275   0.244   3.703   0.784 -3.2562  0.7883 -2.4605
 3771TIP3   OH211276   5.956   5.760   0.351 -0.4286  0.6319  0.4547
 3771TIP3    H111277   5.996   5.786   0.434 -1.4639  4.1737  0.0202
 3771TIP3    H211278   6.022   5.780   0.285 -0.3643 -0.2183  0.2534
 3772TIP3   OH211279   4.775   0.997   5.879  0.5789  0.0772  0.2438
 3772TIP3    H111280   4.840   0.947   5.830 -0.1898  0.4839 -1.2224
 3772TIP3    H211281   4.793   1.088   5.857 -0.6885  0.1787 -0.4416
 3773TIP3   OH211282   1.813   0.184   0.298  0.4689  0.0042 -0.3515
 3773TIP3    H111283   1.795   0.264   0.249 -0.2911 -0.3914 -0.7566
 3773TIP3    H211284   1.729   0.138   0.299  0.7580 -0.5328  0.3475
 3774TIP3   OH211285   6.208   1.688   2.876 -0.0979 -0.2806 -0.2117
 3774TIP3    H111286   6.302   1.673   2.865 -0.1370  0.5136 -1.8615
 3774TIP3    H211287   6.203   1.773   2.920 -0.0341  0.3261 -1.3360
 3775TIP3   OH211288   5.717   3.137   3.167  0.2509 -0.3597  0.0017
 3775TIP3    H111289   5.640   3.102   3.122 -0.1946 -1.3866  1.4724
 3775TIP3    H211290   5.683   3.169   3.251  1.3445 -0.3517  0.4542
 3776TIP3   OH211291   5.446   5.028   3.559  0.2921 -0.6678 -0.3907
 3776TIP3    H111292   5.449   5.065   3.470  0.4961 -1.4035 -0.6933
 3776TIP3    H211293   5.358   5.050   3.590 -0.3406 -1.7312 -1.3557
 3777TIP3   OH211294   2.718   2.045   1.915  0.1124  0.0392 -0.0509
 3777TIP3    H111295   2.750   1.990   1.986 -0.3014  0.6625  0.6350
 3777TIP3    H211296   2.630   2.011   1.896  0.1490 -0.0061 -0.1430
 3778TIP3   OH211297   6.042   3.117   0.852 -0.0310 -0.2428 -0.0911
 3778TIP3    H111298   6.025   3.067   0.932 -1.8987  2.1159  1.1478
 3778TIP3    H211299   6.127   3.158   0.867  0.6981 -1.6171 -0.3596
 3779TIP3   OH211300   1.712   2.631   3.327  0.6715  0.2949  0.1288
 3779TIP3    H111301   1.682   2.548   3.363  0.7154  0.0076 -0.5009
 3779TIP3    H211302   1.633   2.687   3.327  0.2427 -0.2891 -1.0315
 3780TIP3   OH211303   6.850   6.044   4.071 -0.4470  0.5449  0.0009
 3780TIP3    H111304   6.867   5.962   4.118  0.6460 -0.0460 -1.3566
 3780TIP3    H211305   6.925   6.099   4.091 -1.4414  1.4817  1.3618
 3781TIP3   OH211306   0.248   3.913   4.250  0.4631  0.1353 -0.0298
 3781TIP3    H111307   0.309   3.987   4.254  0.8997 -0.2751  1.2490
 3781TIP3    H211308   0.178   3.943   4.193  0.4435  1.6840  0.7671
 3782TIP3   OH211309   4.234   0.144   2.183 -0.2856  0.1224  0.1835
 3782TIP3    H111310   4.160   0.202   2.166 -0.3508  1.3184  3.6656
 3782TIP3    H211311   4.286   0.146   2.103 -0.2237  5.1915  0.0438
 3783TIP3   OH211312   5.164   4.686   0.960  0.4773  0.2185 -0.3210
 3783TIP3    H111313   5.254   4.679   0.993  0.0743  0.7424  0.9774
 3783TIP3    H211314   5.121   4.745   1.022 -1.0133 -0.7377 -0.4005
 3784TIP3   OH211315   2.230   2.428   1.915 -0.1882 -0.3534 -0.3731
 3784TIP3    H111316   2.324   2.412   1.905 -0.1047 -0.3147  0.3279
 3784TIP3    H211317   2.220   2.461   2.004 -0.7461  0.5777 -0.7682
 3785TIP3   OH211318   3.898   0.957   1.373  0.1625 -0.2991 -0.3728
 3785TIP3    H111319   3.861   1.044   1.359 -0.8174 -0.7182 -0.4688
 3785TIP3    H211320   3.978   0.957   1.321  0.4887  0.7418  0.0982
 3786TIP3   OH211321   4.570   4.184   0.805 -0.0171 -0.4128  0.0065
 3786TIP3    H111322   4.527   4.246   0.747  1.0923  0.1972 -0.1964
 3786TIP3    H211323   4.654   4.224   0.825  0.8325 -1.9443 -0.3162
 3787TIP3   OH211324   0.507   0.127   2.498  0.2217 -0.3793 -0.3796
 3787TIP3    H111325   0.553   0.201   2.538  0.6914 -1.6389  1.5460
 3787TIP3    H211326   0.547   0.118   2.412  0.7564  1.0392 -0.3115
 3788TIP3   OH211327   3.422   5.279   5.271 -0.7676 -0.1251  0.3978
 3788TIP3    H111328   3.363   5.352   5.255  0.2469  0.5879 -0.2559
 3788TIP3    H211329   3.497   5.296   5.214 -0.3438 -1.4928  0.5031
 3789TIP3   OH211330   7.181   1.156   3.877  0.4134  0.0460  0.2640
 3789TIP3    H111331   7.215   1.140   3.789 -0.4175  0.7252 -0.1908
 3789TIP3    H211332   7.095   1.194   3.863  1.0604  2.0645  1.3178
 3790TIP3   OH211333   2.981   5.404   1.995  0.1036  0.2933  0.0801
 3790TIP3    H111334   3.045   5.410   1.924 -0.9258 -0.5480 -0.9699
 3790TIP3    H211335   3.002   5.477   2.053  1.2818  0.7094 -0.8243
 3791TIP3   OH211336   0.728   2.214   3.861  0.4659  0.2506 -0.3957
 3791TIP3    H111337   0.727   2.234   3.955 -1.7879 -1.3943 -0.0018
 3791TIP3    H211338   0.720   2.119   3.857  0.8353  0.2766 -2.2748
 3792TIP3   OH211339   3.191   1.175   1.029 -0.1753 -0.5522  0.0361
 3792TIP3    H111340   3.140   1.252   1.054  0.4107 -0.3378  0.5895
 3792TIP3    H211341   3.157   1.150   0.943 -3.4359 -2.3038  1.6573
 3793TIP3   OH211342   4.839   4.938   0.521 -0.1140 -0.0267 -0.4145
 3793TIP3    H111343   4.900   4.961   0.451 -1.1949  1.6560 -0.8854
 3793TIP3    H211344   4.814   4.847   0.502 -0.2823  0.3424 -2.1865
 3794TIP3   OH211345   6.118   6.083   2.836 -0.5968 -0.0296  0.1329
 3794TIP3    H111346   6.038   6.049   2.877  1.0933 -0.1080  3.6769
 3794TIP3    H211347   6.133   6.167   2.879  1.2992 -0.0770 -0.3631
 3795TIP3   OH211348   2.476   5.832   2.527 -0.0475  0.1155 -0.6838
 3795TIP3    H111349   2.519   5.909   2.490  0.1202  0.0742 -0.5755
 3795TIP3    H211350   2.538   5.760   2.511  0.3842  0.2380  0.3753
 3796TIP3   OH211351   0.766   2.482   0.005  0.1221  0.2280  0.7194
 3796TIP3    H111352   0.782   2.390   0.027  0.6630  0.3929  1.0460
 3796TIP3    H211353   0.847   2.526   0.028 -0.2059  0.8221  0.7523
 3797TIP3   OH211354   4.007   6.567   2.011 -0.4681  0.4529  0.3048
 3797TIP3    H111355   4.020   6.475   1.986 -3.8041 -0.0170 -0.0753
 3797TIP3    H211356   4.085   6.612   1.977  0.5845 -1.9791 -0.7515
 3798TIP3   OH211357   2.307   3.544   1.176  0.3237  0.4297  0.2230
 3798TIP3    H111358   2.376   3.490   1.136  0.3366  1.1905 -0.8229
 3798TIP3    H211359   2.335   3.634   1.160  0.0170  0.7610  1.4528
 3799TIP3   OH211360   6.627   1.431   3.135 -0.1001  0.0543  0.8810
 3799TIP3    H111361   6.667   1.473   3.059  1.6319 -1.0575  1.1464
 3799TIP3    H211362   6.541   1.402   3.103  0.7300 -0.7111 -0.7586
 3800TIP3   OH211363   1.785   3.039   2.433 -0.7017 -0.4494 -0.1649
 3800TIP3    H111364   1.879   3.052   2.417 -0.3645 -1.6880  0.6572
 3800TIP3    H211365   1.775   2.944   2.442 -1.8151 -0.2515  1.0342
 3801TIP3   OH211366   1.003   1.769   2.342  0.4305 -0.0730  0.0702
 3801TIP3    H111367   1.039   1.776   2.430  0.4374  0.1470  0.0490
 3801TIP3    H211368   0.920   1.815   2.346  0.3076 -0.2889  0.0296
 3802TIP3   OH211369   4.038   1.780   2.605 -0.7502  0.1111 -0.1083
 3802TIP3    H111370   4.025   1.871   2.630 -1.6958 -0.6817  2.5437
 3802TIP3    H211371   4.125   1.757   2.639 -1.7657 -0.7846  2.0324
 3803TIP3   OH211372   5.944   3.885   3.286  0.2048 -0.0395  0.2629
 3803TIP3    H111373   5.984   3.800   3.266  1.2701  0.6887 -0.8413
 3803TIP3    H211374   5.986   3.912   3.368  3.1676  1.3285 -1.5503
 3804TIP3   OH211375   5.469   1.810   3.258  0.2951 -0.2071 -0.2854
 3804TIP3    H111376   5.396   1.859   3.220  0.3537 -0.6356 -0.9663
 3804TIP3    H211377   5.546   1.865   3.241  0.0604  0.5512  1.0023
 3805TIP3   OH211378   3.118   6.086   4.088 -0.3889 -0.2520  0.6342
 3805TIP3    H111379   3.155   6.000   4.069  0.8112  0.0963  1.2714
 3805TIP3    H211380   3.160   6.111   4.171 -0.1830  1.2522  0.0882
 3806TIP3   OH211381   0.955   5.283   1.232  0.3468  0.0335  0.0348
 3806TIP3    H111382   0.962   5.306   1.325 -0.9679  2.0733 -0.2966
 3806TIP3    H211383   0.885   5.218   1.229 -0.7476  1.1415  0.3714
 3807TIP3   OH211384   3.599   1.658   2.242  0.2230  0.5120 -0.5539
 3807TIP3    H111385   3.622   1.740   2.197 -1.9792  1.2798 -0.3825
 3807TIP3    H211386   3.515   1.632   2.205 -0.0438 -0.6333  0.7583
 3808TIP3   OH211387   2.364   3.540   0.756 -0.3637  0.0025  0.1624
 3808TIP3    H111388   2.371   3.539   0.661 -1.8601  0.2301  0.0183
 3808TIP3    H211389   2.439   3.490   0.787 -1.1394 -2.1372 -1.2236
 3809TIP3   OH211390   2.270   0.409   4.345  0.0433  0.0269  0.3366
 3809TIP3    H111391   2.284   0.382   4.254 -0.3349  0.2794  0.1990
 3809TIP3    H211392   2.234   0.498   4.338 -0.0202  0.0350  0.7326
 3810TIP3   OH211393   3.042   6.599   0.876  0.0122 -0.6373 -0.2119
 3810TIP3    H111394   2.984   6.562   0.943  0.3980  1.0797  1.1480
 3810TIP3    H211395   3.041   6.693   0.894  1.0766 -0.2752 -1.8959
 3811TIP3   OH211396   6.163   5.537   2.345  0.1123  0.0480 -0.3721
 3811TIP3    H111397   6.223   5.610   2.330 -0.8140  0.7665 -0.6932
 3811TIP3    H211398   6.198   5.494   2.423  0.4102  1.1404  0.1307
 3812TIP3   OH211399   3.412   3.819   5.521  0.3868  0.4310  0.0487
 3812TIP3    H111400   3.360   3.841   5.443 -2.5920 -0.5808  1.5998
 3812TIP3    H211401   3.459   3.740   5.497 -0.5910  0.0594 -0.7224
 3813TIP3   OH211402   3.606   5.759   5.174  0.1436 -0.3992  0.4485
 3813TIP3    H111403   3.597   5.667   5.201  3.0357 -0.8689  0.1310
 3813TIP3    H211404   3.596   5.808   5.256  1.3111 -1.2401  1.1380
 3814TIP3   OH211405   3.988   0.420   5.591 -0.4387  0.3479 -0.0353
 3814TIP3    H111406   3.944   0.452   5.512 -0.2260 -2.5054 -1.4459
 3814TIP3    H211407   4.081   0.417   5.568 -0.0852  1.5733  1.1432
 3815TIP3   OH211408   3.918   5.207   0.078 -0.7367  0.1142  0.0724
 3815TIP3    H111409   3.887   5.123   0.042  0.6385  0.1626 -1.3498
 3815TIP3    H211410   3.985   5.236   0.016  0.6771  0.9953  1.9370
 3816TIP3   OH211411   4.424   1.563   0.786  0.2154  0.0620  0.2976
 3816TIP3    H111412   4.464   1.648   0.763  0.7821  0.2631  1.9119
 3816TIP3    H211413   4.354   1.586   0.847 -1.5082 -0.4238 -1.4170
 3817TIP3   OH211414   0.911   4.565   0.190 -0.0801  0.1240  0.5525
 3817TIP3    H111415   0.959   4.648   0.187  0.3580 -0.1261  0.5680
 3817TIP3    H211416   0.819   4.591   0.196 -0.1673  0.6532 -1.9132
 3818TIP3   OH211417   4.794   4.679   0.414  0.0350  0.6664 -0.4053
 3818TIP3    H111418   4.765   4.588   0.411 -0.3778  0.8017 -0.8022
 3818TIP3    H211419   4.846   4.690   0.334  0.4667  0.6564 -0.1257
 3819TIP3   OH211420   0.764   3.970   2.099  0.1793 -0.0364  0.5533
 3819TIP3    H111421   0.719   3.919   2.167 -1.3448  0.3517 -0.1225
 3819TIP3    H211422   0.771   3.910   2.025 -0.9210  0.4799  0.0214
 3820TIP3   OH211423   6.512   3.098   0.357  0.3849 -0.1867  0.0898
 3820TIP3    H111424   6.452   3.024   0.350 -1.9085  1.5561  0.0524
 3820TIP3    H211425   6.511   3.137   0.269  0.6953  0.4953  0.3824
 3821TIP3   OH211426   1.695   1.074   0.525  0.0911  0.4149 -0.1087
 3821TIP3    H111427   1.729   1.071   0.615  0.9636  1.9670 -0.3323
 3821TIP3    H211428   1.698   0.984   0.495 -1.6902 -0.3981  1.9182
 3822TIP3   OH211429   2.958   1.906   4.375  0.2207  0.0239  1.0987
 3822TIP3    H111430   3.007   1.824   4.379 -0.5096 -0.5031 -0.1662
 3822TIP3    H211431   2.966   1.934   4.284  0.0836  1.1212  1.4167
 3823TIP3   OH211432   2.133   5.092   4.548 -0.6261 -0.6054 -0.1558
 3823TIP3    H111433   2.176   5.008   4.561 -0.2953 -0.4173 -0.0266
 3823TIP3    H211434   2.074   5.077   4.474 -1.0731 -1.1346  0.2993
 3824TIP3   OH211435   2.957   4.097   1.345 -0.8435 -0.0774  0.6302
 3824TIP3    H111436   2.901   4.041   1.398  2.0904 -0.9516  3.1049
 3824TIP3    H211437   3.045   4.084   1.380  0.7966  2.1492 -2.1473
 3825TIP3   OH211438   5.423   5.447   0.220 -0.3804  0.1942 -0.5575
 3825TIP3    H111439   5.494   5.467   0.282 -1.2498 -1.7943  1.1931
 3825TIP3    H211440   5.467   5.441   0.135  1.7038 -1.3815  0.5243
 3826TIP3   OH211441   6.498   0.534   5.259 -0.3327  0.1675  0.5847
 3826TIP3    H111442   6.498   0.557   5.352  1.1087 -0.9343  0.8969
 3826TIP3    H211443   6.590   0.542   5.232 -0.7057  0.3280 -0.7144
 3827TIP3   OH211444   0.332   6.163   2.258  0.1439  0.0782  0.1512
 3827TIP3    H111445   0.308   6.104   2.186 -0.0603  0.4703 -0.1074
 3827TIP3    H211446   0.259   6.159   2.319 -0.3262  0.8226 -0.3513
 3828TIP3   OH211447   2.805   4.567   3.631  0.1405 -0.7369 -0.0449
 3828TIP3    H111448   2.829   4.652   3.668 -0.3862 -0.0410 -1.2586
 3828TIP3    H211449   2.791   4.511   3.707 -1.4727  0.7990  0.8743
 3829TIP3   OH211450   6.139   0.965   3.822  0.2286  0.0700  1.1494
 3829TIP3    H111451   6.132   1.015   3.740  0.1769  0.2117  1.2389
 3829TIP3    H211452   6.121   0.875   3.796 -1.9956  0.3926  1.3443
 3830TIP3   OH211453   3.939   3.170   2.191 -0.6046 -0.4326  0.3695
 3830TIP3    H111454   3.886   3.249   2.198 -0.1713 -0.1088  0.0359
 3830TIP3    H211455   3.941   3.134   2.280 -1.6215 -0.6120  0.3346
 3831TIP3   OH211456   3.556   0.191   4.987 -0.3318 -0.2481  0.3506
 3831TIP3    H111457   3.644   0.157   4.977 -0.6747 -0.7420 -1.3522
 3831TIP3    H211458   3.553   0.268   4.930 -1.0978 -0.4636  0.0746
 3832TIP3   OH211459   6.509   5.672   5.794  0.5455  0.2441  0.0311
 3832TIP3    H111460   6.518   5.671   5.699 -1.4662 -1.4743 -0.2164
 3832TIP3    H211461   6.440   5.736   5.811 -0.3320 -0.6912  0.1298
 3833TIP3   OH211462   4.648   3.710   5.390 -0.0093 -0.1190  0.0362
 3833TIP3    H111463   4.635   3.637   5.449 -0.2950 -0.1081 -0.0144
 3833TIP3    H211464   4.584   3.697   5.320 -0.4737  0.5116  0.3413
 3834TIP3   OH211465   0.986   0.856   4.222  0.2962 -0.3601 -0.0014
 3834TIP3    H111466   0.954   0.771   4.253  1.8491 -1.5549 -1.5016
 3834TIP3    H211467   1.058   0.877   4.282 -0.0836 -0.0900  0.3657
 3835TIP3   OH211468   4.702   1.417   2.016 -0.0200 -0.4439  0.0853
 3835TIP3    H111469   4.763   1.436   2.088  0.6882  2.0605 -1.0554
 3835TIP3    H211470   4.726   1.329   1.987  2.5451  0.1295  0.2247
 3836TIP3   OH211471   3.458   3.408   3.059 -0.1765 -0.2923  0.0806
 3836TIP3    H111472   3.462   3.383   2.967 -0.6669 -1.1604  0.2786
 3836TIP3    H211473   3.546   3.440   3.080 -0.5398  1.6605 -1.1424
 3837TIP3   OH211474   3.817   3.085   4.190  0.2774  0.3142  0.3647
 3837TIP3    H111475   3.862   3.094   4.274 -0.4693  0.8651  0.7155
 3837TIP3    H211476   3.856   3.007   4.151  0.9984  0.3454  0.9901
 3838TIP3   OH211477   5.706   0.532   5.869  0.1234 -0.2647 -0.4101
 3838TIP3    H111478   5.796   0.503   5.849 -0.6995 -1.9950 -1.9312
 3838TIP3    H211479   5.692   0.607   5.812 -0.0770 -1.3386 -1.8462
 3839TIP3   OH211480   2.017   0.439   4.484 -0.0948 -0.4137  0.7886
 3839TIP3    H111481   1.990   0.517   4.533  0.2565  0.6242 -0.6125
 3839TIP3    H211482   2.108   0.424   4.511  0.3998  0.7013 -0.1755
 3840TIP3   OH211483   3.941   1.569   4.644 -0.4699 -0.4462 -0.1135
 3840TIP3    H111484   3.953   1.664   4.643 -0.2998 -0.4708 -1.3049
 3840TIP3    H211485   4.016   1.534   4.597 -1.2222 -1.0873 -0.8702
 3841TIP3   OH211486   3.828   0.541   2.720 -0.2104 -0.0815  0.4725
 3841TIP3    H111487   3.753   0.487   2.698 -0.1742  0.0191  0.0940
 3841TIP3    H211488   3.792   0.629   2.730 -0.0074  0.1341 -0.6111
 3842TIP3   OH211489   2.269   3.515   4.205 -0.1889  0.3195 -0.0383
 3842TIP3    H111490   2.331   3.446   4.230 -0.7981 -1.1325 -2.2267
 3842TIP3    H211491   2.185   3.484   4.238 -0.0861  1.3116  1.2000
 3843TIP3   OH211492   2.465   1.362   1.497 -0.6249 -0.2031 -0.2492
 3843TIP3    H111493   2.553   1.394   1.479 -0.4154 -0.3380  0.5184
 3843TIP3    H211494   2.477   1.276   1.537 -1.0295  0.3460  1.1370
 3844TIP3   OH211495   5.768   2.977   4.793 -0.8740  0.7925 -0.1301
 3844TIP3    H111496   5.745   3.031   4.717 -2.0697  1.2997  0.5710
 3844TIP3    H211497   5.861   2.957   4.780 -0.6898  2.0534 -0.9945
 3845TIP3   OH211498   0.697   6.610   2.388 -0.0942  0.3370  0.0441
 3845TIP3    H111499   0.639   6.668   2.437 -0.3324  0.2347 -0.1157
 3845TIP3    H211500   0.692   6.526   2.433  0.7812  0.6074  0.6906
 3846TIP3   OH211501   6.538   0.340   0.355  0.3071  0.6365  0.1212
 3846TIP3    H111502   6.524   0.291   0.274 -0.6632  1.7982 -0.4407
 3846TIP3    H211503   6.500   0.285   0.424 -1.0618  0.7240 -0.5394
 3847TIP3   OH211504   0.404   3.019   0.079 -0.4989  0.0153  0.5240
 3847TIP3    H111505   0.441   2.931   0.079 -0.5712 -0.0332  1.7661
 3847TIP3    H211506   0.397   3.043  -0.013 -1.4432 -1.6932  0.1185
 3848TIP3   OH211507   1.945   5.785   5.529  0.8904  0.8835  0.5083
 3848TIP3    H111508   2.009   5.837   5.480  1.4892  0.6722  1.0464
 3848TIP3    H211509   1.966   5.802   5.621 -1.3050  2.6350  0.7701
 3849TIP3   OH211510   5.985   4.099   1.526  1.0484  0.5275  0.1109
 3849TIP3    H111511   6.025   4.174   1.570 -0.0112  0.9727  0.3442
 3849TIP3    H211512   5.923   4.138   1.465  0.9023 -0.1542 -0.1828
 3850TIP3   OH211513   5.750   3.264   2.723 -0.1632 -0.2364  0.0504
 3850TIP3    H111514   5.710   3.333   2.776 -0.1154  0.5282 -0.8784
 3850TIP3    H211515   5.682   3.197   2.717 -0.9993  0.6520 -0.7609
 3851TIP3   OH211516   2.994   1.517   0.467  0.4290 -0.4052 -0.4465
 3851TIP3    H111517   2.950   1.554   0.390  0.6889  0.5158 -0.1686
 3851TIP3    H211518   2.955   1.563   0.541  1.7929  0.3758 -0.1893
 3852TIP3   OH211519   0.426   5.120   3.924  0.1546 -0.4577 -0.8506
 3852TIP3    H111520   0.390   5.121   4.013  0.2690 -0.1734 -0.8074
 3852TIP3    H211521   0.512   5.078   3.933  0.7685  0.8139 -0.5926
 3853TIP3   OH211522   1.889   3.975   2.524 -0.1901  0.7159  0.0016
 3853TIP3    H111523   1.902   3.895   2.574 -1.9880  0.5625  0.2724
 3853TIP3    H211524   1.909   4.045   2.587  1.3818  0.5250 -0.2356
 3854TIP3   OH211525   1.350   5.116   0.198 -0.0284  0.4789  0.7253
 3854TIP3    H111526   1.296   5.147   0.126  0.0624  3.0673  1.6784
 3854TIP3    H211527   1.428   5.079   0.156 -0.3357  1.2103 -0.5294
 3855TIP3   OH211528   0.133   3.031   2.117  0.9291 -0.4634  0.0428
 3855TIP3    H111529   0.224   3.054   2.099  0.7015 -0.3927 -1.1507
 3855TIP3    H211530   0.116   2.955   2.061  0.2447 -0.4474  0.2209
 3856TIP3   OH211531   0.942   5.753   2.486 -0.2340  0.1336  0.3394
 3856TIP3    H111532   1.023   5.768   2.536  0.9135  1.7974 -1.8025
 3856TIP3    H211533   0.960   5.674   2.436  0.7041  1.2305 -1.1503
 3857TIP3   OH211534   7.094   5.139   0.496 -0.2582 -0.0564 -0.4977
 3857TIP3    H111535   7.189   5.126   0.487 -0.1445  0.7106 -0.4405
 3857TIP3    H211536   7.085   5.215   0.553 -0.8900  0.4289 -1.2163
 3858TIP3   OH211537   6.122   3.927   3.484  0.1333 -0.1057 -0.5621
 3858TIP3    H111538   6.190   3.860   3.473  1.9619  1.1501  2.0675
 3858TIP3    H211539   6.171   4.009   3.491 -1.9391  1.3782 -2.1848
 3859TIP3   OH211540   3.858   1.906   3.224  0.4724 -0.5417  0.1948
 3859TIP3    H111541   3.793   1.953   3.173  0.1033  0.8537  1.8757
 3859TIP3    H211542   3.926   1.970   3.242  1.4557 -1.4905 -0.0019
 3860TIP3   OH211543   6.470   4.243   0.895 -0.1349 -0.1167  0.3610
 3860TIP3    H111544   6.496   4.151   0.882 -0.6085 -0.2801  0.5632
 3860TIP3    H211545   6.553   4.291   0.890 -0.0219 -0.3983 -1.1111
 3861TIP3   OH211546   2.024   2.275   2.428 -0.4505 -0.0515  0.1857
 3861TIP3    H111547   2.081   2.208   2.390 -0.8885 -0.2975 -0.0464
 3861TIP3    H211548   1.940   2.231   2.440 -0.3677  0.0691  1.3041
 3862TIP3   OH211549   5.957   1.034   4.954 -0.1745 -0.2471 -0.0270
 3862TIP3    H111550   5.922   1.076   5.032  1.5379  0.2188  0.5438
 3862TIP3    H211551   6.052   1.047   4.961 -0.0070  0.3012 -2.4650
 3863TIP3   OH211552   3.222   3.767   3.707  0.1744  0.0392 -0.1176
 3863TIP3    H111553   3.204   3.677   3.734 -1.5358  0.2532 -0.4397
 3863TIP3    H211554   3.136   3.809   3.703  0.8014  1.3035 -1.3325
 3864TIP3   OH211555   6.080   0.669   2.579 -0.5220 -0.1270  0.1167
 3864TIP3    H111556   6.157   0.644   2.528 -1.8984 -1.9908 -1.2467
 3864TIP3    H211557   6.101   0.754   2.617  2.0063 -0.3976 -0.5443
 3865TIP3   OH211558   6.920   0.400   0.973 -0.3377  0.4062  0.3819
 3865TIP3    H111559   6.914   0.390   1.068 -0.0878 -0.8227  0.2833
 3865TIP3    H211560   6.942   0.313   0.941  0.1614  0.9300 -0.7599
 3866TIP3   OH211561   1.248   1.412   2.947 -0.3874 -0.5369  0.1548
 3866TIP3    H111562   1.164   1.435   2.907  0.3292  0.6693 -0.7095
 3866TIP3    H211563   1.314   1.451   2.889  0.7682 -1.2830  0.9291
 3867TIP3   OH211564   1.547   4.620   1.471  0.4437 -0.2097 -0.0010
 3867TIP3    H111565   1.586   4.587   1.552  2.7062  0.5339 -0.7133
 3867TIP3    H211566   1.590   4.703   1.455  0.0612 -0.3295 -1.9692
 3868TIP3   OH211567   1.735   0.060   1.068 -0.0580  0.3007 -0.4429
 3868TIP3    H111568   1.707   0.035   0.980  0.1460 -0.7722 -0.2127
 3868TIP3    H211569   1.719  -0.018   1.121  1.1189  0.4773  0.1866
 3869TIP3   OH211570   5.960   3.656   2.314  0.0317 -0.0475 -0.0296
 3869TIP3    H111571   5.879   3.636   2.360  0.2796 -0.9481  0.0564
 3869TIP3    H211572   5.985   3.572   2.274  0.1034  0.5876 -1.3526
 3870TIP3   OH211573   6.724   5.803   1.220  0.2329  0.2307  0.2131
 3870TIP3    H111574   6.686   5.760   1.143  0.3202 -1.7054  1.1899
 3870TIP3    H211575   6.806   5.841   1.188  1.8028 -3.0630 -0.1746
 3871TIP3   OH211576   2.045   5.648   4.374 -0.2578 -0.2018 -0.2290
 3871TIP3    H111577   2.115   5.627   4.312  0.9707  0.5876  0.8397
 3871TIP3    H211578   2.091   5.670   4.455 -1.6345  2.0506  0.0181
 3872TIP3   OH211579   3.890   1.832   1.265  0.1668 -0.4571  0.5222
 3872TIP3    H111580   3.926   1.920   1.253  0.2581 -0.6668 -0.8801
 3872TIP3    H211581   3.823   1.843   1.332 -3.8237  1.9219 -3.3050
 3873TIP3   OH211582   2.697   2.229   5.851  0.1104  0.2346  0.3182
 3873TIP3    H111583   2.731   2.144   5.825  0.4232 -0.0111  1.4897
 3873TIP3    H211584   2.665   2.268   5.769  1.0310 -0.5098 -0.4190
 3874TIP3   OH211585   1.780   0.846   1.531 -0.0689  0.3754  0.1537
 3874TIP3    H111586   1.763   0.904   1.457 -1.1372 -0.5174 -0.3371
 3874TIP3    H211587   1.765   0.758   1.496  0.4056 -0.1312  1.1733
 3875TIP3   OH211588   4.428   2.405   4.725 -0.3590  0.6160 -0.2544
 3875TIP3    H111589   4.498   2.369   4.670  0.2176 -1.3023  1.5956
 3875TIP3    H211590   4.401   2.332   4.779 -1.9756  2.0314  0.9375
 3876TIP3   OH211591   1.359   2.036   3.951 -0.0193 -0.6618 -0.0889
 3876TIP3    H111592   1.398   2.026   4.038 -0.4646  0.4009  0.2498
 3876TIP3    H211593   1.357   1.947   3.915 -2.3776 -1.6152  2.0802
 3877TIP3   OH211594   2.962   5.863   4.721 -0.0102  0.3598  0.1877
 3877TIP3    H111595   3.027   5.910   4.773 -1.9749  0.9631  2.3158
 3877TIP3    H211596   2.972   5.771   4.746 -0.1813  0.5006  0.7923
 3878TIP3   OH211597   6.286   2.871   1.018 -0.5031  0.5622 -0.3468
 3878TIP3    H111598   6.349   2.827   1.075  0.4586  0.9866 -1.0515
 3878TIP3    H211599   6.250   2.941   1.072  0.5757  1.1126 -0.3225
 3879TIP3   OH211600   0.228   4.227   5.483  0.2383 -0.4650 -1.0130
 3879TIP3    H111601   0.171   4.206   5.409  0.1151 -0.6361 -0.8700
 3879TIP3    H211602   0.169   4.235   5.558  0.0911  1.9047 -1.3238
 3880TIP3   OH211603   4.529   4.822   0.333  0.1331 -0.1664 -0.2810
 3880TIP3    H111604   4.600   4.830   0.396 -0.8342  2.5769  0.6367
 3880TIP3    H211605   4.557   4.875   0.258 -0.8797  0.9612  0.1018
 3881TIP3   OH211606   4.210   1.466   0.382 -0.2531  0.2745  0.3547
 3881TIP3    H111607   4.240   1.407   0.451  0.5065  1.0444  0.6999
 3881TIP3    H211608   4.259   1.439   0.305 -2.0679 -1.4658 -0.2803
 3882TIP3   OH211609   2.399   6.700   5.424 -0.3594  0.1648  0.0592
 3882TIP3    H111610   2.348   6.738   5.352  1.0920  0.2834 -0.9465
 3882TIP3    H211611   2.425   6.776   5.476 -3.1872 -0.0591  2.0303
 3883TIP3   OH211612   6.479   3.653   1.935 -0.0049  0.3150  0.2974
 3883TIP3    H111613   6.457   3.710   2.010 -1.6849  2.8800 -1.9532
 3883TIP3    H211614   6.574   3.649   1.936  0.0981  1.7937  1.5790
 3884TIP3   OH211615   5.531   0.567   2.503  0.6395  0.2576 -0.3048
 3884TIP3    H111616   5.525   0.635   2.437  3.4277  2.6744  1.6717
 3884TIP3    H211617   5.466   0.592   2.570  3.0555  2.4341  1.4307
 3885TIP3   OH211618   1.595   5.773   1.251 -0.0764  0.1293 -0.4857
 3885TIP3    H111619   1.645   5.855   1.250 -0.4239  0.3595  0.1606
 3885TIP3    H211620   1.659   5.705   1.230  0.3687  0.4875 -0.2956
 3886TIP3   OH211621   1.288   1.440   5.218  0.6571  0.4056  0.0841
 3886TIP3    H111622   1.325   1.355   5.239 -1.2847 -0.7419 -0.8004
 3886TIP3    H211623   1.334   1.501   5.275  3.0498 -0.9997 -0.1887
 3887TIP3   OH211624   2.366   1.536   3.565  0.2251 -0.8938 -0.2878
 3887TIP3    H111625   2.350   1.582   3.647 -0.2212  0.1722 -0.9617
 3887TIP3    H211626   2.314   1.456   3.572 -0.2860 -0.5232  0.2126
 3888TIP3   OH211627   6.354   4.370   3.481  0.1269  0.4213 -0.3919
 3888TIP3    H111628   6.357   4.284   3.439 -0.1823 -0.0967  0.6245
 3888TIP3    H211629   6.334   4.352   3.573  1.5232  1.4713  0.1623
 3889TIP3   OH211630   2.807   6.333   0.704  0.0152  0.0041 -0.2660
 3889TIP3    H111631   2.846   6.301   0.623 -0.0819  0.0886 -0.3465
 3889TIP3    H211632   2.850   6.283   0.773 -2.9532 -3.3404 -0.5476
 3890TIP3   OH211633   4.904   1.131   0.786 -0.8813 -0.6921  0.0216
 3890TIP3    H111634   4.831   1.140   0.724  0.6275 -3.0295 -2.3263
 3890TIP3    H211635   4.870   1.074   0.855 -2.3266  1.2629  1.0454
 3891TIP3   OH211636   2.337   1.413   5.791 -0.3588 -0.0218 -0.4845
 3891TIP3    H111637   2.405   1.362   5.835  0.6292  1.9068  0.3341
 3891TIP3    H211638   2.384   1.486   5.750 -1.7314  0.3341 -1.5023
 3892TIP3   OH211639   3.840   4.381   4.369 -0.0018  0.2496 -0.0277
 3892TIP3    H111640   3.788   4.400   4.291  0.2462 -0.3341 -0.3417
 3892TIP3    H211641   3.864   4.467   4.404  0.6017  0.5190 -1.0803
 3893TIP3   OH211642   5.716   5.669   0.432 -0.2747 -0.2841 -0.3274
 3893TIP3    H111643   5.695   5.720   0.510 -1.4153  1.1364 -1.5094
 3893TIP3    H211644   5.797   5.708   0.398 -1.2014  0.8964 -1.2887
 3894TIP3   OH211645   5.673   4.208   2.844 -0.2403  0.3603 -0.3176
 3894TIP3    H111646   5.736   4.140   2.864 -2.5585 -1.8377 -0.0218
 3894TIP3    H211647   5.719   4.290   2.862  3.0897 -0.9954 -1.9137
 3895TIP3   OH211648   4.763   4.367   2.751 -0.3126 -0.2123  0.5566
 3895TIP3    H111649   4.751   4.422   2.829 -1.2579  0.3562  0.0230
 3895TIP3    H211650   4.694   4.302   2.757 -1.2585  0.6461 -0.4728
 3896TIP3   OH211651   1.197   2.586   5.423 -0.5368  0.2591 -0.7838
 3896TIP3    H111652   1.207   2.679   5.401 -0.0565  0.1520 -1.0200
 3896TIP3    H211653   1.224   2.540   5.344  0.2303 -0.1084 -0.3105
 3897TIP3   OH211654   1.423   5.883   0.768  0.4436 -0.1500  0.0431
 3897TIP3    H111655   1.466   5.843   0.844  0.3266 -1.3678 -0.5075
 3897TIP3    H211656   1.407   5.974   0.794  0.8465 -0.4217  1.2872
 3898TIP3   OH211657   1.237   1.157   2.688  0.3499  0.4384  0.7613
 3898TIP3    H111658   1.152   1.157   2.644  0.3551  0.2334  0.7507
 3898TIP3    H211659   1.216   1.134   2.779  0.4112  0.2644  0.7294
 3899TIP3   OH211660   2.252   5.309   0.257  0.1501 -0.1524 -0.7112
 3899TIP3    H111661   2.281   5.327   0.168  0.7717  1.1645 -0.2633
 3899TIP3    H211662   2.219   5.393   0.289 -2.5834 -1.1929 -0.5810
 3900TIP3   OH211663   4.606   5.985   5.497  0.3061 -0.1777  0.4142
 3900TIP3    H111664   4.690   5.959   5.536  1.9884  1.3290 -1.9031
 3900TIP3    H211665   4.540   5.945   5.553  2.5607 -3.6654  0.9007
 3901TIP3   OH211666   2.452   4.252   1.928 -0.5303 -0.6255  0.7767
 3901TIP3    H111667   2.406   4.335   1.918  0.8584  0.2944  1.5803
 3901TIP3    H211668   2.385   4.190   1.955 -1.7752 -0.0049 -0.7330
 3902TIP3   OH211669   0.368   4.737   5.401  0.1785  0.7327  0.0058
 3902TIP3    H111670   0.285   4.706   5.367  1.1710 -1.9866 -0.1670
 3902TIP3    H211671   0.352   4.756   5.493 -0.5736  0.0542  0.0147
 3903TIP3   OH211672   3.801   2.620   5.616 -0.5750  0.0488 -0.3279
 3903TIP3    H111673   3.806   2.593   5.524 -1.0321  0.3128 -0.4331
 3903TIP3    H211674   3.791   2.715   5.612 -2.8184 -0.1084 -0.0919
 3904TIP3   OH211675   6.064   4.811   2.840  0.9392 -0.4130  0.3541
 3904TIP3    H111676   6.120   4.875   2.884  0.2748  1.1178 -0.9195
 3904TIP3    H211677   6.018   4.861   2.773  0.3830 -2.2424 -0.7182
 3905TIP3   OH211678   1.367   0.602   0.791  0.9529  0.5482  0.1798
 3905TIP3    H111679   1.304   0.673   0.806 -0.4181 -0.5604 -0.1120
 3905TIP3    H211680   1.423   0.604   0.869 -1.7519 -0.7336  2.3278
 3906TIP3   OH211681   3.641   0.907   0.320  0.0858 -0.4418  0.0943
 3906TIP3    H111682   3.614   0.988   0.277 -0.7138 -0.2699  0.8921
 3906TIP3    H211683   3.580   0.841   0.286 -1.3574 -0.0655  1.8574
 3907TIP3   OH211684   4.174   3.221   1.109  0.5772 -0.3719 -0.2832
 3907TIP3    H111685   4.213   3.134   1.099  0.9848 -0.0994 -1.1714
 3907TIP3    H211686   4.168   3.234   1.204  0.0981 -1.5424 -0.1407
 3908TIP3   OH211687   6.601   5.779   2.400 -0.0566  0.1329  0.2667
 3908TIP3    H111688   6.525   5.798   2.455 -0.1808 -0.4027  0.2872
 3908TIP3    H211689   6.639   5.865   2.381 -0.6813  0.4098  0.2337
 3909TIP3   OH211690   1.832   5.161   2.443 -0.1767  0.2675  0.3507
 3909TIP3    H111691   1.919   5.141   2.476 -0.6837  0.6082  2.0135
 3909TIP3    H211692   1.817   5.252   2.470  1.0882  2.3323 -4.7879
 3910TIP3   OH211693   0.071   2.728   3.263 -0.5226  0.2384 -0.0089
 3910TIP3    H111694   0.113   2.659   3.212 -1.0122  0.7210 -1.1007
 3910TIP3    H211695   0.129   2.804   3.254 -1.4198  0.8170 -1.2759
 3911TIP3   OH211696   4.088   3.798   4.508  0.1475  0.0649  0.0461
 3911TIP3    H111697   4.124   3.755   4.429 -1.0845 -1.4254  0.2458
 3911TIP3    H211698   4.061   3.884   4.478 -2.5817 -1.2949 -1.8726
 3912TIP3   OH211699   5.092   5.520   1.624  0.2753  0.2955  1.0409
 3912TIP3    H111700   5.092   5.537   1.530  0.0647 -0.5106  0.8868
 3912TIP3    H211701   5.105   5.425   1.631  1.1389  0.4545  1.8432
 3913TIP3   OH211702   0.628   0.095   4.255 -0.0891  0.2163 -0.4040
 3913TIP3    H111703   0.593   0.133   4.336  0.0311 -1.7827  0.6633
 3913TIP3    H211704   0.616   0.001   4.267 -0.5780 -0.1041 -2.9889
 3914TIP3   OH211705   4.310   6.115   1.395 -0.4069 -0.1837 -0.2573
 3914TIP3    H111706   4.364   6.181   1.353 -0.9750 -0.9242 -2.2827
 3914TIP3    H211707   4.220   6.145   1.381 -0.6509 -1.0900 -0.7215
 3915TIP3   OH211708   1.125   4.023   1.943  0.0749 -0.2209 -0.0173
 3915TIP3    H111709   1.141   4.034   2.037 -2.2813 -0.4423  0.4664
 3915TIP3    H211710   1.105   4.112   1.912 -1.5765 -0.4718  0.2420
 3916TIP3   OH211711   6.760   5.940   3.275 -0.4747  0.3711 -0.3760
 3916TIP3    H111712   6.720   6.020   3.241 -0.6339 -0.3227 -1.8693
 3916TIP3    H211713   6.688   5.892   3.314 -0.4322  0.7896  0.2413
 3917TIP3   OH211714   2.229   2.149   1.851  0.5186  0.2574 -0.5963
 3917TIP3    H111715   2.217   2.148   1.756 -1.8897  0.3056 -0.3679
 3917TIP3    H211716   2.216   2.241   1.876  0.6614  0.1677 -0.1737
 3918TIP3   OH211717   4.109   4.243   2.104 -0.1918  0.4237 -0.2976
 3918TIP3    H111718   4.185   4.199   2.066  0.1720  0.2171  0.6403
 3918TIP3    H211719   4.059   4.172   2.145 -0.5213  0.6529 -0.3005
 3919TIP3   OH211720   6.263   1.854   4.148  0.3787 -0.1937  0.3384
 3919TIP3    H111721   6.279   1.921   4.082  0.1051 -1.0347 -0.6153
 3919TIP3    H211722   6.315   1.779   4.118 -1.2286 -1.2317  0.0226
 3920TIP3   OH211723   5.219   1.737   0.439 -0.0502 -0.5571  0.0631
 3920TIP3    H111724   5.159   1.679   0.391  0.1008  0.1423 -1.0193
 3920TIP3    H211725   5.239   1.807   0.376  2.5477 -1.1900  0.0601
 3921TIP3   OH211726   2.289   6.471   3.546  0.0339  0.2719 -0.0253
 3921TIP3    H111727   2.378   6.495   3.521 -0.0242  0.2680 -0.2474
 3921TIP3    H211728   2.283   6.492   3.639  0.3753 -0.0564  0.0723
 3922TIP3   OH211729   4.193   1.608   1.926  0.0097  0.5937 -0.0982
 3922TIP3    H111730   4.138   1.532   1.946 -0.7272  0.8869 -0.9457
 3922TIP3    H211731   4.279   1.585   1.960 -0.2987 -0.4627 -0.0023
 3923TIP3   OH211732   1.659   5.957   4.222 -0.6085  0.1965  0.1756
 3923TIP3    H111733   1.708   5.891   4.271  1.7047  1.6645  0.0024
 3923TIP3    H211734   1.679   5.938   4.130 -1.3214  0.1353  0.0273
 3924TIP3   OH211735   0.688   2.323   4.523  0.1417  0.5121 -0.3171
 3924TIP3    H111736   0.614   2.296   4.576  1.3427 -1.5766  0.4255
 3924TIP3    H211737   0.702   2.415   4.545 -2.3227  1.0312 -0.6752
 3925TIP3   OH211738   7.139   1.632   1.971 -0.2182  0.1765 -0.2377
 3925TIP3    H111739   7.053   1.607   1.937 -0.4212  1.5428 -0.7997
 3925TIP3    H211740   7.123   1.659   2.061 -0.4554  0.7543 -0.4460
 3926TIP3   OH211741   0.972   1.986   1.598 -0.6278 -0.8621  0.5868
 3926TIP3    H111742   0.896   1.928   1.587 -1.9482  0.7356  1.0109
 3926TIP3    H211743   0.978   2.000   1.693  0.2947 -1.0865  0.5678
 3927TIP3   OH211744   7.072   2.946   3.266 -0.3576  0.1952 -0.3084
 3927TIP3    H111745   7.065   2.947   3.171 -0.2949 -2.7576 -0.4536
 3927TIP3    H211746   7.161   2.916   3.284 -0.4797  0.3656  0.6657
 3928TIP3   OH211747   1.569   5.483   1.095 -0.4947  0.6584  0.3496
 3928TIP3    H111748   1.534   5.428   1.025 -0.5634  1.1552 -0.0146
 3928TIP3    H211749   1.533   5.446   1.176  0.6173 -0.7181  0.2541
 3929TIP3   OH211750   0.919   0.790   2.310 -0.2386  0.2736  0.2366
 3929TIP3    H111751   0.980   0.862   2.328 -1.0195  0.6403  1.5876
 3929TIP3    H211752   0.838   0.833   2.282 -0.0323 -0.1946 -1.1749
 3930TIP3   OH211753   1.244   4.029   2.739 -0.0254 -0.4959 -0.2873
 3930TIP3    H111754   1.262   3.948   2.787  1.5160  0.5520  1.0036
 3930TIP3    H211755   1.325   4.079   2.745 -1.1341  1.4306 -0.4848
 3931TIP3   OH211756   5.057   6.096   0.364  0.1407  0.4486  0.4977
 3931TIP3    H111757   5.128   6.160   0.356 -0.6119  1.6349  2.4509
 3931TIP3    H211758   4.992   6.124   0.299  1.0281 -0.0751 -0.6370
 3932TIP3   OH211759   1.000   5.693   0.902  0.4717  0.4641 -0.2976
 3932TIP3    H111760   0.938   5.681   0.831  0.2848  0.5192 -0.1438
 3932TIP3    H211761   0.960   5.648   0.977  0.9329 -0.0951 -0.3722
 3933TIP3   OH211762   1.199   3.200   5.256 -0.4214  0.5054  0.0353
 3933TIP3    H111763   1.114   3.162   5.277  0.2524 -1.4753 -0.6883
 3933TIP3    H211764   1.226   3.241   5.338 -1.6961  0.4669  0.5078
 3934TIP3   OH211765   0.691   5.211   1.991  0.4890  0.1837 -0.7459
 3934TIP3    H111766   0.636   5.235   1.916 -2.4187  0.9530  1.4638
 3934TIP3    H211767   0.677   5.117   2.002 -1.1765  0.5252  0.3228
 3935TIP3   OH211768   3.237   2.967   4.722  0.0663  0.5165 -0.6750
 3935TIP3    H111769   3.309   3.026   4.744 -0.5331  0.8346  0.5109
 3935TIP3    H211770   3.271   2.879   4.738  0.0911  0.6802  0.2058
 3936TIP3   OH211771   0.079   2.374   3.134  0.3567  0.3704  0.6408
 3936TIP3    H111772   0.139   2.447   3.118 -0.6415  0.8762 -1.0996
 3936TIP3    H211773   0.010   2.411   3.189  0.1811  0.5749  0.2863
 3937TIP3   OH211774   2.989   4.928   0.125 -0.1334  0.2151  0.0023
 3937TIP3    H111775   2.924   4.891   0.065  0.5225 -2.4572  0.8376
 3937TIP3    H211776   2.976   4.882   0.207  1.7708  0.7756  0.6680
 3938TIP3   OH211777   1.251   1.079   1.360  0.1485 -0.3749 -0.3730
 3938TIP3    H111778   1.239   1.059   1.452  0.9045  0.3568 -0.1057
 3938TIP3    H211779   1.182   1.141   1.339  0.9636  0.7327  0.1348
 3939TIP3   OH211780   3.274   0.244   3.359  0.2502  0.1097 -0.0351
 3939TIP3    H111781   3.205   0.180   3.338  0.4911  0.3092 -1.5406
 3939TIP3    H211782   3.338   0.234   3.288  1.5185  0.3113  1.0499
 3940TIP3   OH211783   4.715   2.373   2.071  0.5794  0.0570  0.0004
 3940TIP3    H111784   4.741   2.400   2.160 -0.1304  0.3187  0.1346
 3940TIP3    H211785   4.772   2.299   2.051  0.6486 -0.0975  0.7336
 3941TIP3   OH211786   6.742   1.337   2.398 -0.6520 -0.5297 -0.7836
 3941TIP3    H111787   6.646   1.336   2.407 -0.5890  1.3499  1.0078
 3941TIP3    H211788   6.772   1.272   2.461 -0.7389 -0.0079 -0.1874
 3942TIP3   OH211789   5.535   5.631   4.943  0.6781 -0.3729  0.1472
 3942TIP3    H111790   5.518   5.537   4.946 -1.9737 -0.1440 -2.9510
 3942TIP3    H211791   5.490   5.667   5.019 -0.5207 -1.3855 -0.0660
 3943TIP3   OH211792   6.889   3.818   0.153  0.2495 -0.5090 -0.2550
 3943TIP3    H111793   6.805   3.819   0.199 -0.3239  1.4389 -1.2464
 3943TIP3    H211794   6.936   3.744   0.191 -1.5087 -1.0288  1.0411
 3944TIP3   OH211795   2.797   4.193   4.865  0.1133  0.3525 -0.0957
 3944TIP3    H111796   2.706   4.171   4.844  0.4237  0.2378 -1.4048
 3944TIP3    H211797   2.822   4.259   4.800  0.8360  0.7020  0.5187
 3945TIP3   OH211798   5.023   5.191   4.217  0.2956  0.1992 -0.6152
 3945TIP3    H111799   5.100   5.148   4.180 -0.1699 -0.5847 -0.6982
 3945TIP3    H211800   5.050   5.215   4.306 -0.1348 -2.3181  0.2593
 3946TIP3   OH211801   6.201   5.502   0.539  0.5091  0.0694 -0.0206
 3946TIP3    H111802   6.229   5.546   0.459 -0.4881 -2.9981 -2.2395
 3946TIP3    H211803   6.272   5.441   0.559  0.6345  0.6363  1.3490
 3947TIP3   OH211804   3.425   1.852   0.970 -0.3108  0.1729  0.0186
 3947TIP3    H111805   3.411   1.832   1.063 -0.4186  0.1087 -0.0112
 3947TIP3    H211806   3.337   1.850   0.932 -0.1373 -1.3703 -0.4015
 3948TIP3   OH211807   2.314   1.633   3.827  0.4009 -0.2735  0.2210
 3948TIP3    H111808   2.406   1.612   3.844  0.0911 -0.4285  1.9105
 3948TIP3    H211809   2.266   1.586   3.895 -0.7969  1.0280  0.3158
 3949TIP3   OH211810   1.526   1.515   4.895 -0.3907  0.0753 -0.2026
 3949TIP3    H111811   1.515   1.567   4.815 -1.8726 -0.4753 -0.4013
 3949TIP3    H211812   1.481   1.566   4.963  0.8987  0.5617  0.3177
 3950TIP3   OH211813   0.263   0.833   5.311  0.4289 -0.0782  0.4314
 3950TIP3    H111814   0.340   0.884   5.283  0.3194  0.3886  0.9566
 3950TIP3    H211815   0.297   0.774   5.378  0.3530  0.0615  0.5951
 3951TIP3   OH211816   6.791   4.300   2.293 -0.3333  0.4210  0.1167
 3951TIP3    H111817   6.848   4.369   2.328  1.2684 -1.1024  0.6530
 3951TIP3    H211818   6.759   4.335   2.210  0.2881  1.8791  0.4587
 3952TIP3   OH211819   4.970   3.773   4.169  0.2447 -0.1609  0.0492
 3952TIP3    H111820   4.894   3.814   4.211  0.3114  1.1294 -1.0084
 3952TIP3    H211821   5.043   3.831   4.189  0.7763 -0.9139  0.3056
 3953TIP3   OH211822   4.853   6.704   1.861 -0.4490  0.2407 -0.3068
 3953TIP3    H111823   4.945   6.704   1.886 -0.7854  0.2975  0.9673
 3953TIP3    H211824   4.843   6.780   1.803  0.0923  0.8233  0.3611
 3954TIP3   OH211825   0.420   1.096   2.379  0.2163  0.1702  0.0495
 3954TIP3    H111826   0.377   1.037   2.318 -0.2726  1.4516 -0.8888
 3954TIP3    H211827   0.490   1.137   2.328 -0.2890  1.3685  0.2736
 3955TIP3   OH211828   5.041   4.652   5.093 -0.0178  0.0057 -0.2602
 3955TIP3    H111829   5.063   4.681   5.181  1.4073 -0.2260 -0.5138
 3955TIP3    H211830   5.062   4.727   5.037 -0.7665  0.0994 -0.4177
 3956TIP3   OH211831   0.915   4.284   2.398 -0.1613  0.1969  0.4580
 3956TIP3    H111832   0.923   4.243   2.483 -1.7774  1.6173  1.3566
 3956TIP3    H211833   0.994   4.337   2.389  0.2729 -0.3815  0.8031
 3957TIP3   OH211834   6.987   1.077   5.453 -0.2144 -0.1933  0.3264
 3957TIP3    H111835   6.992   1.048   5.362 -1.1003  0.8171 -0.0632
 3957TIP3    H211836   7.019   1.167   5.451 -1.1795  0.1712  0.8377
 3958TIP3   OH211837   1.097   3.662   4.964 -0.4478  0.2311 -0.0665
 3958TIP3    H111838   1.091   3.678   5.058 -0.6396  0.2740 -0.0855
 3958TIP3    H211839   1.164   3.594   4.956  1.3547  1.9035 -0.0859
 3959TIP3   OH211840   2.544   5.933   3.293 -0.6442 -0.0509  0.6392
 3959TIP3    H111841   2.454   5.955   3.318 -0.6764  0.6998 -0.0919
 3959TIP3    H211842   2.537   5.902   3.203 -0.0336  1.2075  0.1305
 3960TIP3   OH211843   5.426   1.190   5.156  0.6858 -0.0389  0.0565
 3960TIP3    H111844   5.417   1.096   5.140 -0.2251  0.0149  0.1450
 3960TIP3    H211845   5.430   1.230   5.069 -1.2798  0.0124 -0.0562
 3961TIP3   OH211846   7.140   3.370   4.218 -0.2002  0.5522  0.7702
 3961TIP3    H111847   7.105   3.284   4.241  0.0138  0.6545  1.4862
 3961TIP3    H211848   7.229   3.352   4.185 -1.1492  0.1980 -1.8478
 3962TIP3   OH211849   3.105   5.365   2.849 -0.2391  0.1136  0.3886
 3962TIP3    H111850   3.199   5.357   2.867 -0.1445  0.2909 -0.0073
 3962TIP3    H211851   3.062   5.345   2.932  0.2173  2.2523  1.2060
 3963TIP3   OH211852   2.262   6.386   1.005  0.0195  0.0490  0.1097
 3963TIP3    H111853   2.265   6.453   1.073  1.7338  0.4792 -0.3364
 3963TIP3    H211854   2.199   6.321   1.038 -0.8770  1.3277  1.0382
 3964TIP3   OH211855   3.756   1.434   0.781  0.3714 -0.0536 -0.4253
 3964TIP3    H111856   3.755   1.408   0.874 -3.0382 -0.2524 -0.3875
 3964TIP3    H211857   3.734   1.353   0.734  2.6911 -0.1072 -1.5517
 3965TIP3   OH211858   6.608   1.699   5.394  0.6444 -0.3880  0.3944
 3965TIP3    H111859   6.569   1.672   5.311 -0.0232 -0.3770  0.6965
 3965TIP3    H211860   6.586   1.791   5.402 -0.0477 -0.5947  0.9891
 3966TIP3   OH211861   0.098   5.095   0.795 -0.0170  0.7113 -0.5330
 3966TIP3    H111862   0.059   5.174   0.757 -1.4234  0.0664 -0.4915
 3966TIP3    H211863   0.023   5.037   0.811  0.8908 -0.2540  0.3276
 3967TIP3   OH211864   0.871   4.810   0.425 -1.0220  0.0118  1.3529
 3967TIP3    H111865   0.933   4.741   0.399 -1.6442 -0.5951  1.4388
 3967TIP3    H211866   0.855   4.859   0.345 -1.1915 -0.4509  1.0974
 3968TIP3   OH211867   2.672   0.413   5.133  0.0047  0.1337 -0.7519
 3968TIP3    H111868   2.583   0.412   5.168  0.7241 -1.0962  1.1650
 3968TIP3    H211869   2.671   0.347   5.063 -0.5045 -0.0814 -0.5465
 3969TIP3   OH211870   3.736   0.343   2.118  0.0340 -0.4991 -0.0074
 3969TIP3    H111871   3.713   0.410   2.182  0.0261  0.6063 -1.1294
 3969TIP3    H211872   3.830   0.331   2.128 -0.2035 -1.5272  1.2973
 3970TIP3   OH211873   2.113   0.139   4.775  0.0834  0.0598 -0.1278
 3970TIP3    H111874   2.186   0.146   4.837  0.1048  2.9566 -0.3474
 3970TIP3    H211875   2.148   0.176   4.694 -0.0909 -3.2110 -1.8693
 3971TIP3   OH211876   3.842   4.869   5.878  0.5380 -0.0245  0.0621
 3971TIP3    H111877   3.926   4.912   5.891  1.1663 -1.1167 -0.3403
 3971TIP3    H211878   3.780   4.942   5.871  1.5887  0.8357 -0.6701
 3972TIP3   OH211879   3.005   1.629   1.840  0.4489  0.4550 -0.1923
 3972TIP3    H111880   2.983   1.722   1.836  1.3987  0.7153  0.2568
 3972TIP3    H211881   2.970   1.599   1.924  1.5214  0.8047  0.4002
 3973TIP3   OH211882   2.823   0.712   3.004 -0.1601 -0.6971 -0.0595
 3973TIP3    H111883   2.834   0.700   3.098 -0.4943 -1.0255 -0.0592
 3973TIP3    H211884   2.832   0.806   2.991 -0.3032 -0.6257  0.3291
 3974TIP3   OH211885   5.824   3.847   4.068  0.2093  0.0392  0.7286
 3974TIP3    H111886   5.841   3.920   4.128 -1.2987 -1.1450  2.6790
 3974TIP3    H211887   5.754   3.879   4.011 -0.5170  0.1160  1.6402
 3975TIP3   OH211888   6.394   2.319   2.311  0.2896  0.0549 -0.1307
 3975TIP3    H111889   6.382   2.411   2.286 -1.8014  0.4297  2.0057
 3975TIP3    H211890   6.486   2.302   2.291  0.1040  1.7371 -3.1346
 3976TIP3   OH211891   2.894   4.744   1.458 -0.3862 -0.8541 -0.1434
 3976TIP3    H111892   2.901   4.799   1.536 -0.5199 -1.0451  0.0066
 3976TIP3    H211893   2.913   4.655   1.490  1.0177 -0.7446 -0.6010
 3977TIP3   OH211894   5.674   4.148   1.029 -0.5389 -0.1138 -0.3662
 3977TIP3    H111895   5.710   4.226   0.988 -1.1581  0.0447 -0.6162
 3977TIP3    H211896   5.705   4.151   1.119 -0.7415  0.5370 -0.3188
 3978TIP3   OH211897   6.808   0.590   2.646  0.4484 -0.7475  0.1608
 3978TIP3    H111898   6.825   0.559   2.735  1.7113  0.3449  0.3454
 3978TIP3    H211899   6.800   0.510   2.594  3.2421 -1.4751  0.6668
 3979TIP3   OH211900   1.473   5.863   3.189  0.1598 -0.1564 -0.4522
 3979TIP3    H111901   1.468   5.805   3.264  2.1985  0.4909  0.2706
 3979TIP3    H211902   1.386   5.902   3.182  0.3219  1.0316  2.6605
 3980TIP3   OH211903   1.382   5.111   2.415  0.4438 -0.4928  0.3994
 3980TIP3    H111904   1.364   5.187   2.359  1.8960 -1.2627 -1.1743
 3980TIP3    H211905   1.411   5.149   2.498  2.0440  0.7192 -0.6607
 3981TIP3   OH211906   2.992   5.126   2.029 -0.1054  0.2708  0.6684
 3981TIP3    H111907   3.002   5.221   2.029  0.5212  0.2069  0.3325
 3981TIP3    H211908   2.921   5.110   2.092 -0.6851  1.0009  0.2128
 3982TIP3   OH211909   5.612   2.760   3.082 -0.3962  0.1272 -0.1359
 3982TIP3    H111910   5.628   2.826   3.149  1.8592 -1.2539  0.8199
 3982TIP3    H211911   5.559   2.693   3.126  0.4169 -0.4056  0.0500
 3983TIP3   OH211912   3.388   5.586   0.681  0.2186 -0.1368 -0.0389
 3983TIP3    H111913   3.419   5.592   0.591 -0.5094  0.2715 -0.2714
 3983TIP3    H211914   3.308   5.534   0.676  2.2932 -3.7627  0.9376
 3984TIP3   OH211915   4.931   3.269   1.359  0.2260 -0.1686  0.2976
 3984TIP3    H111916   4.841   3.300   1.353  0.0413 -0.3185  1.9708
 3984TIP3    H211917   4.967   3.313   1.436  1.8551  0.4988 -0.7836
 3985TIP3   OH211918   0.044   6.477   1.407 -0.5186  0.3750  0.3178
 3985TIP3    H111919   0.095   6.557   1.399  0.0646 -0.1315 -1.6054
 3985TIP3    H211920  -0.005   6.488   1.489  0.1716  2.3046  0.5305
 3986TIP3   OH211921   2.860   3.412   5.286  0.0579  0.1834  0.0350
 3986TIP3    H111922   2.887   3.408   5.194  0.5582  1.4465  0.1140
 3986TIP3    H211923   2.874   3.503   5.312 -0.3888 -0.0778  1.2747
 3987TIP3   OH211924   6.909   1.439   3.169 -0.5470  0.3314  0.1595
 3987TIP3    H111925   6.821   1.414   3.141 -0.6150  0.3410  0.3620
 3987TIP3    H211926   6.958   1.357   3.168 -0.7402  0.2052  0.7099
 3988TIP3   OH211927   5.942   2.739   4.364  0.3231 -0.0480  0.4876
 3988TIP3    H111928   5.899   2.811   4.410 -0.6524  1.1109 -2.0706
 3988TIP3    H211929   5.992   2.781   4.295  0.4069 -1.7963 -0.5788
 3989TIP3   OH211930   4.326   2.866   1.704  0.4069  0.0272 -0.1042
 3989TIP3    H111931   4.282   2.926   1.644 -2.8561 -3.1418 -1.2579
 3989TIP3    H211932   4.394   2.825   1.651  0.5397  0.4572 -0.2718
 3990TIP3   OH211933   6.087   4.101   2.489 -0.0887 -0.1955  0.1539
 3990TIP3    H111934   6.103   4.174   2.550 -0.7244  0.8403 -0.8732
 3990TIP3    H211935   6.005   4.063   2.518 -0.3519  0.2502  0.0139
 3991TIP3   OH211936   0.212   0.895   2.577 -0.3462 -0.4330 -0.2732
 3991TIP3    H111937   0.213   0.806   2.542 -0.7027 -0.8014  0.6052
 3991TIP3    H211938   0.281   0.895   2.644 -1.9696 -0.8384  1.5057
 3992TIP3   OH211939   1.317   1.950   1.207  0.1232 -0.0720 -0.2545
 3992TIP3    H111940   1.232   1.974   1.243  0.6854  2.7610 -0.5538
 3992TIP3    H211941   1.341   1.870   1.254 -1.2583  0.8606  2.2561
 3993TIP3   OH211942   2.286   6.153   1.778 -0.1620  0.1803 -0.2001
 3993TIP3    H111943   2.349   6.200   1.724 -0.8801  0.1048 -1.1314
 3993TIP3    H211944   2.267   6.213   1.850  1.2859  0.0243  0.3484
 3994TIP3   OH211945   4.047   6.103   1.734 -0.3431 -0.1388  0.6234
 3994TIP3    H111946   4.048   6.094   1.639 -1.3350 -2.2881  0.7720
 3994TIP3    H211947   4.138   6.123   1.757  0.0762 -0.4394 -0.6894
 3995TIP3   OH211948   3.218   0.538   0.278 -0.0991  0.2965 -0.2332
 3995TIP3    H111949   3.172   0.509   0.356  0.3281 -0.4204 -0.2453
 3995TIP3    H211950   3.153   0.589   0.230 -1.3344 -1.7908 -0.9026
 3996TIP3   OH211951   0.791   3.606   5.741  0.5614  0.3671 -0.6034
 3996TIP3    H111952   0.885   3.596   5.752  0.4227 -2.4143 -1.2915
 3996TIP3    H211953   0.770   3.688   5.786  2.6780 -1.0185  3.3061
 3997TIP3   OH211954   1.502   0.734   4.406  0.1989  0.1277 -0.0776
 3997TIP3    H111955   1.559   0.673   4.452 -0.9339 -0.4154  0.6753
 3997TIP3    H211956   1.453   0.778   4.476  0.1524  1.0298 -0.6675
 3998TIP3   OH211957   2.008   4.375   4.891  0.3415  0.8395 -0.1369
 3998TIP3    H111958   1.935   4.402   4.835  0.8507 -0.5818 -1.5731
 3998TIP3    H211959   1.975   4.382   4.980 -0.6139  2.8801 -0.5979
 3999TIP3   OH211960   4.425   1.293   2.342 -0.0724  0.1079  0.4282
 3999TIP3    H111961   4.420   1.223   2.407 -0.7605 -1.1341 -0.9132
 3999TIP3    H211962   4.350   1.350   2.362 -0.0900 -0.0894  0.9278
 4000TIP3   OH211963   1.667   3.852   5.578 -0.0685 -0.2305  0.1378
 4000TIP3    H111964   1.712   3.873   5.496  0.8662 -1.6148  0.2474
 4000TIP3    H211965   1.737   3.818   5.635 -0.7862  0.2433  1.3414
 4001TIP3   OH211966   0.950   1.715   4.591  0.4223  0.1476 -0.2896
 4001TIP3    H111967   0.866   1.725   4.637  1.3688  1.0889  1.3037
 4001TIP3    H211968   0.939   1.766   4.511 -1.2081 -1.3977 -1.1371
 4002TIP3   OH211969   3.743   5.288   3.339  0.1297  0.0500 -0.7459
 4002TIP3    H111970   3.652   5.277   3.312 -0.0743 -0.2826  0.0391
 4002TIP3    H211971   3.793   5.282   3.258 -0.7527  3.5893 -1.7205
 4003TIP3   OH211972   1.377   2.470   1.992  0.4145  0.4253  0.1656
 4003TIP3    H111973   1.324   2.503   2.065 -0.3836 -1.0671  0.2844
 4003TIP3    H211974   1.326   2.398   1.956  1.8707 -0.3331 -0.4310
 4004TIP3   OH211975   4.634   1.884   1.776  0.2310  0.6283 -0.3840
 4004TIP3    H111976   4.573   1.864   1.705 -0.3459 -1.8386  0.6947
 4004TIP3    H211977   4.627   1.809   1.835  1.3446  2.1620  1.8366
 4005TIP3   OH211978   2.436   5.693   5.479 -0.2606  0.7037 -0.2635
 4005TIP3    H111979   2.486   5.698   5.398  0.1390 -1.5555 -0.2370
 4005TIP3    H211980   2.349   5.726   5.456  0.1053  0.9535 -1.3651
 4006TIP3   OH211981   1.900   6.220   3.658  0.3609 -0.1860  0.4227
 4006TIP3    H111982   1.993   6.217   3.679  0.9995  0.4789 -1.9295
 4006TIP3    H211983   1.898   6.232   3.563 -2.1221  1.2892  0.5792
 4007TIP3   OH211984   0.400   2.885   1.892  0.5989 -0.0902  0.0556
 4007TIP3    H111985   0.311   2.915   1.875  0.9488  0.8976 -0.1291
 4007TIP3    H211986   0.434   2.863   1.805  0.3445 -1.0497  0.1905
 4008TIP3   OH211987   0.600   0.261   5.505  0.2546 -0.2242 -0.0917
 4008TIP3    H111988   0.617   0.176   5.463 -1.5398  0.4184 -2.3187
 4008TIP3    H211989   0.672   0.271   5.567  1.1817 -2.8352 -0.5879
 4009TIP3   OH211990   6.855   4.516   4.227  0.5564 -0.2271 -0.8069
 4009TIP3    H111991   6.859   4.423   4.203 -1.9653 -0.9062  0.9874
 4009TIP3    H211992   6.823   4.516   4.317 -1.1023  2.4109 -1.2966
 4010TIP3   OH211993   4.789   1.041   3.096 -0.0345  0.4330  0.2061
 4010TIP3    H111994   4.860   0.982   3.119  0.2738  1.1478  1.1482
 4010TIP3    H211995   4.824   1.095   3.025 -0.7188 -1.2600 -1.4837
 4011TIP3   OH211996   4.617   5.838   1.781 -0.1062  0.3691  0.4256
 4011TIP3    H111997   4.621   5.795   1.695  0.0022  1.3792 -0.0868
 4011TIP3    H211998   4.685   5.794   1.832  1.1329  1.0240 -0.6097
 4012TIP3   OH211999   1.179   2.193   1.609 -0.0146 -0.0446 -0.1813
 4012TIP3    H112000   1.127   2.202   1.529 -0.6159  1.7127  0.3657
 4012TIP3    H212001   1.131   2.129   1.661 -1.2195  0.9213 -0.0456
 4013TIP3   OH212002   3.003   0.838   5.887  0.1308 -0.1979 -0.1381
 4013TIP3    H112003   2.908   0.832   5.876  0.3018 -0.3769 -1.7197
 4013TIP3    H212004   3.029   0.910   5.830  1.0605 -0.8089 -0.5127
 4014TIP3   OH212005   4.291   4.505   1.348  0.1543  0.2648 -0.5302
 4014TIP3    H112006   4.296   4.547   1.434  1.2992  0.2580 -0.5744
 4014TIP3    H212007   4.228   4.558   1.299 -0.1267  0.5685  0.1465
 4015TIP3   OH212008   4.459   3.942   3.159  0.0615 -0.3435  0.1770
 4015TIP3    H112009   4.450   3.861   3.210 -0.0143 -0.8617 -0.6401
 4015TIP3    H212010   4.522   3.920   3.091 -0.4712  0.0752 -0.4669
 4016TIP3   OH212011   0.667   0.033   1.012  0.0386  0.1749 -0.4484
 4016TIP3    H112012   0.756   0.023   1.047  0.3992 -1.6143 -1.7492
 4016TIP3    H212013   0.680   0.045   0.918 -1.1014 -0.6630 -0.7321
 4017TIP3   OH212014   6.016   5.567   0.757 -0.1812 -0.5862  0.1042
 4017TIP3    H112015   6.078   5.553   0.685 -0.7300  1.6714 -0.8830
 4017TIP3    H212016   6.071   5.590   0.832  0.2481  0.1596 -0.4326
 4018TIP3   OH212017   4.213   3.806   5.250  0.7120  0.2173  0.3048
 4018TIP3    H112018   4.205   3.783   5.157 -1.7029  3.2701 -0.3846
 4018TIP3    H212019   4.129   3.781   5.288  0.6497  1.4898  1.0365
 4019TIP3   OH212020   0.834   0.264   5.657  0.6843  0.0272 -0.2160
 4019TIP3    H112021   0.895   0.229   5.721  0.5447 -1.6404 -0.9257
 4019TIP3    H212022   0.868   0.233   5.573 -0.4994  0.0582 -0.7202
 4020TIP3   OH212023   0.213   3.858   1.113 -0.2699  0.1869  0.4105
 4020TIP3    H112024   0.251   3.793   1.172 -1.5992 -0.1944  0.8912
 4020TIP3    H212025   0.206   3.813   1.029  2.0706  0.8839 -0.2314
 4021TIP3   OH212026   5.893   5.898   0.084  0.3096  0.1449  0.0537
 4021TIP3    H112027   5.830   5.832   0.054  1.3678 -1.3020  0.8933
 4021TIP3    H212028   5.857   5.930   0.167 -0.8103  1.5725 -0.9107
 4022TIP3   OH212029   5.292   0.989   0.690 -0.1079  0.1879 -0.0533
 4022TIP3    H112030   5.357   0.934   0.645 -1.2849 -1.1935 -0.1550
 4022TIP3    H212031   5.311   0.976   0.783 -0.3546 -0.4114 -0.0760
 4023TIP3   OH212032   5.688   6.084   1.710 -0.2746  0.4778 -0.0035
 4023TIP3    H112033   5.671   6.093   1.804 -1.3835  1.2934 -0.2647
 4023TIP3    H212034   5.675   5.991   1.693 -3.5078  0.8048  0.0654
 4024TIP3   OH212035   4.454   0.854   5.701  0.6053 -0.2686  0.0243
 4024TIP3    H112036   4.435   0.929   5.758 -0.3295 -0.1931 -0.3666
 4024TIP3    H212037   4.464   0.780   5.761 -2.5285 -0.6417  0.2467
 4025TIP3   OH212038   0.299   2.234   0.276  0.3335  0.3819  0.1827
 4025TIP3    H112039   0.362   2.230   0.205 -1.2032  1.1793 -1.2934
 4025TIP3    H212040   0.246   2.155   0.267 -1.2101  1.4735 -0.9518
 4026TIP3   OH212041   1.102   0.956   0.732  0.0386 -0.1728  0.3184
 4026TIP3    H112042   1.181   0.941   0.786  1.2222 -0.3575 -1.3817
 4026TIP3    H212043   1.137   0.978   0.645 -1.8072  0.0767 -0.3887
 4027TIP3   OH212044   1.457   5.374   2.502  0.2735  0.1401 -0.5709
 4027TIP3    H112045   1.444   5.453   2.449  3.1640  1.0840 -0.0205
 4027TIP3    H212046   1.522   5.323   2.455  0.8724 -0.3245  0.7051
 4028TIP3   OH212047   3.710   3.330   2.712  0.0601 -0.0525 -0.1086
 4028TIP3    H112048   3.660   3.403   2.747 -0.6298 -0.8678  0.6579
 4028TIP3    H212049   3.775   3.370   2.654 -0.9425  1.0832 -0.4746
 4029TIP3   OH212050   0.376   1.349   5.536 -0.2491  0.3199  0.3635
 4029TIP3    H112051   0.314   1.405   5.583 -1.6999 -0.5706 -0.4261
 4029TIP3    H212052   0.412   1.405   5.468 -1.8203  0.3045 -0.5324
 4030TIP3   OH212053   3.182   0.530   3.463 -0.3739 -0.0600  0.2659
 4030TIP3    H112054   3.255   0.569   3.511 -1.9445  1.1456  1.7679
 4030TIP3    H212055   3.224   0.474   3.397  1.8777 -1.1733  2.4907
 4031TIP3   OH212056   5.682   6.250   4.252  0.1543  0.0790 -0.0588
 4031TIP3    H112057   5.664   6.270   4.161  0.8890 -0.3981 -0.3117
 4031TIP3    H212058   5.603   6.280   4.299 -0.6408 -0.5747 -0.9546
 4032TIP3   OH212059   5.168   1.223   4.338  0.0878  0.0903  0.3092
 4032TIP3    H112060   5.132   1.265   4.417 -1.2507  0.8669 -0.6719
 4032TIP3    H212061   5.214   1.147   4.371 -0.5048  0.3585  1.8583
 4033TIP3   OH212062   5.860   0.788   1.738 -0.5747 -0.5835 -0.0179
 4033TIP3    H112063   5.953   0.764   1.738 -0.4843 -0.3568  1.6094
 4033TIP3    H212064   5.817   0.718   1.688  0.3156 -1.4135  0.3364
 4034TIP3   OH212065   2.949   2.407   0.242 -0.8257  0.2072  0.5138
 4034TIP3    H112066   2.998   2.489   0.243 -0.7320  0.1901 -0.6689
 4034TIP3    H212067   3.014   2.339   0.256 -1.1106  0.3753  3.0714
 4035TIP3   OH212068   4.266   1.813   2.785  0.2472  0.4835 -0.2495
 4035TIP3    H112069   4.213   1.835   2.861  0.4253  0.3239 -0.0781
 4035TIP3    H212070   4.344   1.770   2.821  0.9716  1.6132 -0.4190
 4036TIP3   OH212071   4.412   2.750   1.938  0.4025 -0.1164  0.3848
 4036TIP3    H112072   4.392   2.774   1.847 -0.9762  0.4365  0.8128
 4036TIP3    H212073   4.474   2.677   1.930  0.1959 -0.1757 -0.9971
 4037TIP3   OH212074   2.208   5.238   3.688 -0.0898 -0.0812  0.7331
 4037TIP3    H112075   2.188   5.228   3.595  0.1358  1.7695  0.4485
 4037TIP3    H212076   2.131   5.281   3.725  0.9654  1.8832  0.7695
 4038TIP3   OH212077   2.643   1.315   2.305 -0.5444  0.0714 -0.5898
 4038TIP3    H112078   2.646   1.282   2.395  2.8116  0.3098 -0.4849
 4038TIP3    H212079   2.672   1.406   2.313  0.0939 -0.0005 -1.9343
 4039TIP3   OH212080   2.417   0.406   3.255  0.1431 -0.2411  0.8525
 4039TIP3    H112081   2.415   0.366   3.168  0.4575 -1.7760  1.5275
 4039TIP3    H212082   2.349   0.473   3.251  1.7126  1.3954 -1.3328
 4040TIP3   OH212083   7.220   3.292   5.067  0.0845 -0.5991  0.1385
 4040TIP3    H112084   7.184   3.326   5.149 -0.0075 -0.4018  0.0184
 4040TIP3    H212085   7.159   3.322   5.000  1.0680  0.7620 -0.2151
 4041TIP3   OH212086   6.762   4.022   4.880  0.7015  0.1198 -1.1313
 4041TIP3    H112087   6.673   4.052   4.863  0.6104 -0.2618 -1.3277
 4041TIP3    H212088   6.813   4.059   4.808  0.7043  0.3244 -1.0282
 4042TIP3   OH212089   3.609   1.988   5.410 -0.0705 -0.2001  0.4089
 4042TIP3    H112090   3.620   2.017   5.500  1.5778  1.0548 -0.1439
 4042TIP3    H212091   3.648   1.901   5.407 -0.0858 -0.2238  0.9079
 4043TIP3   OH212092   5.705   0.207   0.720  0.6068 -0.1970  0.3206
 4043TIP3    H112093   5.782   0.252   0.684  0.1309 -0.3883 -0.9992
 4043TIP3    H212094   5.633   0.235   0.663 -0.3077 -0.0400  1.5232
 4044TIP3   OH212095   0.518   2.770   0.089  0.2176  0.5617 -0.2993
 4044TIP3    H112096   0.589   2.776   0.152 -1.4450 -0.1596  1.7498
 4044TIP3    H212097   0.516   2.677   0.064 -1.5578 -0.0282  1.6944
 4045TIP3   OH212098   6.195   2.158   4.145 -0.4003 -0.2448  0.0016
 4045TIP3    H112099   6.120   2.179   4.201  1.0699 -1.0803  2.4564
 4045TIP3    H212100   6.208   2.237   4.093 -1.0861  1.1254  1.7763
 4046TIP3   OH212101   3.747   2.675   1.855  0.5310  0.1352  0.1969
 4046TIP3    H112102   3.704   2.759   1.869  2.7682  1.9222 -2.4986
 4046TIP3    H212103   3.705   2.616   1.917 -1.5890  3.0548  1.8011
 4047TIP3   OH212104   0.550   1.525   5.406 -0.3275  0.0731  0.0093
 4047TIP3    H112105   0.580   1.471   5.333 -0.3239 -0.2425  0.2440
 4047TIP3    H212106   0.608   1.503   5.478 -1.3212 -0.8201  0.5756
 4048TIP3   OH212107   5.126   6.359   4.811  0.5810 -0.0468 -0.1259
 4048TIP3    H112108   5.124   6.266   4.790 -1.2630 -0.6969  2.4521
 4048TIP3    H212109   5.111   6.403   4.728 -2.4428 -2.2175 -0.9079
 4049TIP3   OH212110   0.097   6.789   3.896  0.3225  0.5972 -0.2488
 4049TIP3    H112111   0.178   6.739   3.890  1.4950  2.4210 -0.4636
 4049TIP3    H212112   0.096   6.843   3.816 -1.4576  0.1329 -0.5881
 4050TIP3   OH212113   1.103   4.456   5.025  0.4173  0.2855 -0.4066
 4050TIP3    H112114   1.031   4.403   4.991  0.7186  0.0964 -0.7456
 4050TIP3    H212115   1.182   4.416   4.990  0.6543  0.9340 -0.6353
 4051TIP3   OH212116   5.122   5.954   5.053  0.2232 -0.6599  0.2711
 4051TIP3    H112117   5.035   5.956   5.093  0.1099 -2.4060  0.2183
 4051TIP3    H212118   5.154   6.044   5.060 -2.3737  0.5240 -1.5454
 4052TIP3   OH212119   6.496   4.455   0.123  0.5749 -0.0868  0.2743
 4052TIP3    H112120   6.425   4.463   0.059  1.5916 -0.8261 -0.9953
 4052TIP3    H212121   6.472   4.378   0.174 -0.9734  1.3224  1.8032
 4053TIP3   OH212122   3.919   6.043   5.480 -0.1928 -0.4969  0.0976
 4053TIP3    H112123   3.862   5.976   5.443  0.0709 -1.6012  1.6366
 4053TIP3    H212124   3.917   6.114   5.415 -1.9846 -1.1839 -0.6597
 4054TIP3   OH212125   1.198   0.232   0.483 -0.0764  0.1264  0.0431
 4054TIP3    H112126   1.259   0.182   0.538  1.6873 -0.4061 -2.2090
 4054TIP3    H212127   1.159   0.167   0.425  0.3818  0.9992 -1.2957
 4055TIP3   OH212128   3.523   6.562   5.415 -0.1273 -0.0280 -0.1115
 4055TIP3    H112129   3.539   6.601   5.501  1.7411 -2.2184  0.6238
 4055TIP3    H212130   3.446   6.608   5.382  0.8656  2.9554  1.4091
 4056TIP3   OH212131   3.976   5.035   3.363  0.6572  0.4706  0.3432
 4056TIP3    H112132   3.927   4.984   3.298 -0.8820  1.2221  0.8744
 4056TIP3    H212133   4.015   5.107   3.313  0.7636  0.1785  0.0041
 4057TIP3   OH212134   3.799   5.459   3.783 -0.0300  0.3798  0.2038
 4057TIP3    H112135   3.783   5.463   3.689 -0.3514  2.1732  0.3046
 4057TIP3    H212136   3.750   5.382   3.812 -1.7800  1.0662 -0.7799
 4058TIP3   OH212137   2.071   3.367   4.307  0.1898  0.3159 -0.3001
 4058TIP3    H112138   2.103   3.285   4.345  1.2513  0.7546 -0.1855
 4058TIP3    H212139   1.981   3.375   4.338  0.1302 -0.7024 -0.1622
 4059TIP3   OH212140   1.531   0.211   5.778  0.1193  0.4298 -0.1360
 4059TIP3    H112141   1.552   0.298   5.810  0.8687  0.7459 -1.3842
 4059TIP3    H212142   1.470   0.226   5.706 -2.2303 -0.3122  1.5831
 4060TIP3   OH212143   3.376   1.761   4.383  0.0081 -0.2214 -0.0491
 4060TIP3    H112144   3.435   1.800   4.318 -0.2193 -3.2408 -2.3239
 4060TIP3    H212145   3.347   1.834   4.437  4.8131  1.6621  0.4868
 4061TIP3   OH212146   6.427   2.318   4.606 -0.7704 -0.1388 -1.2955
 4061TIP3    H112147   6.480   2.391   4.638 -0.3570 -0.9194 -0.1166
 4061TIP3    H212148   6.390   2.349   4.524 -0.4576  1.3256 -0.9122
 4062TIP3   OH212149   2.537   0.930   4.849  0.2850 -0.1020 -0.2362
 4062TIP3    H112150   2.507   0.839   4.851 -0.9814  0.2992 -0.0008
 4062TIP3    H212151   2.525   0.957   4.758 -0.9144  0.3010  0.0147
 4063TIP3   OH212152   1.862   4.302   2.989  0.2095  0.1592  0.3043
 4063TIP3    H112153   1.778   4.276   3.028  0.5641  0.3895  1.2541
 4063TIP3    H212154   1.875   4.392   3.019  0.4060  0.4168 -0.5281
 4064TIP3   OH212155   3.432   3.010   0.983 -0.1697  0.3052  0.5396
 4064TIP3    H112156   3.493   3.021   1.055 -0.2943 -2.2217  1.1274
 4064TIP3    H212157   3.348   2.991   1.025 -0.3044 -0.9159 -0.2090
 4065TIP3   OH212158   2.948   6.142   0.544 -0.2385  0.3937 -0.6427
 4065TIP3    H112159   3.037   6.124   0.515 -0.6204  1.1173 -2.3991
 4065TIP3    H212160   2.909   6.056   0.558  0.7444  0.0753  0.2129
 4066TIP3   OH212161   0.785   1.647   4.046  0.0507 -0.0612 -0.3478
 4066TIP3    H112162   0.856   1.707   4.071  0.5526  0.2990 -2.4348
 4066TIP3    H212163   0.790   1.643   3.950 -0.2550 -3.1271 -0.3103
 4067TIP3   OH212164   2.996   5.557   1.205 -0.1441 -0.4303  0.0859
 4067TIP3    H112165   3.019   5.481   1.151  0.1524  0.3521 -0.9324
 4067TIP3    H212166   3.063   5.558   1.273  0.5874 -0.3845 -0.6169
 4068TIP3   OH212167   5.275   3.416   1.711  0.6829  0.2958 -0.5410
 4068TIP3    H112168   5.264   3.468   1.791  1.0606  1.9334 -1.5132
 4068TIP3    H212169   5.293   3.327   1.743 -0.0508  0.7207  1.1747
 4069TIP3   OH212170   4.228   6.120   4.845  0.0674 -0.2269 -0.0108
 4069TIP3    H112171   4.250   6.213   4.853 -0.2192 -0.2779  1.9532
 4069TIP3    H212172   4.141   6.119   4.807 -0.5669  0.4034  1.3538
 4070TIP3   OH212173   5.951   4.770   4.036 -0.3898  0.4281 -0.3282
 4070TIP3    H112174   5.984   4.860   4.038  1.0419 -0.0544  2.1039
 4070TIP3    H212175   5.860   4.778   4.007 -0.2903  2.6441 -0.1925
 4071TIP3   OH212176   7.006   3.453   2.211  0.2518  0.0810 -0.3781
 4071TIP3    H112177   6.937   3.394   2.242 -0.2190  0.7070 -0.2344
 4071TIP3    H212178   7.063   3.396   2.159  1.7088 -1.2676  2.4769
 4072TIP3   OH212179   2.993   6.095   5.432 -0.0414  0.2290 -0.0667
 4072TIP3    H112180   3.035   6.016   5.466 -1.6718 -2.4412 -3.5792
 4072TIP3    H212181   2.925   6.117   5.496 -1.2537 -2.8753 -0.1445
 4073TIP3   OH212182   0.704   6.655   0.129 -0.3901 -0.1315  0.1071
 4073TIP3    H112183   0.684   6.703   0.048  0.5426 -0.1766 -0.1537
 4073TIP3    H212184   0.733   6.723   0.190  0.3776 -0.2823 -0.0818
 4074TIP3   OH212185   6.163   2.215   5.670  0.3957 -0.1134  1.6477
 4074TIP3    H112186   6.224   2.273   5.623 -0.7738 -0.3517 -0.2576
 4074TIP3    H212187   6.163   2.248   5.760 -0.2667  2.9317  0.6376
 4075TIP3   OH212188   1.884   4.958   3.343 -0.4772 -0.2815 -0.1049
 4075TIP3    H112189   1.802   4.915   3.365 -0.9012 -0.5067 -1.9939
 4075TIP3    H212190   1.871   4.992   3.255  0.9130  1.0747  0.1640
 4076TIP3   OH212191   1.518   2.657   3.826  0.7400  0.4610 -0.1078
 4076TIP3    H112192   1.473   2.735   3.794  0.8250  0.9508  0.9213
 4076TIP3    H212193   1.511   2.594   3.754 -0.8896  0.7908 -0.2898
 4077TIP3   OH212194   3.193   6.432   0.705 -0.3161 -0.3018 -0.3783
 4077TIP3    H112195   3.162   6.449   0.616 -0.4566  0.4942 -0.1820
 4077TIP3    H212196   3.123   6.464   0.761 -0.4194 -1.1950  0.0252
 4078TIP3   OH212197   1.109   2.653   1.315 -0.2715 -0.1890 -0.0415
 4078TIP3    H112198   1.024   2.627   1.279  0.3666  0.0248 -1.7926
 4078TIP3    H212199   1.124   2.741   1.281  0.8704 -0.4224 -0.1839
 4079TIP3   OH212200   6.587   3.480   0.309  0.1969  0.0818 -0.0600
 4079TIP3    H112201   6.534   3.452   0.383  0.1824 -0.5455 -0.3019
 4079TIP3    H212202   6.640   3.552   0.344  0.5332 -0.5073  0.6977
 4080TIP3   OH212203   6.155   4.363   4.557 -0.5619  0.6133 -0.3166
 4080TIP3    H112204   6.107   4.382   4.637  2.7852 -0.7635  2.2315
 4080TIP3    H212205   6.231   4.421   4.560  1.7738 -2.2179 -0.2447
 4081TIP3   OH212206   0.729   4.083   5.372  0.3398  0.4662  1.1156
 4081TIP3    H112207   0.747   4.162   5.320 -0.2452  0.0406  0.2390
 4081TIP3    H212208   0.640   4.058   5.347  0.3934 -0.2779  1.6405
 4082TIP3   OH212209   3.190   6.586   4.145  0.0850 -0.2227 -0.2184
 4082TIP3    H112210   3.221   6.672   4.115  0.1819 -0.4955 -0.9102
 4082TIP3    H212211   3.194   6.530   4.067  2.6767 -1.6291  0.8015
 4083TIP3   OH212212   0.833   0.409   4.551  0.1562 -0.2033 -0.3568
 4083TIP3    H112213   0.889   0.430   4.476 -0.8962  2.9283 -0.4486
 4083TIP3    H212214   0.886   0.431   4.627 -0.0106  0.1928 -0.3505
 4084TIP3   OH212215   6.603   4.959   0.771  0.6386  0.0598 -0.2234
 4084TIP3    H112216   6.576   5.019   0.840 -0.1500  0.7091 -1.0805
 4084TIP3    H212217   6.613   5.014   0.694  0.1421 -0.8573 -0.9627
 4085TIP3   OH212218   4.185   5.441   1.440 -0.4795  0.1180 -0.3644
 4085TIP3    H112219   4.232   5.485   1.511 -1.0570 -0.7750  0.6174
 4085TIP3    H212220   4.100   5.485   1.437 -0.3269  0.3869 -0.7441
 4086TIP3   OH212221   1.269   2.798   4.091  0.7637 -0.5176 -0.4561
 4086TIP3    H112222   1.188   2.847   4.098  1.1363  0.1034 -0.3827
 4086TIP3    H212223   1.255   2.738   4.018 -0.6732 -2.2010  1.1151
 4087TIP3   OH212224   0.103   4.383   3.677 -0.0202 -0.1484 -0.1674
 4087TIP3    H112225   0.087   4.297   3.638 -0.3621 -0.4701  0.6663
 4087TIP3    H212226   0.070   4.376   3.766  1.5611  0.2890  0.4987
 4088TIP3   OH212227   0.561   1.278   1.359 -0.1540  0.2155  1.0858
 4088TIP3    H112228   0.632   1.217   1.339  0.2761  1.2370 -0.7410
 4088TIP3    H212229   0.497   1.226   1.407  1.2598 -1.0508  1.6543
 4089TIP3   OH212230   6.071   3.657   3.213 -0.1522 -0.1748 -0.1138
 4089TIP3    H112231   6.028   3.576   3.239  1.2779 -1.1239 -0.5515
 4089TIP3    H212232   6.162   3.645   3.241  0.5576  0.3897 -2.0292
 4090TIP3   OH212233   1.381   4.261   1.945 -0.4154  0.3409 -0.3650
 4090TIP3    H112234   1.304   4.240   1.999 -0.3975  2.8002  0.7565
 4090TIP3    H212235   1.349   4.257   1.855 -1.6829  0.5851  0.0488
 4091TIP3   OH212236   2.341   1.420   4.654 -0.0246 -0.3699  0.1495
 4091TIP3    H112237   2.314   1.438   4.564  1.5591 -0.6705 -0.4253
 4091TIP3    H212238   2.413   1.357   4.645  1.5508  1.1270  1.4550
 4092TIP3   OH212239   1.693   2.231   4.535 -0.5850 -0.1706 -0.2561
 4092TIP3    H112240   1.692   2.145   4.492 -2.1731 -0.6635  0.6890
 4092TIP3    H212241   1.774   2.231   4.586 -0.0656 -0.6903 -1.0586
 4093TIP3   OH212242   2.395   4.037   5.587 -0.2905 -0.0971 -0.2505
 4093TIP3    H112243   2.341   3.980   5.642 -0.3783  0.0429 -0.1912
 4093TIP3    H212244   2.485   4.013   5.609 -0.2823 -1.8086 -1.8511
 4094TIP3   OH212245   3.928   5.817   5.292  0.2358  0.2388 -0.5916
 4094TIP3    H112246   3.880   5.737   5.313 -0.7260  0.9508 -0.0074
 4094TIP3    H212247   4.010   5.808   5.340 -0.2183 -0.0257  0.1560
 4095TIP3   OH212248   0.332   1.397   3.593  0.0258  0.9934 -0.1545
 4095TIP3    H112249   0.345   1.484   3.555 -0.7442  1.9523  1.6845
 4095TIP3    H212250   0.405   1.386   3.654 -0.2482  0.6275  0.1101
 4096TIP3   OH212251   3.119   2.500   0.700 -0.1290 -0.3868 -0.2014
 4096TIP3    H112252   3.115   2.443   0.623 -1.3176  0.0994 -0.5267
 4096TIP3    H212253   3.041   2.478   0.750  0.2103 -0.1271  0.4593
 4097TIP3   OH212254   3.486   2.300   2.537 -0.4505  0.1119 -0.0673
 4097TIP3    H112255   3.564   2.245   2.526 -1.7845 -1.7280 -0.8329
 4097TIP3    H212256   3.521   2.389   2.547  1.9121 -1.0004  3.1291
 4098TIP3   OH212257   4.761   5.754   4.547 -0.6790  0.3973  0.0230
 4098TIP3    H112258   4.812   5.674   4.555 -1.6430 -0.4281 -1.4848
 4098TIP3    H212259   4.796   5.812   4.614  0.1542 -1.2237  1.0535
 4099TIP3   OH212260   1.989   2.142   3.066 -0.2355  0.2156  0.1960
 4099TIP3    H112261   1.979   2.143   2.971  1.1066  1.2103  0.0370
 4099TIP3    H212262   1.963   2.229   3.095  0.3528  0.2603  0.6174
 4100TIP3   OH212263   5.536   1.911   2.465  0.3559  0.5183 -0.0644
 4100TIP3    H112264   5.552   1.993   2.511  0.9524 -0.1649  0.9988
 4100TIP3    H212265   5.444   1.914   2.440  0.1900  1.2041  0.5946
 4101TIP3   OH212266   2.973   2.938   2.255 -0.1067 -0.1006 -0.2754
 4101TIP3    H112267   2.915   2.885   2.199  0.4789  0.0623 -1.0596
 4101TIP3    H212268   3.043   2.878   2.280 -0.0155  0.0081 -0.2698
 4102TIP3   OH212269   3.640   2.298   2.297 -0.4366  0.5668 -0.1024
 4102TIP3    H112270   3.672   2.372   2.348  0.6140 -0.8638  1.4393
 4102TIP3    H212271   3.717   2.242   2.286 -1.5436 -1.0861  0.2388
 4103TIP3   OH212272   4.833   2.305   5.155  0.3022  0.2704  0.0420
 4103TIP3    H112273   4.912   2.268   5.193  0.9224 -0.4401 -1.8455
 4103TIP3    H212274   4.776   2.230   5.138 -1.2946  0.8500  2.3389
 4104TIP3   OH212275   1.412   5.748   3.897  0.3045 -0.0683 -0.4362
 4104TIP3    H112276   1.402   5.760   3.991 -4.3800  0.7670 -0.8280
 4104TIP3    H212277   1.354   5.675   3.876  0.5669  0.3298 -2.7872
 4105TIP3   OH212278   6.040   5.460   0.289 -0.4239 -0.0338  0.1699
 4105TIP3    H112279   6.057   5.504   0.206  0.3246  0.3319  0.5149
 4105TIP3    H212280   5.993   5.525   0.341 -1.8642 -0.6178 -0.3264
 4106TIP3   OH212281   6.903   5.491   4.120 -0.1677 -0.2550 -0.1011
 4106TIP3    H112282   6.843   5.439   4.066  1.1499 -1.7191 -0.2075
 4106TIP3    H212283   6.867   5.487   4.208 -1.4920  0.8754 -0.5486
 4107TIP3   OH212284   1.822   1.515   4.662  0.4645  0.2111 -0.3226
 4107TIP3    H112285   1.836   1.426   4.629 -0.4810 -0.7938  1.7360
 4107TIP3    H212286   1.901   1.534   4.713  0.8906  0.7754 -1.1856
 4108TIP3   OH212287   3.817   1.917   2.408  0.0712 -0.5643 -0.1412
 4108TIP3    H112288   3.835   1.823   2.416  1.8382 -0.1904  0.8407
 4108TIP3    H212289   3.785   1.927   2.318 -1.4942 -2.2686  0.1705
 4109TIP3   OH212290   5.293   5.616   2.575  0.0024 -0.3170  0.2773
 4109TIP3    H112291   5.213   5.646   2.531 -0.3116 -0.7828  0.5216
 4109TIP3    H212292   5.305   5.677   2.648  0.6472  0.5908 -0.5675
 4110TIP3   OH212293   1.644   6.722   3.458  0.8385 -0.0233 -0.0536
 4110TIP3    H112294   1.661   6.734   3.365  0.3349 -1.6882 -0.3893
 4110TIP3    H212295   1.685   6.638   3.479 -2.4135 -1.7026  0.2472
 4111TIP3   OH212296   1.345   4.423   3.347  0.0720 -0.2689 -0.8674
 4111TIP3    H112297   1.357   4.405   3.254  0.3218 -1.2492 -0.6615
 4111TIP3    H212298   1.284   4.496   3.350 -1.3784 -1.3847 -1.7776
 4112TIP3   OH212299   2.845   4.521   1.202 -0.2875  0.6717 -0.2130
 4112TIP3    H112300   2.787   4.461   1.247 -1.8397  1.1009 -1.5607
 4112TIP3    H212301   2.916   4.537   1.265 -2.2791  1.1812  2.0579
 4113TIP3   OH212302   7.028   3.588   4.675  0.0288  0.2491 -0.2187
 4113TIP3    H112303   7.081   3.584   4.596  0.8738  2.5527  0.1626
 4113TIP3    H212304   6.978   3.669   4.667 -2.3440 -1.0781  0.1652
 4114TIP3   OH212305   0.765   1.934   2.663 -0.3631 -0.1007  0.1796
 4114TIP3    H112306   0.775   1.849   2.705 -1.4057 -0.3851 -0.1109
 4114TIP3    H212307   0.687   1.972   2.704 -1.6300 -0.5366 -1.6780
 4115TIP3   OH212308   0.738   0.062   0.743 -0.4195  0.0470 -0.0970
 4115TIP3    H112309   0.800   0.127   0.709  0.2308 -0.9545 -0.8739
 4115TIP3    H212310   0.765  -0.020   0.702 -0.6322 -0.9027  1.5804
 4116TIP3   OH212311   4.256   3.417   2.649 -0.6617 -0.2235 -0.0726
 4116TIP3    H112312   4.189   3.452   2.591 -0.2596  0.2588 -0.2470
 4116TIP3    H212313   4.290   3.340   2.603  0.4486  0.7953 -1.0302
 4117TIP3   OH212314   6.516   5.311   3.317  0.0526 -0.0553  0.0343
 4117TIP3    H112315   6.544   5.347   3.402 -1.3197  1.2750 -0.0294
 4117TIP3    H212316   6.431   5.271   3.335 -0.5400  0.7777 -0.8082
 4118TIP3   OH212317   2.767   6.564   1.322  0.4825  0.1836  0.0076
 4118TIP3    H112318   2.764   6.520   1.407  0.8025 -0.2028 -0.1765
 4118TIP3    H212319   2.804   6.650   1.341  0.5703  0.0916  0.2538
 4119TIP3   OH212320   0.143   4.254   1.933  0.4469  0.2863  0.2446
 4119TIP3    H112321   0.050   4.242   1.951  0.5599  1.0972  1.4469
 4119TIP3    H212322   0.147   4.319   1.863  0.0683 -1.4081 -1.4388
 4120TIP3   OH212323   3.966   0.239   1.283 -0.0679 -0.1160  0.0089
 4120TIP3    H112324   4.029   0.232   1.212 -0.9190  2.2087 -1.0888
 4120TIP3    H212325   3.972   0.331   1.311 -1.9856 -0.1639  0.7586
 4121TIP3   OH212326   0.534   2.772   0.760  0.3401  0.1347 -0.4463
 4121TIP3    H112327   0.445   2.785   0.725  0.5114  1.7222 -0.3627
 4121TIP3    H212328   0.541   2.834   0.832  1.5960  0.2000 -0.6001
 4122TIP3   OH212329   3.355   4.480   1.558  0.1680 -0.2560  0.2036
 4122TIP3    H112330   3.385   4.399   1.517 -1.0915 -0.7362  0.1709
 4122TIP3    H212331   3.434   4.534   1.565  1.2832 -1.9218  1.3005
 4123TIP3   OH212332   6.081   3.322   1.391 -0.7769  0.0372 -0.2772
 4123TIP3    H112333   6.000   3.328   1.442 -1.1080 -2.0312 -0.4636
 4123TIP3    H212334   6.054   3.282   1.308  0.1802  0.9144 -1.0455
 4124TIP3   OH212335   5.202   1.553   5.128  0.0252 -0.7392 -0.3175
 4124TIP3    H112336   5.267   1.537   5.060 -0.8239 -0.2511 -1.2791
 4124TIP3    H212337   5.122   1.513   5.094 -0.0171 -2.0430  1.2015
 4125TIP3   OH212338   6.391   2.115   1.600 -0.5053  0.3844  0.0329
 4125TIP3    H112339   6.425   2.033   1.635  0.2054  0.4426 -0.4804
 4125TIP3    H212340   6.330   2.088   1.531  0.3069  0.2821 -0.6571
 4126TIP3   OH212341   2.706   2.358   3.286 -0.2730 -0.1003  0.0556
 4126TIP3    H112342   2.676   2.445   3.312  1.5886  1.3422 -2.2031
 4126TIP3    H212343   2.763   2.330   3.358 -1.5044  0.1798  1.1641
 4127TIP3   OH212344   4.437   3.795   0.027  0.3219  0.7265  0.5343
 4127TIP3    H112345   4.495   3.758  -0.039  0.7140  2.5668 -0.1867
 4127TIP3    H212346   4.483   3.781   0.110  0.3743 -0.4966  0.3288
 4128TIP3   OH212347   0.352   4.769   3.132  0.2969 -0.0402  0.1437
 4128TIP3    H112348   0.423   4.705   3.131 -0.5714 -1.0235  0.0161
 4128TIP3    H212349   0.293   4.741   3.062  0.2450  1.3123 -0.3919
 4129TIP3   OH212350   3.422   5.285   2.427  0.1023  0.2583 -0.4389
 4129TIP3    H112351   3.412   5.201   2.381  1.4057 -0.4658  0.5347
 4129TIP3    H212352   3.375   5.273   2.509  0.0432  0.5915 -0.4243
 4130TIP3   OH212353   1.723   6.067   0.986 -0.1192 -0.0175  0.1528
 4130TIP3    H112354   1.743   6.080   0.893  0.3145 -1.7680 -0.0325
 4130TIP3    H212355   1.806   6.041   1.025 -0.4128  0.1847  0.9282
 4131TIP3   OH212356   0.997   5.101   5.703  0.6015  0.9980 -0.1514
 4131TIP3    H112357   1.019   5.149   5.623 -1.4293 -0.2357 -1.5443
 4131TIP3    H212358   1.081   5.074   5.739  1.6307  2.8979 -1.0100
 4132TIP3   OH212359   6.757   2.083   3.948 -0.5898  0.2754 -0.5908
 4132TIP3    H112360   6.680   2.134   3.921 -0.7667  0.3975  0.1430
 4132TIP3    H212361   6.730   2.038   4.028 -0.3455 -0.7792 -1.0860
 4133TIP3   OH212362   0.005   0.082   3.067  0.0110 -0.2794 -0.0071
 4133TIP3    H112363   0.086   0.131   3.081 -0.1622  0.1410 -0.4709
 4133TIP3    H212364   0.027   0.018   3.000 -0.5399  1.0897 -1.5467
 4134TIP3   OH212365   5.789   2.978   1.420  0.0790 -0.2352 -0.4938
 4134TIP3    H112366   5.787   3.054   1.478  2.6431 -2.1022  2.4274
 4134TIP3    H212367   5.698   2.951   1.412 -0.5469  1.0541  1.4340
 4135TIP3   OH212368   2.430   4.684   4.875  0.6063 -0.2934  0.0550
 4135TIP3    H112369   2.431   4.733   4.792  0.9972 -2.1227 -1.0747
 4135TIP3    H212370   2.458   4.748   4.941  0.8311  1.0693 -1.2950
 4136TIP3   OH212371   0.294   6.070   1.471 -0.1883  0.6248  0.3142
 4136TIP3    H112372   0.280   5.981   1.439 -0.0047  0.7356 -0.0803
 4136TIP3    H212373   0.266   6.127   1.399  1.1306  0.8626 -0.0388
 4137TIP3   OH212374   5.442   4.521   4.390  0.0403 -0.2679  0.4849
 4137TIP3    H112375   5.381   4.590   4.418  2.2708  1.6055  1.0190
 4137TIP3    H212376   5.503   4.565   4.331  1.3548 -1.8705  0.5679
 4138TIP3   OH212377   3.266   1.574   4.943  0.2862  0.0315  0.2588
 4138TIP3    H112378   3.219   1.598   4.863  0.8559  0.7997  0.1454
 4138TIP3    H212379   3.355   1.552   4.914  0.7594  1.1792  0.7589
 4139TIP3   OH212380   2.327   1.944   0.420  0.6231  0.1449  0.0775
 4139TIP3    H112381   2.253   2.003   0.432 -1.5973 -2.4823  0.4600
 4139TIP3    H212382   2.370   1.975   0.340 -2.1979  0.6152 -1.4047
 4140TIP3   OH212383   1.485   0.523   5.055 -0.6717 -0.4723  0.0024
 4140TIP3    H112384   1.533   0.540   5.136  0.3177  1.0527 -0.8825
 4140TIP3    H212385   1.394   0.514   5.084 -0.3826  0.3519  1.2656
 4141TIP3   OH212386   0.903   4.442   3.968  0.4350 -0.2523 -0.1611
 4141TIP3    H112387   0.877   4.391   4.045  2.1778 -1.0814 -0.0807
 4141TIP3    H212388   0.980   4.491   3.996  0.7469 -0.1258 -1.2021
 4142TIP3   OH212389   4.306   4.378   5.017 -0.0331  0.2410 -0.4529
 4142TIP3    H112390   4.393   4.339   5.007  0.0702 -0.3874  2.2289
 4142TIP3    H212391   4.305   4.413   5.106 -2.1743  1.1744 -0.7879
 4143TIP3   OH212392   4.423   0.415   0.565  0.1060 -0.7030  0.1792
 4143TIP3    H112393   4.496   0.362   0.535  1.5533  1.2429  0.0515
 4143TIP3    H212394   4.444   0.504   0.535 -0.8230  0.4509  2.6777
 4144TIP3   OH212395   1.650   1.267   5.832  0.1069  0.7374  0.4142
 4144TIP3    H112396   1.564   1.253   5.793  1.0137  0.7205 -1.7006
 4144TIP3    H212397   1.711   1.222   5.773  1.5948  0.8728  1.7820
 4145TIP3   OH212398   2.813   5.505   0.197 -0.6987 -0.2279 -0.2034
 4145TIP3    H112399   2.757   5.543   0.129  0.0231  1.7795  0.2520
 4145TIP3    H212400   2.861   5.435   0.152 -0.9276  0.4317 -1.5416
 4146TIP3   OH212401   1.825   5.667   0.558  0.2756 -0.3128  0.1305
 4146TIP3    H112402   1.873   5.634   0.633  0.7860 -2.0785 -0.9050
 4146TIP3    H212403   1.776   5.742   0.591  0.8831 -0.7310  2.0780
 4147TIP3   OH212404   0.415   5.423   0.921 -0.5221 -0.0595  0.1663
 4147TIP3    H112405   0.414   5.327   0.926 -1.5401 -0.0491  0.3978
 4147TIP3    H212406   0.336   5.445   0.870 -0.7448  0.6840  0.8130
 4148TIP3   OH212407   2.129   2.745   0.184 -1.0655 -0.1849 -0.0079
 4148TIP3    H112408   2.061   2.683   0.209  0.6048 -1.0008  2.9158
 4148TIP3    H212409   2.153   2.789   0.266  1.9500  0.0264 -0.9007
 4149TIP3   OH212410   6.868   5.707   3.392 -0.3770  0.4442 -0.3964
 4149TIP3    H112411   6.840   5.789   3.351 -2.6309 -0.0120  0.0515
 4149TIP3    H212412   6.864   5.642   3.322  1.3882  0.6873 -0.7464
 4150TIP3   OH212413   1.524   2.176   1.298  0.0022  0.1505  0.5978
 4150TIP3    H112414   1.508   2.149   1.389 -1.4372  1.0925  0.6459
 4150TIP3    H212415   1.447   2.147   1.250  0.1717  0.7893 -0.0793
 4151TIP3   OH212416   3.608   6.210   4.522 -0.6120  0.3096  0.0567
 4151TIP3    H112417   3.666   6.281   4.496 -0.2780  0.3124  0.8034
 4151TIP3    H212418   3.615   6.146   4.451  2.2374 -0.8464  1.2435
 4152TIP3   OH212419   3.635   3.296   1.069 -0.1710  0.0013  0.9928
 4152TIP3    H112420   3.608   3.331   1.154 -0.5952  1.4645  0.2847
 4152TIP3    H212421   3.730   3.286   1.076 -0.3185 -0.8519  1.9669
 4153TIP3   OH212422   1.519   0.370   2.810  0.7670 -0.0284 -0.6422
 4153TIP3    H112423   1.472   0.451   2.831  1.3628  0.8439 -2.5015
 4153TIP3    H212424   1.452   0.302   2.818  0.4226  0.4970  1.6839
 4154TIP3   OH212425   3.420   6.528   3.134  0.2779  0.0416  0.0934
 4154TIP3    H112426   3.457   6.455   3.084 -3.0671 -1.8351  0.0613
 4154TIP3    H212427   3.413   6.600   3.072 -1.3270 -1.4002 -1.4971
 4155TIP3   OH212428   4.308   5.641   5.482 -0.0946  0.0191 -0.2256
 4155TIP3    H112429   4.352   5.565   5.443  0.7860  0.0243  0.6953
 4155TIP3    H212430   4.218   5.611   5.497  0.0960 -0.6624 -0.3837
 4156TIP3   OH212431   4.818   3.324   5.495  1.0019  0.5534 -0.3023
 4156TIP3    H112432   4.807   3.229   5.496 -0.1248  0.6333 -1.4637
 4156TIP3    H212433   4.814   3.350   5.587  0.7367 -0.4668 -0.0137
 4157TIP3   OH212434   1.194   3.009   4.843  0.1158  0.6000 -0.2593
 4157TIP3    H112435   1.107   2.977   4.821  0.7110 -0.0881 -1.7450
 4157TIP3    H212436   1.202   3.091   4.794  0.7814 -0.0303 -1.2492
 4158TIP3   OH212437   4.224   5.168   5.716  0.5781 -0.5954  0.2808
 4158TIP3    H112438   4.259   5.102   5.656  1.1628  0.0839 -0.1382
 4158TIP3    H212439   4.129   5.166   5.701  0.8879  1.6775 -2.9806
 4159TIP3   OH212440   6.747   4.822   2.357 -0.1710 -0.2165  0.1975
 4159TIP3    H112441   6.756   4.755   2.289  0.0780  0.4754 -0.4632
 4159TIP3    H212442   6.741   4.772   2.439 -1.6308 -1.1146 -0.4131
 4160TIP3   OH212443   1.631   0.958   0.962 -0.4611  0.5753 -0.7462
 4160TIP3    H112444   1.650   0.961   1.056 -0.7486  0.2812 -0.6773
 4160TIP3    H212445   1.536   0.963   0.956 -0.4410  0.6446 -1.0239
 4161TIP3   OH212446   4.785   0.452   2.791 -0.3469 -0.2890  0.1310
 4161TIP3    H112447   4.745   0.443   2.877 -2.1040  0.5742 -0.5402
 4161TIP3    H212448   4.827   0.368   2.775 -2.9456 -1.7602  0.4310
 4162TIP3   OH212449   3.873   6.236   0.268 -0.1867 -0.8455 -0.7681
 4162TIP3    H112450   3.947   6.213   0.212  0.1706  1.2543 -1.2342
 4162TIP3    H212451   3.910   6.244   0.355 -0.6527 -3.6398 -0.2390
 4163TIP3   OH212452   3.689   3.744   3.287 -0.5713  0.4202  0.1211
 4163TIP3    H112453   3.773   3.704   3.262 -0.8583  0.2172 -0.5444
 4163TIP3    H212454   3.686   3.826   3.238 -0.4859  0.7229  0.6240
 4164TIP3   OH212455   6.054   3.873   3.910  0.1314  0.3654 -0.1528
 4164TIP3    H112456   6.011   3.858   3.994  0.0123 -1.2722 -0.4827
 4164TIP3    H212457   6.052   3.968   3.899 -1.6845  0.4684  0.7346
 4165TIP3   OH212458   6.656   2.273   4.438 -0.1481 -0.1021 -0.9803
 4165TIP3    H112459   6.722   2.278   4.507  0.9776 -2.8493 -1.7301
 4165TIP3    H212460   6.572   2.267   4.484  0.4824 -0.7032  0.1101
 4166TIP3   OH212461   2.293   1.533   3.184 -0.0946 -0.3872 -0.1846
 4166TIP3    H112462   2.385   1.559   3.187 -0.1400  0.2364 -2.2573
 4166TIP3    H212463   2.295   1.438   3.195  0.6409 -0.2341  1.2349
 4167TIP3   OH212464   1.701   1.298   0.197 -0.6778  0.0827 -0.4529
 4167TIP3    H112465   1.706   1.377   0.142 -0.1449  1.3810  1.3683
 4167TIP3    H212466   1.792   1.269   0.204 -0.7408 -0.0618 -0.2357
 4168TIP3   OH212467   6.958   4.247   4.243  0.6255 -0.3975  0.1851
 4168TIP3    H112468   6.928   4.225   4.331 -0.7386 -1.2153 -0.4666
 4168TIP3    H212469   7.028   4.184   4.226 -0.1219 -1.2204  0.1157
 4169TIP3   OH212470   3.890   3.177   3.200  0.1261  0.3299  0.2441
 4169TIP3    H112471   3.918   3.242   3.136  0.9401  0.1818  0.4332
 4169TIP3    H212472   3.795   3.179   3.197  0.1333  1.6208  0.3262
 4170TIP3   OH212473   0.960   3.852   2.382 -0.2908 -0.7719 -0.2701
 4170TIP3    H112474   0.866   3.840   2.365 -0.6801 -0.8597  1.7061
 4170TIP3    H212475   0.966   3.866   2.477  1.6529 -0.2287 -0.4252
 4171TIP3   OH212476   6.571   6.813   4.276  0.3478  0.4972  0.2134
 4171TIP3    H112477   6.521   6.737   4.304 -1.1066  1.1987 -0.3295
 4171TIP3    H212478   6.662   6.792   4.295 -0.0859 -1.1367  0.5661
 4172TIP3   OH212479   1.253   1.438   3.268  0.0891 -0.1690  0.0077
 4172TIP3    H112480   1.260   1.470   3.178  0.3525 -1.1801 -0.3404
 4172TIP3    H212481   1.342   1.414   3.292 -0.1789 -1.1387  0.0687
 4173TIP3   OH212482   1.896   2.080   0.277 -0.2179 -0.3894 -0.1815
 4173TIP3    H112483   1.815   2.109   0.234  0.6652  0.8958 -1.0363
 4173TIP3    H212484   1.961   2.077   0.207  0.6175 -0.8538  0.5977
 4174TIP3   OH212485   6.754   3.698   0.372 -0.8267  0.3375  0.4885
 4174TIP3    H112486   6.826   3.638   0.390 -1.1679 -0.1352  0.3051
 4174TIP3    H212487   6.724   3.726   0.458  0.4082  1.5712  0.5630
 4175TIP3   OH212488   3.096   3.731   0.512 -0.2662 -0.3246 -0.5139
 4175TIP3    H112489   3.139   3.682   0.442  0.8909 -0.9694  0.6101
 4175TIP3    H212490   3.062   3.663   0.570 -1.0324  0.2108 -0.3149
 4176TIP3   OH212491   3.497   3.479   2.446 -0.5695  0.1701  0.2568
 4176TIP3    H112492   3.564   3.440   2.389 -0.2894 -0.2237  0.8504
 4176TIP3    H212493   3.542   3.552   2.489 -0.7779  0.4578 -0.0076
 4177TIP3   OH212494   3.644   1.470   0.352 -0.2279  0.7876 -0.3910
 4177TIP3    H112495   3.708   1.481   0.422 -1.3390 -0.5682  0.8960
 4177TIP3    H212496   3.561   1.498   0.390 -0.8470  0.0413 -1.1385
 4178TIP3   OH212497   5.514   6.480   1.104  0.2204  0.5084 -0.2801
 4178TIP3    H112498   5.584   6.483   1.039  1.0213  0.3425  0.5667
 4178TIP3    H212499   5.540   6.543   1.171 -0.4597  0.4788  0.0217
 4179TIP3   OH212500   6.872   5.007   0.661  0.3152  0.1026 -0.3800
 4179TIP3    H112501   6.964   5.033   0.667 -0.0172  1.1666  0.3003
 4179TIP3    H212502   6.839   5.014   0.750 -0.5439  0.1863 -0.6973
 4180TIP3   OH212503   5.695   3.440   3.806  0.4938  0.6699  0.2465
 4180TIP3    H112504   5.692   3.423   3.900  0.1960  0.0830  0.1372
 4180TIP3    H212505   5.606   3.421   3.776  0.2296  2.0686  0.0417
 4181TIP3   OH212506   0.940   2.948   0.814 -0.4273  0.3185  0.1232
 4181TIP3    H112507   0.906   2.873   0.764  0.6283  0.0332 -0.1778
 4181TIP3    H212508   0.919   2.927   0.905  0.8300 -0.9004  0.1728
 4182TIP3   OH212509   2.325   0.422   1.974 -0.2732  0.2665 -0.2321
 4182TIP3    H112510   2.256   0.488   1.964  0.9663  1.7615  0.5554
 4182TIP3    H212511   2.319   0.395   2.066 -0.5642 -0.4781 -0.4678
 4183TIP3   OH212512   3.807   5.598   5.390 -0.0950  0.2767  0.7114
 4183TIP3    H112513   3.817   5.503   5.400 -1.2343 -0.0391 -0.7733
 4183TIP3    H212514   3.821   5.633   5.478  0.0144 -1.3008  1.3581
 4184TIP3   OH212515   3.804   2.203   2.812  0.0172 -0.4675 -0.2379
 4184TIP3    H112516   3.808   2.206   2.908 -2.5852 -1.3232 -0.0262
 4184TIP3    H212517   3.767   2.288   2.787 -2.5620 -1.4575 -0.1259
 4185TIP3   OH212518   4.283   6.511   3.987  0.7552 -0.2519 -0.0322
 4185TIP3    H112519   4.297   6.587   3.931  0.8020 -0.8778 -0.9014
 4185TIP3    H212520   4.187   6.502   3.991  0.7469 -0.0639  0.1866
 4186TIP3   OH212521   2.682   0.766   3.782  0.1285  0.1973  0.3901
 4186TIP3    H112522   2.739   0.719   3.721 -0.6117  0.2348 -0.3529
 4186TIP3    H212523   2.610   0.705   3.800 -2.0585  1.7276 -2.3511
 4187TIP3   OH212524   4.734   1.025   5.180 -0.0825 -0.1439 -0.1185
 4187TIP3    H112525   4.786   1.001   5.257 -0.8438 -1.0476  0.1326
 4187TIP3    H212526   4.784   0.991   5.106 -0.1328 -0.6825  0.0935
 4188TIP3   OH212527   0.257   5.764   1.103 -0.1073  0.0489 -0.2395
 4188TIP3    H112528   0.344   5.724   1.099 -1.1811 -2.4462 -1.0890
 4188TIP3    H212529   0.261   5.835   1.039  1.6494  0.7939  0.6375
 4189TIP3   OH212530   4.160   2.004   5.875 -0.2571  0.0270 -0.2709
 4189TIP3    H112531   4.239   2.008   5.820  0.0235  1.2636  0.1647
 4189TIP3    H212532   4.182   2.059   5.951 -1.7145  0.7888 -0.3715
 4190TIP3   OH212533   6.128   3.080   2.868  0.5780 -0.0538  0.4908
 4190TIP3    H112534   6.186   3.014   2.907  2.0767 -0.2320 -1.8588
 4190TIP3    H212535   6.180   3.160   2.868 -0.4370  0.6312  1.3331
 4191TIP3   OH212536   4.037   2.209   1.983  0.1531  0.2738 -0.0739
 4191TIP3    H112537   4.016   2.162   1.903 -0.8999 -0.5962  0.6947
 4191TIP3    H212538   4.116   2.166   2.016  0.8749  0.9411 -0.8544
 4192TIP3   OH212539   6.489   1.558   5.181  0.5175  0.5326 -0.6975
 4192TIP3    H112540   6.455   1.469   5.168  1.5918 -0.1271  0.7637
 4192TIP3    H212541   6.421   1.614   5.145 -1.9538 -0.7391  1.5413
 4193TIP3   OH212542   1.760   4.973   3.097 -0.3726  0.0155  0.3671
 4193TIP3    H112543   1.753   4.963   3.002  1.1113  0.1737  0.2150
 4193TIP3    H212544   1.670   4.984   3.127 -0.7975  0.9564 -1.1351
 4194TIP3   OH212545   2.154   2.977   1.993 -0.0727 -0.4505  0.4345
 4194TIP3    H112546   2.148   2.941   2.082 -1.4586 -0.7214  0.2643
 4194TIP3    H212547   2.087   2.929   1.944 -1.5249  1.8406  0.0231
 4195TIP3   OH212548   1.733   3.917   4.755 -0.2659  0.4706 -0.6272
 4195TIP3    H112549   1.712   3.832   4.795 -0.9622  0.0833 -1.7511
 4195TIP3    H212550   1.728   3.900   4.661  3.8253  0.7006 -1.0654
 4196TIP3   OH212551   4.771   6.440   1.892  0.4179 -0.3155 -0.0970
 4196TIP3    H112552   4.800   6.521   1.850 -0.2906 -0.3354 -0.6392
 4196TIP3    H212553   4.747   6.382   1.820 -2.3360  0.2185  0.2866
 4197TIP3   OH212554   1.597   5.345   2.257  0.4053 -0.0966  0.1425
 4197TIP3    H112555   1.548   5.426   2.264 -0.7897 -0.6812 -1.0703
 4197TIP3    H212556   1.689   5.372   2.256  0.1493  1.0409  2.0187
 4198TIP3   OH212557   6.273   1.805   0.287 -0.0510  0.3340  0.1318
 4198TIP3    H112558   6.267   1.879   0.226 -0.2631  1.3657  1.3547
 4198TIP3    H212559   6.365   1.781   0.286 -0.2194 -0.3151 -1.3239
 4199TIP3   OH212560   4.291   3.617   2.083  0.3079 -0.0389  0.4935
 4199TIP3    H112561   4.293   3.713   2.089 -1.2293  0.2893 -2.3462
 4199TIP3    H212562   4.381   3.592   2.062  0.5495  0.8873  0.3726
 4200TIP3   OH212563   4.854   1.251   5.788  0.2270 -0.0625  0.6889
 4200TIP3    H112564   4.944   1.251   5.756 -0.3198 -0.6668 -0.9573
 4200TIP3    H212565   4.858   1.298   5.871  1.5872  2.6802 -0.7774
 4201TIP3   OH212566   6.716   4.555   3.764  0.0917  0.1092  0.5454
 4201TIP3    H112567   6.749   4.606   3.691 -0.8077 -0.4114 -0.2485
 4201TIP3    H212568   6.781   4.485   3.776 -0.4906 -0.6957 -0.7660
 4202TIP3   OH212569   2.248   4.955   1.473 -0.1594  0.4965 -0.2614
 4202TIP3    H112570   2.189   5.015   1.427 -2.9520 -0.1355  2.2268
 4202TIP3    H212571   2.279   5.006   1.548 -1.0686 -0.5244  0.8342
 4203TIP3   OH212572   5.572   1.135   3.006  0.1268  0.0627  0.0898
 4203TIP3    H112573   5.511   1.065   2.982  0.5545  0.6754 -3.2799
 4203TIP3    H212574   5.579   1.189   2.927  1.4701  2.7109  1.8679
 4204TIP3   OH212575   5.659   0.778   5.757 -0.1854 -0.2283 -0.7660
 4204TIP3    H112576   5.566   0.797   5.743 -0.5889 -0.0141  1.7550
 4204TIP3    H212577   5.700   0.796   5.673 -2.6894 -2.3287 -2.6168
 4205TIP3   OH212578   6.810   6.669   4.590  0.1518 -0.0550  0.3715
 4205TIP3    H112579   6.798   6.752   4.635  0.2758 -0.2358  0.7493
 4205TIP3    H212580   6.864   6.617   4.650 -1.6956 -1.1837  1.1401
 4206TIP3   OH212581   2.260   4.765   5.562 -0.1489 -0.3133 -0.1381
 4206TIP3    H112582   2.219   4.784   5.477 -0.1954  0.1154 -0.0226
 4206TIP3    H212583   2.227   4.679   5.586  2.2711 -1.9181 -2.0405
 4207TIP3   OH212584   4.270   4.491   5.821  0.0699  0.4511  0.4115
 4207TIP3    H112585   4.278   4.406   5.865 -0.0944 -0.9835 -2.1536
 4207TIP3    H212586   4.186   4.488   5.777  1.6182  0.3096 -2.8004
 4208TIP3   OH212587   4.875   5.151   3.592  0.1334 -0.0205  0.0409
 4208TIP3    H112588   4.891   5.057   3.603  1.7980 -0.3749 -3.8222
 4208TIP3    H212589   4.781   5.161   3.606 -0.4254 -2.6396 -1.1621
 4209TIP3   OH212590   2.302   2.643   1.460 -0.2076  0.3685  0.7821
 4209TIP3    H112591   2.345   2.559   1.449  1.4965  1.3616 -0.7527
 4209TIP3    H212592   2.220   2.635   1.411 -0.2193 -0.5000  0.9393
 4210TIP3   OH212593   6.316   0.368   0.073  0.0751 -0.4744  0.2712
 4210TIP3    H112594   6.399   0.325   0.054 -0.2124 -1.1161  0.4283
 4210TIP3    H212595   6.258   0.297   0.101 -0.1595  0.1336  1.3773
 4211TIP3   OH212596   1.493   4.498   0.911 -0.2799 -0.0288 -0.2727
 4211TIP3    H112597   1.581   4.535   0.904  0.1565 -1.0881 -0.5053
 4211TIP3    H212598   1.436   4.575   0.922  0.5680  0.7253 -0.9651
 4212TIP3   OH212599   0.432   2.486   1.020 -0.2730  0.0090 -0.1390
 4212TIP3    H112600   0.411   2.537   1.099 -0.4378 -1.2034  0.6393
 4212TIP3    H212601   0.478   2.409   1.054 -0.8191 -0.7921 -1.1779
 4213TIP3   OH212602   6.773   0.839   1.326  0.6968 -0.1083 -0.2226
 4213TIP3    H112603   6.748   0.748   1.317 -0.4339  0.0392  1.1421
 4213TIP3    H212604   6.760   0.877   1.239  2.4769 -1.5105 -1.1664
 4214TIP3   OH212605   3.090   0.309   2.473  0.6104  0.6654  0.3880
 4214TIP3    H112606   3.118   0.243   2.537 -2.5169 -1.6551 -0.4007
 4214TIP3    H212607   3.152   0.300   2.400  1.2289 -0.2075  0.9946
 4215TIP3   OH212608   5.388   1.286   4.886  0.0691 -0.2317  0.5876
 4215TIP3    H112609   5.444   1.294   4.809  0.0018  1.8474  0.7047
 4215TIP3    H212610   5.311   1.239   4.855 -0.2371  1.1273 -0.8152
 4216TIP3   OH212611   2.505   5.430   2.457  0.5397 -0.5755  0.1798
 4216TIP3    H112612   2.461   5.391   2.382  1.2782 -0.3234 -0.3947
 4216TIP3    H212613   2.496   5.365   2.527 -3.0013  0.4781  0.9289
 4217TIP3   OH212614   5.385   3.320   5.434  0.0454 -0.7070  0.4291
 4217TIP3    H112615   5.302   3.273   5.445 -0.1802 -0.3950  0.0800
 4217TIP3    H212616   5.360   3.403   5.393  0.4692 -0.3827  0.8206
 4218TIP3   OH212617   6.917   4.965   3.020 -0.2594  0.0424  0.3373
 4218TIP3    H112618   6.963   4.958   2.937  1.2420 -1.5328  1.2423
 4218TIP3    H212619   6.899   5.059   3.030  1.2871  0.5009 -0.8344
 4219TIP3   OH212620   6.858   6.353   2.101  0.1957  0.8572 -0.4028
 4219TIP3    H112621   6.813   6.433   2.128 -0.8553 -0.2449  1.2900
 4219TIP3    H212622   6.804   6.282   2.135  2.2230 -0.5703  0.0432
 4220TIP3   OH212623   6.138   4.899   4.275  0.3210  0.5207  0.3120
 4220TIP3    H112624   6.233   4.895   4.273  0.3436  1.1105 -0.0831
 4220TIP3    H212625   6.116   4.970   4.215 -0.2989  1.4489  1.5901
 4221TIP3   OH212626   5.074   2.590   4.404  0.6577  0.6549 -0.2546
 4221TIP3    H112627   5.093   2.540   4.325 -0.8631  0.6876 -0.6799
 4221TIP3    H212628   5.046   2.524   4.468  0.8465  0.7304 -0.0952
 4222TIP3   OH212629   6.878   5.391   5.833 -0.5645  0.2618 -0.2973
 4222TIP3    H112630   6.892   5.329   5.904 -0.5632  0.4244 -0.1559
 4222TIP3    H212631   6.784   5.406   5.833 -0.5019  0.6528 -0.0017
 4223TIP3   OH212632   1.653   0.107   4.562 -0.3044 -0.0541  0.3329
 4223TIP3    H112633   1.677   0.098   4.470 -0.6100 -1.0672  0.3396
 4223TIP3    H212634   1.686   0.193   4.587  0.2966 -0.0068 -0.5693
 4224TIP3   OH212635   3.075   4.741   1.832  0.2076 -0.1809 -0.4181
 4224TIP3    H112636   3.117   4.674   1.886 -0.6727  0.0513  0.5837
 4224TIP3    H212637   2.994   4.762   1.879  0.1881  1.1623 -1.0147
 4225TIP3   OH212638   3.772   1.145   5.527 -0.2445 -0.1991 -0.4518
 4225TIP3    H112639   3.769   1.086   5.602 -2.7145  0.0431 -0.2835
 4225TIP3    H212640   3.828   1.217   5.555 -1.5780  0.1709  1.4072
 4226TIP3   OH212641   0.327   5.540   2.774 -0.0114 -0.1669 -0.0069
 4226TIP3    H112642   0.234   5.549   2.793  0.0564 -1.2463  0.8967
 4226TIP3    H212643   0.347   5.615   2.717 -0.6040  2.3460  2.8196
 4227TIP3   OH212644   4.544   5.833   0.185  0.1792  0.1506  0.6844
 4227TIP3    H112645   4.638   5.848   0.176  0.1463  0.2214  0.4629
 4227TIP3    H212646   4.520   5.785   0.106 -0.0628  0.5720  0.5039
 4228TIP3   OH212647   3.447   6.028   1.663  0.1052  0.6165  0.3237
 4228TIP3    H112648   3.466   6.102   1.720  1.6375 -0.0258  0.6812
 4228TIP3    H212649   3.375   5.982   1.706  0.7820  0.5278  1.3940
 4229TIP3   OH212650   4.036   3.863   3.336  0.0229 -0.3122 -0.0660
 4229TIP3    H112651   4.044   3.810   3.416  2.2452 -0.5544 -0.3910
 4229TIP3    H212652   3.997   3.945   3.366  0.8799 -0.3624  1.3087
 4230TIP3   OH212653   0.391   4.413   0.575 -0.1944 -0.0421  0.2768
 4230TIP3    H112654   0.426   4.360   0.504  1.2472  2.4086 -0.9731
 4230TIP3    H212655   0.467   4.438   0.627 -1.0251 -0.3943  1.7217
 4231TIP3   OH212656   0.322   0.874   2.202  0.2054  0.3360 -0.4069
 4231TIP3    H112657   0.247   0.829   2.241 -1.1404  0.6526 -2.4575
 4231TIP3    H212658   0.372   0.805   2.158 -0.6504  0.5021 -1.6902
 4232TIP3   OH212659   1.085   0.607   5.387  0.3174 -0.0938  0.1068
 4232TIP3    H112660   1.112   0.699   5.385  0.8750 -0.2353  0.6833
 4232TIP3    H212661   1.020   0.603   5.456  0.0450 -0.0673 -0.1492
 4233TIP3   OH212662   4.917   2.045   3.195  0.3919  0.4289 -0.5248
 4233TIP3    H112663   4.889   1.991   3.121 -1.5044  0.6365 -0.0024
 4233TIP3    H212664   4.889   2.134   3.171 -1.3263  0.3212  0.9129
 4234TIP3   OH212665   5.393   4.966   2.255  0.1083  0.2178  0.0032
 4234TIP3    H112666   5.429   4.929   2.335  0.6169  0.8492  0.0740
 4234TIP3    H212667   5.470   4.986   2.201 -0.2192 -0.0662 -0.5878
 4235TIP3   OH212668   1.982   0.522   0.539  0.4212 -0.4168  0.0183
 4235TIP3    H112669   1.942   0.511   0.453 -1.1228 -0.1178  0.6651
 4235TIP3    H212670   1.909   0.509   0.601  0.8630  2.1305  1.1958
 4236TIP3   OH212671   0.825   6.698   1.576 -0.2917 -0.8963  0.2850
 4236TIP3    H112672   0.745   6.669   1.532 -0.0184  1.3760 -1.9348
 4236TIP3    H212673   0.808   6.790   1.598  1.3321 -0.6692  0.6910
 4237TIP3   OH212674   0.500   4.891   4.763  0.6548 -0.3904 -0.4812
 4237TIP3    H112675   0.560   4.825   4.798 -0.8819 -0.9782  1.1977
 4237TIP3    H212676   0.551   4.972   4.765  1.6892 -1.0168  0.0218
 4238TIP3   OH212677   6.655   1.134   5.537 -0.0311 -0.6602 -0.0396
 4238TIP3    H112678   6.713   1.168   5.468  1.9265 -1.7163  0.9960
 4238TIP3    H212679   6.630   1.047   5.506 -0.9348 -0.2899 -0.3835
 4239TIP3   OH212680   2.939   0.827   4.603 -0.0946 -0.1453 -0.1446
 4239TIP3    H112681   2.870   0.768   4.634 -1.7331  1.5094 -0.4352
 4239TIP3    H212682   2.892   0.896   4.556  1.2663  3.3014  3.0161
 4240TIP3   OH212683   5.595   5.692   2.156 -0.0224  0.1549  0.1122
 4240TIP3    H112684   5.600   5.733   2.243 -0.5465  0.6366 -0.0853
 4240TIP3    H212685   5.561   5.605   2.174 -0.7852  0.4914  0.3189
 4241TIP3   OH212686   2.255   1.694   0.096  0.4059 -0.2233 -0.2552
 4241TIP3    H112687   2.295   1.614   0.131 -0.2461 -0.7511 -0.6974
 4241TIP3    H212688   2.307   1.765   0.133  0.4014 -0.8089  0.9162
 4242TIP3   OH212689   3.967   0.482   1.418  0.4739 -0.2075  0.0507
 4242TIP3    H112690   3.890   0.527   1.454  0.2411 -0.8292  0.3430
 4242TIP3    H212691   4.001   0.432   1.492 -0.8442 -2.6671 -0.8813
 4243TIP3   OH212692   3.353   5.857   0.728 -0.4343 -0.3327  0.4875
 4243TIP3    H112693   3.371   5.763   0.724 -0.1552 -0.2891  0.6392
 4243TIP3    H212694   3.373   5.881   0.818  0.1397 -0.0038  0.2785
 4244TIP3   OH212695   1.145   1.881   5.055  0.0935 -0.4574  0.2781
 4244TIP3    H112696   1.144   1.921   4.968  1.0571 -1.4826 -0.2288
 4244TIP3    H212697   1.057   1.846   5.066 -0.4930  1.0048  0.3668
 4245TIP3   OH212698   4.299   4.802   2.913  0.2405  0.2712 -0.0877
 4245TIP3    H112699   4.393   4.820   2.900  0.5770 -0.2734  1.4719
 4245TIP3    H212700   4.261   4.888   2.931  0.6790  0.3238  0.6061
 4246TIP3   OH212701   2.685   0.929   5.770  0.4963 -0.2791 -0.2856
 4246TIP3    H112702   2.618   0.998   5.773 -0.0034 -0.6344 -2.0379
 4246TIP3    H212703   2.754   0.965   5.715  1.2134 -0.3966  0.5146
 4247TIP3   OH212704   4.789   5.800   2.104  0.7505 -0.2108 -0.4961
 4247TIP3    H112705   4.869   5.841   2.071  0.1066  1.0920 -0.4731
 4247TIP3    H212706   4.732   5.873   2.128 -0.3664 -1.1200 -0.2954
 4248TIP3   OH212707   4.523   0.292   2.933 -0.2413  0.2888 -0.0358
 4248TIP3    H112708   4.551   0.339   3.012 -1.4587 -1.3439  1.4481
 4248TIP3    H212709   4.464   0.354   2.888  0.1739  1.1033  0.5143
 4249TIP3   OH212710   5.229   6.539   4.548  0.1673 -0.1432  0.2399
 4249TIP3    H112711   5.204   6.584   4.467  0.6245  0.2429  0.3088
 4249TIP3    H212712   5.180   6.457   4.545 -0.6547  0.3370  0.0935
 4250TIP3   OH212713   0.663   0.677   3.051 -0.4181 -0.1838  1.0102
 4250TIP3    H112714   0.656   0.746   2.985  2.0321  2.0789  2.9526
 4250TIP3    H212715   0.744   0.632   3.029 -1.1482 -1.4512  0.7700
 4251TIP3   OH212716   5.885   2.085   4.697 -0.2960  0.6259 -0.4378
 4251TIP3    H112717   5.831   2.075   4.619 -0.1473  0.4471 -0.5194
 4251TIP3    H212718   5.960   2.137   4.668 -0.0513  0.2380 -0.5068
 4252TIP3   OH212719   5.012   4.363   4.158  0.1458 -0.4373 -0.1052
 4252TIP3    H112720   4.962   4.313   4.222  0.5612  1.9119  2.2043
 4252TIP3    H212721   5.102   4.331   4.168  0.3644  0.5012  1.1738
 4253TIP3   OH212722   2.027   1.403   3.382 -0.0059 -0.3531 -0.0500
 4253TIP3    H112723   2.033   1.426   3.474 -1.2021 -2.6188  0.6862
 4253TIP3    H212724   2.118   1.394   3.353  0.3932  1.2428  0.6477
 4254TIP3   OH212725   2.539   2.868   5.310  0.1474  0.1186  0.1020
 4254TIP3    H112726   2.541   2.857   5.214  0.0678 -0.2861  0.1453
 4254TIP3    H212727   2.629   2.892   5.333  0.1488  0.2935 -0.0834
 4255TIP3   OH212728   1.662   4.755   0.077  0.0509 -0.0301 -0.5547
 4255TIP3    H112729   1.686   4.702   0.001  0.4877 -1.9956  0.8928
 4255TIP3    H212730   1.729   4.737   0.142 -0.5426  1.2840  0.4801
 4256TIP3   OH212731   3.691   3.626   4.398 -0.0858 -0.6408 -0.0310
 4256TIP3    H112732   3.695   3.561   4.327 -0.5698 -0.0392 -0.6152
 4256TIP3    H212733   3.641   3.699   4.362 -0.6327 -0.4598  1.0435
 4257TIP3   OH212734   3.643   0.586   5.549  0.3799  0.1973 -0.1818
 4257TIP3    H112735   3.597   0.625   5.623  1.3608  0.7015  0.1847
 4257TIP3    H212736   3.618   0.494   5.551  0.3572  0.2114  0.7567
 4258TIP3   OH212737   2.649   6.024   3.810 -0.2335 -0.0053 -0.2330
 4258TIP3    H112738   2.634   6.095   3.747 -0.8153  1.2610  1.2765
 4258TIP3    H212739   2.576   6.029   3.871  1.4806  0.3298  1.9112
 4259TIP3   OH212740   4.420   5.360   5.059 -0.2536  0.2214  0.8829
 4259TIP3    H112741   4.465   5.331   4.979 -1.4612  0.6859 -0.0091
 4259TIP3    H212742   4.464   5.442   5.083 -1.1301  1.1436 -0.4882
 4260TIP3   OH212743   5.320   3.255   4.800  0.5671 -0.5653 -0.0712
 4260TIP3    H112744   5.225   3.245   4.790  0.3929 -0.0995  0.9755
 4260TIP3    H212745   5.348   3.298   4.719  0.3801 -3.4244 -1.7840
 4261TIP3   OH212746   5.565   5.608   2.584  0.5779  0.0480  0.6936
 4261TIP3    H112747   5.476   5.609   2.549  0.6595 -1.5186  0.3885
 4261TIP3    H212748   5.598   5.696   2.567 -0.1270 -0.0211 -1.2588
 4262TIP3   OH212749   6.196   5.716   3.663  0.2963 -0.0738 -0.6843
 4262TIP3    H112750   6.199   5.810   3.645 -0.8801  0.5048  1.7221
 4262TIP3    H212751   6.137   5.707   3.737 -1.7228 -3.0265 -2.4103
 4263TIP3   OH212752   2.648   1.941   4.979 -0.2470  0.0565  0.4190
 4263TIP3    H112753   2.664   1.976   4.892  0.9476  1.3608  1.1123
 4263TIP3    H212754   2.552   1.931   4.984 -0.4176  0.9776 -0.6625
 4264TIP3   OH212755   5.227   5.941   4.608  0.0750  0.3705 -0.2304
 4264TIP3    H112756   5.171   5.874   4.569  0.0371  0.0516  0.3680
 4264TIP3    H212757   5.239   6.006   4.538 -0.1554 -0.0944 -0.7038
 4265TIP3   OH212758   6.395   4.177   3.816 -0.0416  0.0804  0.6896
 4265TIP3    H112759   6.486   4.206   3.824  0.1808 -0.7245  1.1954
 4265TIP3    H212760   6.349   4.254   3.783  0.5585  0.9695  1.8288
 4266TIP3   OH212761   0.244   5.121   2.520 -0.2699  0.2229 -0.5235
 4266TIP3    H112762   0.280   5.033   2.533  1.1497  0.5243 -2.0845
 4266TIP3    H212763   0.241   5.159   2.608 -0.6335 -1.2712  0.1305
 4267TIP3   OH212764   6.521   5.186   2.046 -0.0858 -0.0192  0.2733
 4267TIP3    H112765   6.599   5.131   2.060  0.5493  0.3230 -1.6220
 4267TIP3    H212766   6.452   5.142   2.095  0.9810 -1.1203  0.8519
 4268TIP3   OH212767   2.538   0.155   1.002  0.3017  0.2112  0.0946
 4268TIP3    H112768   2.451   0.144   0.962 -0.0833  1.5707  0.5088
 4268TIP3    H212769   2.593   0.187   0.930  1.2419 -3.1982 -0.9205
 4269TIP3   OH212770   2.706   6.134   4.532  0.1285 -0.4496  0.2576
 4269TIP3    H112771   2.738   6.224   4.543 -2.1364  0.4523 -0.0611
 4269TIP3    H212772   2.692   6.126   4.437 -0.5536 -0.8174  0.3903
 4270TIP3   OH212773   3.520   0.897   1.641 -0.5569  0.0397  0.1086
 4270TIP3    H112774   3.547   0.810   1.612  0.0571  0.6737 -1.2926
 4270TIP3    H212775   3.600   0.937   1.676 -0.4577  0.6233 -0.7594
 4271TIP3   OH212776   4.902   2.347   3.729  0.0918  0.5984 -0.2113
 4271TIP3    H112777   4.995   2.350   3.706 -0.2875  1.6094 -1.7618
 4271TIP3    H212778   4.897   2.389   3.814  1.0608  0.3892 -0.0336
 4272TIP3   OH212779   0.979   0.250   0.129 -0.0658  0.6046  0.4584
 4272TIP3    H112780   0.917   0.320   0.110 -1.3653 -0.5643  0.2803
 4272TIP3    H212781   0.969   0.188   0.057 -0.9861 -1.1255  1.9850
 4273TIP3   OH212782   0.806   4.695   1.475  0.3117 -0.4689 -0.5536
 4273TIP3    H112783   0.802   4.791   1.481 -4.3799 -0.4898  1.7671
 4273TIP3    H212784   0.860   4.669   1.550 -0.6640  0.3955  0.4844
 4274TIP3   OH212785   5.147   4.696   3.181  0.2350  0.0448  0.1025
 4274TIP3    H112786   5.098   4.690   3.263  0.6923 -1.8807  0.2783
 4274TIP3    H212787   5.098   4.641   3.120  0.4177  0.7124 -0.6660
 4275TIP3   OH212788   6.430   6.079   3.980 -0.0711 -0.0173 -0.3834
 4275TIP3    H112789   6.498   6.011   3.985  0.5657  0.6606  0.3960
 4275TIP3    H212790   6.467   6.146   3.923  0.1968  0.6443  0.5379
 4276TIP3   OH212791   5.443   5.794   4.711  0.0500 -0.1124  0.8975
 4276TIP3    H112792   5.349   5.809   4.703  0.3293  1.3272 -0.1162
 4276TIP3    H212793   5.451   5.720   4.771 -1.7653 -0.9689  0.1589
 4277TIP3   OH212794   1.412   5.353   2.846 -0.1066 -0.5818  0.4597
 4277TIP3    H112795   1.364   5.417   2.793 -0.7812 -0.1673  1.5322
 4277TIP3    H212796   1.372   5.359   2.933  2.2130  0.1321  1.5494
 4278TIP3   OH212797   0.741   1.097   1.284  0.7386 -0.3022 -0.2878
 4278TIP3    H112798   0.749   1.001   1.281 -0.8591 -0.5287  0.9774
 4278TIP3    H212799   0.787   1.127   1.206  1.9027 -2.0456 -0.3549
 4279TIP3   OH212800   1.027   6.315   3.249 -0.0789 -0.0320  0.3159
 4279TIP3    H112801   1.043   6.317   3.343  1.8757  3.4545  0.0526
 4279TIP3    H212802   1.021   6.407   3.223 -3.1376 -0.8361 -2.6533
 4280TIP3   OH212803   2.693   3.220   1.585 -0.1920 -0.0752  0.3557
 4280TIP3    H112804   2.624   3.170   1.541  0.4327 -1.1579  0.5414
 4280TIP3    H212805   2.738   3.155   1.638  0.8837  0.6304  0.3398
 4281TIP3   OH212806   3.329   6.676   0.443  0.4743 -0.5774  0.4190
 4281TIP3    H112807   3.296   6.764   0.426  1.3472 -0.6387 -2.1225
 4281TIP3    H212808   3.253   6.619   0.436  0.2667 -0.2209 -0.3727
 4282TIP3   OH212809   3.749   3.629   0.597 -0.2287  0.0053  0.1347
 4282TIP3    H112810   3.823   3.572   0.576  0.8784  0.5387  2.2706
 4282TIP3    H212811   3.707   3.586   0.671 -1.2759  0.3916 -0.2249
 4283TIP3   OH212812   2.290   4.758   0.121  0.2361  0.6576 -0.1212
 4283TIP3    H112813   2.312   4.850   0.136  0.1487  0.5116  0.9714
 4283TIP3    H212814   2.205   4.761   0.075  0.1327  1.1194  0.0917
 4284TIP3   OH212815   5.531   6.218   3.426 -0.1637 -0.5802  0.0967
 4284TIP3    H112816   5.437   6.199   3.424 -0.2229 -0.2459 -0.3031
 4284TIP3    H212817   5.561   6.201   3.337 -0.0775  0.5119 -0.0903
 4285TIP3   OH212818   1.249   1.417   4.700  0.0479 -0.4023 -0.7599
 4285TIP3    H112819   1.173   1.362   4.717  0.8307 -1.2082  0.3241
 4285TIP3    H212820   1.217   1.507   4.713 -0.0300 -0.8231  3.0891
 4286TIP3   OH212821   6.274   5.964   3.645  0.3270 -0.2247 -0.1525
 4286TIP3    H112822   6.366   5.991   3.636  0.3500 -0.2255  0.0949
 4286TIP3    H212823   6.225   6.046   3.642  0.2712 -0.2721 -1.0771
 4287TIP3   OH212824   6.290   6.161   1.158  0.1764 -0.7352 -0.3513
 4287TIP3    H112825   6.302   6.122   1.245  1.4067 -1.9471 -1.0308
 4287TIP3    H212826   6.217   6.112   1.120 -0.9762  0.4027  0.2905
 4288TIP3   OH212827   1.849   5.460   5.526 -0.0789 -0.2315 -0.1022
 4288TIP3    H112828   1.856   5.555   5.517  1.5015 -0.4040 -1.0580
 4288TIP3    H212829   1.848   5.445   5.621  0.2074  0.7212  0.0629
 4289TIP3   OH212830   1.369   2.068   2.013 -0.0435 -0.2255 -0.2737
 4289TIP3    H112831   1.390   2.020   2.093 -0.6642 -1.6489 -0.9112
 4289TIP3    H212832   1.431   2.035   1.948  0.2664  0.7053 -0.4683
 4290TIP3   OH212833   7.008   3.992   2.815  0.4845  0.2348  0.2380
 4290TIP3    H112834   6.978   3.967   2.727 -0.8982 -0.0306  0.7576
 4290TIP3    H212835   7.062   3.918   2.843  0.2192 -0.0783 -0.0566
 4291TIP3   OH212836   3.217   1.169   1.517  0.3094  0.2433  0.4155
 4291TIP3    H112837   3.139   1.183   1.571 -1.0039  2.0146 -1.7700
 4291TIP3    H212838   3.183   1.143   1.432  2.3359 -4.9821  0.7748
 4292TIP3   OH212839   6.793   0.928   1.604  0.0135 -0.3765  0.7673
 4292TIP3    H112840   6.763   0.951   1.516 -2.2388  0.1018  1.5808
 4292TIP3    H212841   6.746   0.848   1.625  1.1634 -0.9458  1.2540
 4293TIP3   OH212842   5.810   6.439   1.813 -0.3676 -0.4133 -0.2519
 4293TIP3    H112843   5.870   6.409   1.881  0.7301  1.5551 -0.3110
 4293TIP3    H212844   5.724   6.441   1.856 -0.3995 -2.8178 -0.0445
 4294TIP3   OH212845   5.902   2.449   4.789 -0.3751 -0.4439  0.6121
 4294TIP3    H112846   5.964   2.458   4.861  0.8815  1.1195 -0.5792
 4294TIP3    H212847   5.847   2.374   4.813  2.1338 -2.0959  1.5862
 4295TIP3   OH212848   2.834   0.014   4.187 -0.5593 -0.3121  0.3450
 4295TIP3    H112849   2.910   0.072   4.198 -0.4322 -0.5721  0.9216
 4295TIP3    H212850   2.774   0.062   4.131 -0.6244  0.5490  1.1251
 4296TIP3   OH212851   3.977   4.459   5.176 -0.2187  0.2891 -0.0478
 4296TIP3    H112852   4.019   4.449   5.091  0.5687 -1.7141  0.5184
 4296TIP3    H212853   4.049   4.454   5.239 -0.9479  0.1822  0.7985
 4297TIP3   OH212854   6.112   5.943   4.769  0.0542  0.0441  0.0318
 4297TIP3    H112855   6.035   5.997   4.752 -0.2471 -0.3373  0.1796
 4297TIP3    H212856   6.085   5.854   4.749  0.3430 -0.1403  0.4327
 4298TIP3   OH212857   5.631   5.915   4.221  0.7131  0.0310  0.2426
 4298TIP3    H112858   5.700   5.874   4.273  1.5593  0.4270 -0.5273
 4298TIP3    H212859   5.678   5.964   4.153 -0.3332 -0.0664 -0.5867
 4299TIP3   OH212860   0.967   4.897   0.665 -0.8636  0.4078  0.4766
 4299TIP3    H112861   1.028   4.825   0.682 -1.1236  0.2799  0.8740
 4299TIP3    H212862   0.922   4.872   0.585 -0.3731  0.5170  0.1638
 4300TIP3   OH212863   4.085   4.828   2.709 -0.1885 -0.0554  0.2139
 4300TIP3    H112864   4.150   4.768   2.747  0.6268  0.5705 -0.1489
 4300TIP3    H212865   4.028   4.772   2.656  0.9907 -0.4439 -0.7003
 4301TIP3   OH212866   6.480   2.340   2.036 -0.1220  0.5141  0.4924
 4301TIP3    H112867   6.434   2.293   2.106  2.2554  0.1120  1.9147
 4301TIP3    H212868   6.522   2.414   2.080  4.5043 -1.7482  0.5082
 4302TIP3   OH212869   3.720   4.173   2.159 -0.2480  0.3465 -0.4273
 4302TIP3    H112870   3.803   4.126   2.168 -1.1650 -0.9260  2.9151
 4302TIP3    H212871   3.738   4.260   2.196 -0.7695 -0.6188  2.3738
 4303TIP3   OH212872   3.277   3.452   2.277  0.4623 -0.4006 -0.1791
 4303TIP3    H112873   3.331   3.457   2.197  0.5745  1.5024 -0.0297
 4303TIP3    H212874   3.340   3.440   2.348  0.4534 -0.8989 -0.2498
 4304TIP3   OH212875   5.366   1.271   5.524 -0.3441 -0.6403  0.0871
 4304TIP3    H112876   5.281   1.307   5.501 -0.3959 -0.7192  0.1544
 4304TIP3    H212877   5.428   1.316   5.466 -0.3310  0.0073  0.5996
 4305TIP3   OH212878   5.543   0.512   4.455  0.1775  0.1038 -0.0694
 4305TIP3    H112879   5.607   0.541   4.390  2.3982 -0.8717  1.5215
 4305TIP3    H212880   5.596   0.486   4.531 -2.2766  1.6815  2.3800
 4306TIP3   OH212881   3.084   4.429   5.694 -0.0243 -0.5271 -0.0531
 4306TIP3    H112882   3.060   4.489   5.765  0.7413 -0.2809  0.0015
 4306TIP3    H212883   3.111   4.349   5.738  1.8091  0.0924  0.0243
 4307TIP3   OH212884   0.247   2.601   3.083  0.5246 -0.1386 -0.1159
 4307TIP3    H112885   0.219   2.658   3.011  1.8168 -1.1316 -1.4871
 4307TIP3    H212886   0.339   2.624   3.098  0.4810 -0.4638  0.6921
 4308TIP3   OH212887   5.023   5.017   1.868  0.0408 -0.1785  0.2740
 4308TIP3    H112888   4.947   4.968   1.900 -0.2449  0.0882  0.0051
 4308TIP3    H212889   5.018   5.101   1.912  0.2290 -0.1883  0.3166
 4309TIP3   OH212890   2.755   5.051   0.549 -0.4742  0.2987 -0.0817
 4309TIP3    H112891   2.727   5.079   0.462 -0.3773  1.3511  0.2182
 4309TIP3    H212892   2.757   4.955   0.543 -0.6616  0.3455 -1.1723
 4310TIP3   OH212893   3.815   5.495   1.175 -0.3844  0.2860  0.2499
 4310TIP3    H112894   3.840   5.587   1.172  0.1186  0.1549  0.3869
 4310TIP3    H212895   3.863   5.459   1.249  0.4924 -0.4015 -0.6273
 4311TIP3   OH212896   5.547   0.229   5.657  0.6172 -0.4440  0.1124
 4311TIP3    H112897   5.509   0.314   5.680 -0.0050 -1.2717  2.3833
 4311TIP3    H212898   5.625   0.222   5.713  0.5872 -1.4270  0.0383
 4312TIP3   OH212899   1.089   4.258   2.803 -0.2836 -0.1386 -0.0977
 4312TIP3    H112900   1.146   4.185   2.776  1.0602  0.6252  0.5900
 4312TIP3    H212901   1.112   4.274   2.894 -0.1084  1.5579 -0.4082
 4313TIP3   OH212902   2.803   3.572   2.335 -0.9508  0.7217 -0.4900
 4313TIP3    H112903   2.764   3.652   2.371 -2.1735  0.0080 -0.1506
 4313TIP3    H212904   2.764   3.563   2.248  0.6913  1.5261 -1.3357
 4314TIP3   OH212905   3.204   1.054   0.500 -0.1915  0.5714 -0.5536
 4314TIP3    H112906   3.142   1.086   0.433  0.4933  1.4686 -0.7832
 4314TIP3    H212907   3.283   1.105   0.485  0.6649 -0.6560 -0.3415
 4315TIP3   OH212908   0.863   0.439   1.548  0.0704 -0.0831  0.1636
 4315TIP3    H112909   0.789   0.394   1.590  0.6377 -0.5051  0.7313
 4315TIP3    H212910   0.885   0.510   1.608 -0.6096  0.7709 -0.5715
 4316TIP3   OH212911   7.205   6.737   4.150  0.8148 -0.2526  0.1538
 4316TIP3    H112912   7.237   6.761   4.063 -0.4506 -0.5790 -0.4243
 4316TIP3    H212913   7.142   6.667   4.134 -2.2850  2.1243  0.8913
 4317TIP3   OH212914   3.528   2.746   2.551 -0.1618 -0.2768 -0.0388
 4317TIP3    H112915   3.604   2.692   2.527 -1.4718 -2.2237 -0.0039
 4317TIP3    H212916   3.560   2.836   2.543  2.0495 -1.0132 -0.3484
 4318TIP3   OH212917   5.859   3.428   3.552  0.0894 -0.1133  0.3819
 4318TIP3    H112918   5.926   3.374   3.592  0.3145 -0.2800 -0.2135
 4318TIP3    H212919   5.794   3.442   3.622  0.5055 -0.3377  0.8172
 4319TIP3   OH212920   3.713   3.399   3.814  0.7809  0.4364  0.2736
 4319TIP3    H112921   3.645   3.464   3.827  0.5713  0.0666  1.1370
 4319TIP3    H212922   3.667   3.315   3.815  1.0487  0.2626 -0.7913
 4320TIP3   OH212923   1.706   4.987   1.252 -0.1127  0.6013  0.0174
 4320TIP3    H112924   1.715   5.066   1.305 -0.9641 -0.0570  1.1641
 4320TIP3    H212925   1.613   4.965   1.256  0.3242 -1.2888  0.9761
 4321TIP3   OH212926   4.959   1.594   2.444  0.3176 -0.0235 -0.2217
 4321TIP3    H112927   5.023   1.665   2.434 -0.4620  0.7756  0.3027
 4321TIP3    H212928   4.908   1.618   2.521 -0.8131 -0.4807 -0.7995
 4322TIP3   OH212929   4.954   3.677   1.576 -0.2579 -0.2478 -0.0182
 4322TIP3    H112930   4.891   3.739   1.539 -0.0300 -0.5179 -0.8663
 4322TIP3    H212931   5.039   3.720   1.567 -0.0150 -0.9279 -1.2043
 4323TIP3   OH212932   3.203   3.323   2.566  0.1184  0.2818 -0.0934
 4323TIP3    H112933   3.134   3.269   2.605 -0.2907 -0.2427 -1.4688
 4323TIP3    H212934   3.158   3.403   2.538  0.3492  0.5387  0.2705
 4324TIP3   OH212935   2.708   3.949   4.451  0.4913  0.5346  0.0406
 4324TIP3    H112936   2.717   3.944   4.356  0.1393 -0.7034  0.0519
 4324TIP3    H212937   2.797   3.966   4.482  1.3963 -2.8225 -0.3398
 4325TIP3   OH212938   2.608   1.407   4.340 -0.1198 -0.4480 -0.3080
 4325TIP3    H112939   2.590   1.373   4.427 -0.4212 -1.8353 -0.8774
 4325TIP3    H212940   2.623   1.501   4.353  3.4472 -1.0916  1.7580
 4326TIP3   OH212941   5.967   4.933   4.748 -0.0545  0.1043  0.4838
 4326TIP3    H112942   5.978   4.852   4.799 -0.7047 -0.5925 -0.4300
 4326TIP3    H212943   6.029   4.925   4.676  2.1977  1.9343  2.0727
 4327TIP3   OH212944   0.701   5.480   2.802  0.2311 -0.5154 -0.0895
 4327TIP3    H112945   0.699   5.530   2.721 -0.6476 -1.1150 -0.4479
 4327TIP3    H212946   0.791   5.490   2.834  0.5464 -0.1458 -1.0541
 4328TIP3   OH212947   5.260   0.480   4.457  0.1448  0.2462 -0.2007
 4328TIP3    H112948   5.354   0.468   4.473  0.2741 -0.4108 -1.4006
 4328TIP3    H212949   5.252   0.486   4.362 -1.2898 -2.1228 -0.2944
 4329TIP3   OH212950   4.622   3.713   2.572  0.1869  0.1165 -0.6423
 4329TIP3    H112951   4.701   3.660   2.583  1.5374  1.9425 -1.0175
 4329TIP3    H212952   4.559   3.676   2.634  1.1898 -1.6322 -0.6090
 4330TIP3   OH212953   5.689   3.655   5.122 -0.2509  0.2409 -0.0609
 4330TIP3    H112954   5.617   3.616   5.072  1.4829  0.3178 -2.8595
 4330TIP3    H212955   5.677   3.750   5.111 -0.7032  0.3154  1.0036
 4331TIP3   OH212956   1.780   6.160   5.015 -0.7099 -0.3452  0.1375
 4331TIP3    H112957   1.788   6.090   4.950 -0.4459  1.0634 -1.4203
 4331TIP3    H212958   1.754   6.115   5.095  0.7043 -2.3864 -0.4505
 4332TIP3   OH212959   5.508   2.404   1.660 -0.1314 -0.3816  0.1958
 4332TIP3    H112960   5.553   2.333   1.706  2.7481  1.7282  0.9418
 4332TIP3    H212961   5.491   2.369   1.573  0.8895 -2.1101  0.6329
 4333TIP3   OH212962   5.097   3.722   5.265  0.7024  0.1814 -0.0343
 4333TIP3    H112963   5.021   3.664   5.257  1.1031 -0.4556  0.7004
 4333TIP3    H212964   5.094   3.754   5.355  2.1018 -0.9925  0.4666
 4334TIP3   OH212965   5.766   3.418   0.852  0.1334 -0.5582 -0.0243
 4334TIP3    H112966   5.734   3.378   0.933 -0.2293 -2.2968 -0.9835
 4334TIP3    H212967   5.857   3.440   0.870  0.2973 -1.6756  0.6260
 4335TIP3   OH212968   5.904   5.151   0.235 -0.0574  0.4950  0.1064
 4335TIP3    H112969   5.981   5.201   0.259 -1.0858  2.3995 -0.3505
 4335TIP3    H212970   5.842   5.216   0.201 -2.1060 -0.8552  1.0438
 4336TIP3   OH212971   6.503   3.507   1.209  0.2969  0.0348  0.3992
 4336TIP3    H112972   6.416   3.533   1.238  1.1573  4.0873  0.0038
 4336TIP3    H212973   6.550   3.486   1.289 -1.0889 -2.8142  0.5744
 4337TIP3   OH212974   6.307   6.773   5.156 -0.4395 -0.2278  0.3066
 4337TIP3    H112975   6.378   6.718   5.124  0.1924  0.6573  0.1516
 4337TIP3    H212976   6.316   6.773   5.251  0.8142  1.1983  0.2281
 4338TIP3   OH212977   2.358   4.315   5.883  0.1431 -0.2869  0.0487
 4338TIP3    H112978   2.326   4.294   5.795  1.2185 -1.5224 -0.0812
 4338TIP3    H212979   2.453   4.322   5.872  0.1889  0.5859  0.9276
 4339TIP3   OH212980   5.991   1.887   5.576 -0.3092  0.2075  0.2162
 4339TIP3    H112981   5.949   1.951   5.518  0.0819 -0.0072 -0.3105
 4339TIP3    H212982   6.075   1.869   5.534  0.1010  0.2638  1.0087
 4340TIP3   OH212983   4.300   1.894   5.263  0.4527  0.0320  0.0765
 4340TIP3    H112984   4.369   1.828   5.250 -0.2994 -1.1712  1.7739
 4340TIP3    H212985   4.231   1.869   5.201 -0.9997 -2.5927  2.4889
 4341TIP3   OH212986   1.403   5.395   0.536  0.2927  0.0784 -0.1643
 4341TIP3    H112987   1.324   5.408   0.484 -2.2722 -1.2026  3.0726
 4341TIP3    H212988   1.429   5.482   0.563  0.1674  0.5287 -1.4149
 4342TIP3   OH212989   6.578   6.221   4.672  0.3067  0.1079  0.2783
 4342TIP3    H112990   6.496   6.175   4.689  1.3354 -1.7660  0.5252
 4342TIP3    H212991   6.637   6.191   4.742  1.1528  1.5608  0.2303
 4343TIP3   OH212992   2.953   1.924   5.202 -0.1626  0.6756  0.6092
 4343TIP3    H112993   3.011   1.941   5.276  3.5956 -1.6675 -1.4949
 4343TIP3    H212994   2.982   1.987   5.135  2.1964 -2.2867 -1.4209
 4344TIP3   OH212995   6.484   1.319   3.848  0.0986 -0.3048 -0.4470
 4344TIP3    H112996   6.531   1.258   3.790  1.2186  0.1296 -0.0131
 4344TIP3    H212997   6.548   1.345   3.913 -0.8954 -0.0804  0.4813
 4345TIP3   OH212998   6.179   3.471   4.930  0.0710 -0.2636 -0.1518
 4345TIP3    H112999   6.220   3.503   5.010 -0.0939 -0.0626 -0.1480
 4345TIP3    H213000   6.241   3.406   4.896  0.7524  0.5966 -0.5664
 4346TIP3   OH213001   0.673   6.712   1.873  0.2114  0.6757  0.5934
 4346TIP3    H113002   0.670   6.798   1.915 -1.3792  1.0701 -0.2443
 4346TIP3    H213003   0.614   6.657   1.925 -0.1474  0.5951  0.1155
 4347TIP3   OH213004   4.308   6.234   0.431  0.0777  0.3005 -0.0635
 4347TIP3    H113005   4.393   6.205   0.399  0.0408  0.0588  0.0566
 4347TIP3    H213006   4.327   6.286   0.509  0.3172  2.4010 -1.4205
 4348TIP3   OH213007   0.927   3.665   0.936 -0.3757 -0.5411  0.2848
 4348TIP3    H113008   0.904   3.757   0.922  0.9470  0.1807  2.4610
 4348TIP3    H213009   1.017   3.658   0.904 -0.0735 -0.7717  1.1550
 4349TIP3   OH213010   1.771   4.586   5.355 -0.3555  0.1971  0.9366
 4349TIP3    H113011   1.841   4.609   5.415  0.2967 -1.6944  0.9626
 4349TIP3    H213012   1.706   4.543   5.409  0.5610 -2.1808  0.2553
 4350TIP3   OH213013   3.376   0.978   3.239 -0.1414 -0.2093  0.0482
 4350TIP3    H113014   3.379   0.883   3.248 -0.0243 -0.1906  0.2258
 4350TIP3    H213015   3.377   1.011   3.330 -0.9167 -0.0572  0.0048
 4351TIP3   OH213016   2.524   2.023   1.059 -0.1586  0.3866 -0.0179
 4351TIP3    H113017   2.466   2.020   0.983  2.2947  2.0098 -2.1401
 4351TIP3    H213018   2.584   1.950   1.047 -0.8760 -0.4950  1.4511
 4352TIP3   OH213019   7.087   5.583   4.913  0.5329  0.7699 -0.4600
 4352TIP3    H113020   7.032   5.564   4.988  0.1023  0.7350 -0.7807
 4352TIP3    H213021   7.059   5.520   4.846  0.3003  1.3744 -0.9417
 4353TIP3   OH213022   5.746   1.336   4.893  0.6036  0.0055  0.3614
 4353TIP3    H113023   5.744   1.387   4.812 -0.2788  0.7152  0.8262
 4353TIP3    H213024   5.675   1.272   4.883 -0.3495  0.9191  1.0913
 4354TIP3   OH213025   2.797   3.301   3.898 -0.2384  0.9489  0.2774
 4354TIP3    H113026   2.738   3.245   3.948  1.0111 -0.1560  0.5738
 4354TIP3    H213027   2.883   3.286   3.937  0.4591  1.5061 -0.9816
 4355TIP3   OH213028   3.611   4.892   2.503  0.2362  0.0966 -0.2089
 4355TIP3    H113029   3.521   4.866   2.522 -0.0929  1.3390  0.0262
 4355TIP3    H213030   3.627   4.859   2.415 -0.5105 -0.0189 -0.3087
 4356TIP3   OH213031   1.406   5.118   0.553 -0.0173  0.1370 -0.1267
 4356TIP3    H113032   1.333   5.075   0.509 -0.6393 -1.6182  2.4014
 4356TIP3    H213033   1.399   5.210   0.526 -1.5963 -0.4266 -1.9021
 4357TIP3   OH213034   6.465   6.513   1.969  0.9371  0.3588 -0.1565
 4357TIP3    H113035   6.417   6.521   1.887  2.4254  2.4082 -0.9029
 4357TIP3    H213036   6.555   6.536   1.947  1.7813 -0.9201  1.6879
 4358TIP3   OH213037   1.669   2.295   3.981  0.1181 -0.9424  0.4903
 4358TIP3    H113038   1.589   2.347   3.992  0.1507 -0.9573  0.8044
 4358TIP3    H213039   1.644   2.226   3.919  0.3896  0.0965 -0.8414
 4359TIP3   OH213040   6.708   0.182   4.880 -0.3194 -0.1451  0.1705
 4359TIP3    H113041   6.667   0.127   4.814 -0.2413  0.2691 -0.2241
 4359TIP3    H213042   6.787   0.217   4.838 -0.6910  0.7657  0.1953
 4360TIP3   OH213043   3.313   6.501   5.007 -0.0180 -0.1958  0.3304
 4360TIP3    H113044   3.311   6.596   5.007  1.5948 -0.1340  0.3053
 4360TIP3    H213045   3.222   6.475   5.022 -0.6994  1.3287 -0.8375
 4361TIP3   OH213046   4.288   3.792   3.472  0.3042 -0.8355  0.1522
 4361TIP3    H113047   4.241   3.806   3.390 -0.5633  1.2323  0.9230
 4361TIP3    H213048   4.236   3.728   3.520 -1.8290  1.3075  0.9286
 4362TIP3   OH213049   1.415   2.748   4.343 -0.6151  0.8366  0.3614
 4362TIP3    H113050   1.356   2.746   4.267  0.0735  1.6036 -0.2222
 4362TIP3    H213051   1.502   2.730   4.306 -0.4288  0.0245  1.1579
 4363TIP3   OH213052   5.263   5.123   2.724  0.2610  0.0921  0.3922
 4363TIP3    H113053   5.305   5.209   2.711  0.3771 -0.2685 -2.1501
 4363TIP3    H213054   5.173   5.144   2.749 -0.4286  1.1133 -2.5046
 4364TIP3   OH213055   4.214   1.027   5.399 -0.2676  0.2963 -0.3390
 4364TIP3    H113056   4.309   1.020   5.409 -0.1829 -0.4416 -1.4829
 4364TIP3    H213057   4.182   1.042   5.488  0.8616 -0.1050  0.1587
 4365TIP3   OH213058   5.733   0.321   3.073  0.3471 -0.1042 -0.1102
 4365TIP3    H113059   5.701   0.280   2.992 -0.1404 -1.6431  0.8240
 4365TIP3    H213060   5.812   0.271   3.095  1.8676  1.8487 -0.8748
 4366TIP3   OH213061   0.457   1.974   1.827 -0.2665  0.0179 -0.5088
 4366TIP3    H113062   0.418   2.023   1.755 -0.5726 -2.7434 -2.4222
 4366TIP3    H213063   0.406   1.892   1.829  1.7401 -1.2792  0.7560
 4367TIP3   OH213064   2.871   0.612   3.635  0.2645  0.2861  0.1105
 4367TIP3    H113065   2.928   0.554   3.686 -0.9507  0.6055  1.9257
 4367TIP3    H213066   2.928   0.686   3.610  1.2848 -0.6518 -0.4117
 4368TIP3   OH213067   4.364   3.873   4.609  0.2779  0.1063  0.0482
 4368TIP3    H113068   4.303   3.946   4.623  1.6431  0.8760  2.4671
 4368TIP3    H213069   4.326   3.800   4.658  0.9179  0.3752  0.9550
 4369TIP3   OH213070   4.712   2.530   5.277 -0.1487 -0.0041  0.2252
 4369TIP3    H113071   4.701   2.519   5.371  0.8998  2.7005  0.7433
 4369TIP3    H213072   4.777   2.463   5.253  0.7856  0.3095  1.7518
 4370TIP3   OH213073   4.371   2.344   3.165 -0.6870  0.0550 -0.2485
 4370TIP3    H113074   4.406   2.394   3.091  1.0171  0.6891  0.9255
 4370TIP3    H213075   4.449   2.318   3.215 -1.5834 -2.7367 -0.1184
 4371TIP3   OH213076   3.330   0.692   3.261  0.0797 -0.3777  0.0362
 4371TIP3    H113077   3.382   0.656   3.333  0.4479 -0.3596 -0.2187
 4371TIP3    H213078   3.358   0.643   3.184  1.2571  1.0512 -0.4826
 4372TIP3   OH213079   4.845   4.653   2.160 -0.3489 -0.3014 -0.2485
 4372TIP3    H113080   4.851   4.729   2.217 -0.2092  0.0027 -0.6648
 4372TIP3    H213081   4.924   4.658   2.105 -1.7577  0.8904 -2.2917
 4373TIP3   OH213082   1.180   4.578   1.183 -0.3076 -0.1229 -0.3807
 4373TIP3    H113083   1.227   4.545   1.259 -1.1940 -0.6706 -0.0525
 4373TIP3    H213084   1.095   4.534   1.186 -1.0746  1.2936 -0.6139
 4374TIP3   OH213085   0.196   0.551   2.341  0.7577  0.1267 -0.3695
 4374TIP3    H113086   0.140   0.627   2.323 -0.3896 -0.0627  1.9242
 4374TIP3    H213087   0.260   0.550   2.271 -1.0859  1.3911 -2.1862
 4375TIP3   OH213088   3.767   1.983   1.041 -0.5473 -0.3153  0.2694
 4375TIP3    H113089   3.739   1.918   0.976 -1.3190  0.6814 -0.4454
 4375TIP3    H213090   3.857   2.004   1.017 -0.6712 -0.3021 -0.2046
 4376TIP3   OH213091   2.428   3.405   2.569 -0.4900  0.1981 -0.1632
 4376TIP3    H113092   2.483   3.369   2.499  0.0847  1.6315 -0.4874
 4376TIP3    H213093   2.490   3.445   2.630 -1.1136  1.4922 -0.3257
 4377TIP3   OH213094   0.858   0.057   2.393 -0.9526  0.0009 -0.5416
 4377TIP3    H113095   0.911   0.132   2.366 -1.7310  0.4680 -0.8251
 4377TIP3    H213096   0.771   0.076   2.357 -1.4793 -0.4172  0.4672
 4378TIP3   OH213097   4.151   3.003   3.794 -0.1116 -0.1274  0.1331
 4378TIP3    H113098   4.182   2.985   3.705 -1.3459 -1.9232  0.0071
 4378TIP3    H213099   4.142   3.098   3.797 -0.3979 -0.0459 -1.8044
 4379TIP3   OH213100   3.600   5.997   0.589  0.0152  0.1110  0.4164
 4379TIP3    H113101   3.540   5.929   0.618  0.9489 -0.5034  0.9578
 4379TIP3    H213102   3.608   6.055   0.665  0.8853 -0.3761  0.7096
 4380TIP3   OH213103   5.421   1.198   3.775  0.4579  0.6951 -0.8226
 4380TIP3    H113104   5.419   1.137   3.701  1.5128  0.8808 -1.0123
 4380TIP3    H213105   5.504   1.245   3.766  0.8432  0.3828  0.7573
 4381TIP3   OH213106   3.109   0.986   2.137 -0.2251  0.2605 -0.1030
 4381TIP3    H113107   3.190   1.007   2.183 -0.7733  0.3444  0.8594
 4381TIP3    H213108   3.121   0.896   2.106 -0.4024 -0.3424  1.4994
 4382TIP3   OH213109   1.897   0.942   3.520  0.3471 -0.2207  0.1400
 4382TIP3    H113110   1.891   0.971   3.429 -1.4282  0.2094  0.3635
 4382TIP3    H213111   1.833   0.871   3.526 -0.8095  0.8866  1.4460
 4383TIP3   OH213112   1.810   5.952   1.332  0.3716  0.3768 -0.3404
 4383TIP3    H113113   1.852   5.901   1.263  2.0361 -1.4388  1.8744
 4383TIP3    H213114   1.809   5.894   1.408 -1.7160  2.1542  1.1111
 4384TIP3   OH213115   5.753   1.300   0.417 -0.2580 -0.3784  0.6434
 4384TIP3    H113116   5.839   1.339   0.430 -0.2947 -0.2175  0.4264
 4384TIP3    H213117   5.712   1.302   0.503  0.0930 -0.7970  0.8232
 4385TIP3   OH213118   0.967   3.282   4.853 -0.0752 -0.7424  0.1414
 4385TIP3    H113119   0.908   3.336   4.905 -0.6798 -1.5296  0.2871
 4385TIP3    H213120   1.051   3.289   4.898 -0.5021 -1.1181  1.0165
 4386TIP3   OH213121   6.724   6.683   0.625 -0.4216 -0.4036  0.4282
 4386TIP3    H113122   6.674   6.625   0.567  0.5796  0.5427 -1.4864
 4386TIP3    H213123   6.666   6.757   0.641 -0.5329 -0.4461  0.2268
 4387TIP3   OH213124   6.974   5.672   2.444  0.0036 -0.1431 -0.0591
 4387TIP3    H113125   6.893   5.674   2.495  0.3557 -1.0397  0.5719
 4387TIP3    H213126   7.043   5.692   2.507  0.2689  0.8045 -0.6327
 4388TIP3   OH213127   2.083   3.592   0.451  0.2379 -0.3332  0.0819
 4388TIP3    H113128   2.019   3.524   0.474  1.8943 -1.6205  1.1652
 4388TIP3    H213129   2.166   3.557   0.482  1.0439  2.6786  1.6708
 4389TIP3   OH213130   1.792   2.722   5.676  0.8055  0.3949 -0.3561
 4389TIP3    H113131   1.865   2.769   5.716  0.3512  0.9445 -0.1472
 4389TIP3    H213132   1.724   2.789   5.665  0.4906 -0.0127 -0.9434
 4390TIP3   OH213133   2.642   3.178   5.657  0.3305 -0.4510 -0.0314
 4390TIP3    H113134   2.703   3.158   5.728  1.0852 -1.7763 -1.0033
 4390TIP3    H213135   2.694   3.167   5.577 -1.3390 -2.3944 -0.9506
 4391TIP3   OH213136   3.105   0.173   1.996 -0.2628 -0.5063  0.0338
 4391TIP3    H113137   3.056   0.184   2.077  0.4065 -3.8488  1.0455
 4391TIP3    H213138   3.197   0.180   2.022 -0.0573 -0.3824 -0.6922
 4392TIP3   OH213139   5.742   3.084   3.748 -0.2710 -0.0056 -0.4045
 4392TIP3    H113140   5.807   3.028   3.791 -0.3043 -0.1266 -0.5130
 4392TIP3    H213141   5.708   3.138   3.819  2.0639  2.1701 -0.7728
 4393TIP3   OH213142   1.269   3.232   2.451  0.1788 -0.9167 -0.2542
 4393TIP3    H113143   1.220   3.252   2.371  3.0121 -0.1775 -1.9507
 4393TIP3    H213144   1.301   3.317   2.481 -0.4566 -1.2487  1.4403
 4394TIP3   OH213145   5.138   3.893   5.070 -0.6156  0.4849  0.5064
 4394TIP3    H113146   5.118   3.819   5.127  0.0561  0.8656  1.2524
 4394TIP3    H213147   5.094   3.967   5.110 -1.9910  0.3563 -0.7000
 4395TIP3   OH213148   2.978   1.132   5.355  0.4434  0.0726 -0.1367
 4395TIP3    H113149   2.954   1.048   5.317  0.8346 -0.8778  1.6009
 4395TIP3    H213150   3.072   1.126   5.370  0.3333  0.4391  0.8263
 4396TIP3   OH213151   1.134   4.954   2.102  0.2187  0.4853 -0.4496
 4396TIP3    H113152   1.055   4.917   2.063  0.3948 -0.5334  0.1370
 4396TIP3    H213153   1.106   5.040   2.135 -1.0289 -0.4323  1.0209
 4397TIP3   OH213154   3.177   4.173   1.032 -0.3597  0.5561  0.4608
 4397TIP3    H113155   3.096   4.203   0.991 -1.3564 -1.8306  0.4975
 4397TIP3    H213156   3.153   4.089   1.071  2.0773 -0.0577  0.7542
 4398TIP3   OH213157   6.191   2.430   2.057 -0.1799  0.0444  0.1879
 4398TIP3    H113158   6.106   2.404   2.094 -0.2669 -0.3770 -0.3009
 4398TIP3    H213159   6.232   2.482   2.126  0.0455 -1.4756  1.2489
 4399TIP3   OH213160   2.298   3.574   4.572  0.4823  0.3769  0.1350
 4399TIP3    H113161   2.358   3.638   4.609  0.5915  0.8236 -0.7903
 4399TIP3    H213162   2.246   3.624   4.509 -0.3735 -0.1575  0.4023
 4400TIP3   OH213163   2.878   6.670   5.589  0.4524 -0.2972 -0.6725
 4400TIP3    H113164   2.847   6.753   5.554 -0.2340 -0.6367 -0.9026
 4400TIP3    H213165   2.962   6.690   5.629 -0.7901  1.0314  1.4539
 4401TIP3   OH213166   2.570   5.397   1.410  0.0530  0.1105  0.0776
 4401TIP3    H113167   2.605   5.384   1.322  0.0756 -0.0626  0.1124
 4401TIP3    H213168   2.506   5.327   1.421 -1.7342  1.5291 -0.7084
 4402TIP3   OH213169   3.578   0.220   2.390 -0.3743  0.0810 -0.1511
 4402TIP3    H113170   3.589   0.281   2.464 -0.8034  1.5881 -1.2805
 4402TIP3    H213171   3.662   0.173   2.386 -0.0091  0.6183  0.7144
 4403TIP3   OH213172   3.137   5.128   0.014 -0.5638  0.2278  0.3315
 4403TIP3    H113173   3.104   5.055   0.067 -3.2579  0.9461 -0.1791
 4403TIP3    H213174   3.073   5.137  -0.056  1.4948  1.0129 -1.5554
 4404TIP3   OH213175   6.048   4.143   0.267 -0.0550  0.5802  0.1294
 4404TIP3    H113176   6.040   4.229   0.225  1.2296  1.6471  1.9526
 4404TIP3    H213177   6.140   4.136   0.291 -0.3712 -0.8284  1.0598
 4405TIP3   OH213178   4.686   1.732   4.428 -0.0653  0.1435  0.6430
 4405TIP3    H113179   4.600   1.693   4.441 -0.4550  0.3003 -1.2530
 4405TIP3    H213180   4.747   1.658   4.437 -0.3412  0.0584  2.1158
 4406TIP3   OH213181   5.088   2.236   3.452 -0.5690 -0.2823 -0.5277
 4406TIP3    H113182   5.172   2.251   3.408 -1.0928 -1.1934 -1.9007
 4406TIP3    H213183   5.088   2.297   3.526  1.0183  0.1808 -0.8792
 4407TIP3   OH213184   6.980   2.054   2.712 -0.2183 -0.1251 -0.4907
 4407TIP3    H113185   7.022   1.995   2.775  1.1036  0.0997 -1.1355
 4407TIP3    H213186   6.984   2.140   2.754 -1.7379 -0.3719  0.2487
 4408TIP3   OH213187   2.022   0.185   3.556  0.1248 -0.4106 -0.0338
 4408TIP3    H113188   1.946   0.137   3.522 -1.1291  0.4570  1.4115
 4408TIP3    H213189   1.987   0.270   3.581  1.6744  0.1419  0.3465
 4409TIP3   OH213190   4.430   6.679   1.113 -0.1413 -0.3436 -0.0855
 4409TIP3    H113191   4.431   6.760   1.062 -0.3006 -0.5450 -0.4055
 4409TIP3    H213192   4.390   6.704   1.196 -0.7864 -0.2380 -0.4238
 4410TIP3   OH213193   2.578   5.468   4.972  0.6508 -0.0068  0.3637
 4410TIP3    H113194   2.664   5.465   5.014  0.5307  1.6340  0.8061
 4410TIP3    H213195   2.594   5.439   4.882  1.5168 -0.4242  0.6432
 4411TIP3   OH213196   1.938   4.254   0.153  0.3780 -0.6398 -0.2995
 4411TIP3    H113197   1.847   4.274   0.174  0.7185 -0.8910  1.6284
 4411TIP3    H213198   1.961   4.315   0.083 -1.0047  0.0351 -0.1918
 4412TIP3   OH213199   3.132   6.475   2.392  0.1721 -0.0831  0.3599
 4412TIP3    H113200   3.072   6.401   2.384  0.8260 -0.4881 -1.3006
 4412TIP3    H213201   3.128   6.500   2.484 -1.2276 -1.1901  0.6332
 4413TIP3   OH213202   6.954   4.988   0.047  0.3007  0.2447  0.3881
 4413TIP3    H113203   7.004   5.069   0.042  0.4713  0.2131  1.3933
 4413TIP3    H213204   6.942   4.972   0.141 -2.4236  0.7347  0.1967
 4414TIP3   OH213205   5.304   0.182   2.658 -0.2894  0.4589 -0.0950
 4414TIP3    H113206   5.398   0.185   2.638 -0.2767 -0.7008 -0.3147
 4414TIP3    H213207   5.270   0.112   2.602 -0.8586 -0.6460  1.5510
 4415TIP3   OH213208   3.873   5.091   5.313  0.0344 -0.1971  0.0137
 4415TIP3    H113209   3.955   5.079   5.361 -0.0393 -1.2442 -0.1147
 4415TIP3    H213210   3.896   5.151   5.242  1.2417 -2.1819 -1.3522
 4416TIP3   OH213211   2.081   3.557   0.758 -0.0978 -0.5980  0.2182
 4416TIP3    H113212   2.060   3.650   0.751 -1.8338 -1.0302 -0.7986
 4416TIP3    H213213   2.177   3.554   0.763  0.0221  1.1982 -0.4451
 4417TIP3   OH213214   5.049   5.157   2.335 -0.2329  0.0829 -0.1833
 4417TIP3    H113215   5.144   5.158   2.324 -0.3756  1.2094 -1.5109
 4417TIP3    H213216   5.035   5.196   2.422  0.5701 -1.9446  0.9291
 4418TIP3   OH213217   3.159   5.786   4.212  0.6360 -0.5251  0.5008
 4418TIP3    H113218   3.141   5.790   4.306  1.4795  0.1417  0.6447
 4418TIP3    H213219   3.073   5.770   4.172 -0.0552  1.0405  1.2647
 4419TIP3   OH213220   2.422   3.371   3.804 -0.2834 -0.4035 -0.2651
 4419TIP3    H113221   2.486   3.374   3.733 -0.9764 -0.3704 -0.8923
 4419TIP3    H213222   2.432   3.455   3.849 -0.5962  0.0284 -0.9925
 4420TIP3   OH213223   3.259   2.598   5.676 -0.4144 -0.2883 -1.1274
 4420TIP3    H113224   3.240   2.507   5.656  0.4073 -1.3793  2.2929
 4420TIP3    H213225   3.352   2.608   5.656 -0.7687  0.2201 -2.6411
 4421TIP3   OH213226   5.872   0.163   5.171  0.2471 -0.0563  0.0992
 4421TIP3    H113227   5.965   0.155   5.147  0.1416 -0.2964 -0.2437
 4421TIP3    H213228   5.870   0.150   5.265  0.6610  0.7678  0.2363
 4422TIP3   OH213229   5.998   3.294   0.256  0.2116 -0.4926  0.0279
 4422TIP3    H113230   5.994   3.200   0.241  1.6079 -0.3537 -1.3874
 4422TIP3    H213231   6.063   3.304   0.326  1.1448 -0.5143 -0.8130
 4423TIP3   OH213232   3.160   6.232   1.888 -0.3897 -0.2212  0.4933
 4423TIP3    H113233   3.108   6.312   1.894  1.0920  0.7564  0.8239
 4423TIP3    H213234   3.184   6.225   1.796 -0.2246 -0.0817  0.5249
 4424TIP3   OH213235   1.497   0.977   4.244  0.0765 -0.3746 -0.1868
 4424TIP3    H113236   1.485   0.886   4.270 -1.3653 -1.0669 -2.9817
 4424TIP3    H213237   1.567   0.975   4.179 -0.1816  0.4500 -0.5093
 4425TIP3   OH213238   6.939   5.270   5.361  0.8946  0.0752 -0.1128
 4425TIP3    H113239   6.865   5.328   5.343  2.0805  1.9100  0.5618
 4425TIP3    H213240   6.953   5.278   5.456  0.1126 -2.6174  0.2956
 4426TIP3   OH213241   7.120   0.805   5.533 -0.4102  0.1382  0.0355
 4426TIP3    H113242   7.040   0.857   5.523 -0.6335 -0.3449 -0.7604
 4426TIP3    H213243   7.089   0.715   5.542 -0.0318  0.1293  1.5643
 4427TIP3   OH213244   6.532   5.980   0.924 -0.0106 -0.2402 -0.2070
 4427TIP3    H113245   6.494   6.068   0.923 -1.8657 -0.9893  0.6325
 4427TIP3    H213246   6.623   5.994   0.951 -0.9703  1.2330  2.7010
 4428TIP3   OH213247   6.111   5.784   2.559 -0.4823  0.3127 -0.0786
 4428TIP3    H113248   6.035   5.727   2.547 -0.5779  0.7810 -2.1841
 4428TIP3    H213249   6.076   5.872   2.554 -0.0510  0.5662  1.0666
 4429TIP3   OH213250   1.922   0.695   1.243  0.1600  0.1917  0.2760
 4429TIP3    H113251   2.015   0.701   1.264  0.0653  1.3319  0.4402
 4429TIP3    H213252   1.919   0.637   1.167  1.0821  0.6910 -0.1644
 4430TIP3   OH213253   1.738   2.234   2.508 -0.5631  0.0250  0.0833
 4430TIP3    H113254   1.713   2.186   2.429  0.8212 -2.1586  0.8781
 4430TIP3    H213255   1.657   2.275   2.538 -1.1200  1.0045 -2.4620
 4431TIP3   OH213256   1.885   0.741   4.381  0.0707 -0.3198  0.3859
 4431TIP3    H113257   1.816   0.807   4.381  0.1480 -0.1859 -1.3584
 4431TIP3    H213258   1.876   0.697   4.466 -1.0442  0.8137  0.8930
 4432TIP3   OH213259   2.053   1.379   5.196  0.8016 -0.2985 -0.0139
 4432TIP3    H113260   2.005   1.459   5.175  1.6616  0.4199  0.6542
 4432TIP3    H213261   1.986   1.311   5.200 -0.3714  0.8857  2.0471
 4433TIP3   OH213262   2.923   1.515   2.068 -0.3640 -0.0487  0.2478
 4433TIP3    H113263   2.945   1.432   2.111  0.2263 -0.0868 -0.1191
 4433TIP3    H213264   2.844   1.545   2.113 -0.3045 -0.5679  0.7086
 4434TIP3   OH213265   1.348   1.724   3.167 -0.1357 -0.2732  0.1439
 4434TIP3    H113266   1.419   1.718   3.230 -0.4285  0.2774  0.5298
 4434TIP3    H213267   1.271   1.689   3.212  0.2409 -2.6581 -0.8855
 4435TIP3   OH213268   3.773   2.326   1.047 -0.4701  0.4872  0.2779
 4435TIP3    H113269   3.712   2.398   1.033  1.1106  2.5970  3.2327
 4435TIP3    H213270   3.723   2.261   1.097 -0.8257  1.3794  1.0981
 4436TIP3   OH213271   6.988   1.519   3.869 -0.3800 -0.1340  0.1038
 4436TIP3    H113272   6.958   1.609   3.876  2.0795  0.6624  2.0796
 4436TIP3    H213273   7.052   1.520   3.798 -1.1794 -0.6190 -0.6397
 4437TIP3   OH213274   5.508   2.985   1.912  0.6816  0.6619 -0.3014
 4437TIP3    H113275   5.581   2.969   1.852  0.9850  0.8367  0.0193
 4437TIP3    H213276   5.549   3.000   1.997  0.1528 -1.7162  0.4451
 4438TIP3   OH213277   5.343   3.054   1.142  0.2317  0.4917  0.6467
 4438TIP3    H113278   5.335   2.966   1.104  0.2165  0.4831  0.6692
 4438TIP3    H213279   5.354   3.112   1.067 -0.7516  0.5881  0.5598
 4439TIP3   OH213280   4.272   5.700   3.210  0.2302 -0.5717 -0.3575
 4439TIP3    H113281   4.330   5.755   3.157 -0.6872 -0.4518 -1.2598
 4439TIP3    H213282   4.227   5.762   3.267  0.4161 -0.5816 -0.1975
 4440TIP3   OH213283   6.849   4.251   3.226 -0.0825  0.5651  0.1394
 4440TIP3    H113284   6.818   4.341   3.222  2.2439  1.4474  0.5109
 4440TIP3    H213285   6.898   4.238   3.145 -2.1175 -1.1245 -0.9220
 4441TIP3   OH213286   2.891   4.374   4.663  0.4821 -0.9855  0.4434
 4441TIP3    H113287   2.896   4.442   4.730 -0.9689 -0.4213  0.0073
 4441TIP3    H213288   2.975   4.378   4.618  0.0267  1.3063 -0.2979
 4442TIP3   OH213289   2.327   1.005   5.114 -0.3520  0.1394  0.1100
 4442TIP3    H113290   2.341   1.099   5.107  0.0283  0.1429  0.8637
 4442TIP3    H213291   2.388   0.967   5.051 -0.1121  0.3760  0.1951
 4443TIP3   OH213292   4.021   4.616   0.641  0.3436 -0.4496  0.3057
 4443TIP3    H113293   4.004   4.544   0.581  1.8722  2.7284 -4.5745
 4443TIP3    H213294   3.934   4.643   0.672 -0.4332 -2.7505  0.2751
 4444TIP3   OH213295   1.038   1.121   1.071  0.3818  0.3734 -0.1458
 4444TIP3    H113296   1.021   1.191   1.134 -0.5587 -1.8348  2.1899
 4444TIP3    H213297   1.133   1.125   1.056  0.7552  0.5269  1.9958
 4445TIP3   OH213298   2.188   5.527   5.770  0.3344 -0.4639 -0.4547
 4445TIP3    H113299   2.209   5.501   5.680  3.5565 -3.2784  0.8887
 4445TIP3    H213300   2.271   5.560   5.805 -1.3593  2.7180  0.9711
 4446TIP3   OH213301   5.033   1.405   4.932  0.0520  0.4893  0.2505
 4446TIP3    H113302   4.949   1.419   4.887 -0.2329 -0.8072  0.3517
 4446TIP3    H213303   5.022   1.322   4.978  0.6778  1.2740  1.9339
 4447TIP3   OH213304   6.631   4.429   5.159  0.3428 -0.2735  0.0821
 4447TIP3    H113305   6.643   4.347   5.206 -0.9081 -0.2421  0.5133
 4447TIP3    H213306   6.711   4.441   5.109  0.2123 -2.1821 -0.6355
 4448TIP3   OH213307   1.182   5.872   0.618 -0.3172 -0.0607 -0.1810
 4448TIP3    H113308   1.193   5.955   0.571  0.0782  0.1679  0.3115
 4448TIP3    H213309   1.258   5.867   0.677 -0.9217 -0.2471  0.5887
 4449TIP3   OH213310   4.512   0.930   2.454 -0.4795 -0.0418 -0.4204
 4449TIP3    H113311   4.452   0.861   2.483 -0.0273 -0.9104 -1.4601
 4449TIP3    H213312   4.493   1.004   2.511  0.1130 -1.5232  1.8015
 4450TIP3   OH213313   4.432   3.511   0.468  0.1803  0.4157 -0.4957
 4450TIP3    H113314   4.444   3.456   0.391 -0.5686 -0.0265 -0.3034
 4450TIP3    H213315   4.498   3.481   0.530 -0.9394 -1.0681  0.0415
 4451TIP3   OH213316   4.664   4.757   4.453 -0.3009  0.0684  0.3696
 4451TIP3    H113317   4.746   4.803   4.431  0.4110 -0.4935  1.7051
 4451TIP3    H213318   4.686   4.665   4.445 -0.4263 -0.1189  1.9075
 4452TIP3   OH213319   1.990   4.499   0.859  0.3409  0.2981  0.3310
 4452TIP3    H113320   2.023   4.521   0.946  0.2795 -0.0261  0.4382
 4452TIP3    H213321   1.974   4.583   0.817  0.6337  0.4561  0.5343
 4453TIP3   OH213322   3.800   2.882   5.550 -0.1717 -0.0360  0.2509
 4453TIP3    H113323   3.894   2.897   5.543 -0.0770 -0.6592  0.1776
 4453TIP3    H213324   3.768   2.958   5.599  0.7384 -0.9881  2.4531
 4454TIP3   OH213325   3.340   5.893   4.501  0.6757 -0.1769  0.0996
 4454TIP3    H113326   3.371   5.955   4.567  1.9352 -1.0062  0.3026
 4454TIP3    H213327   3.368   5.807   4.532 -0.6127 -0.8275 -0.4345
 4455TIP3   OH213328   6.309   1.328   0.948 -0.5255 -0.2452 -0.7033
 4455TIP3    H113329   6.218   1.341   0.974 -0.2540 -0.5572  0.4500
 4455TIP3    H213330   6.309   1.340   0.853 -2.2097 -2.6015 -1.0892
 4456TIP3   OH213331   4.058   3.616   3.525 -0.8995 -0.3242 -0.6013
 4456TIP3    H113332   4.104   3.535   3.505 -0.1400 -0.1321  0.2995
 4456TIP3    H213333   3.974   3.609   3.479 -0.1307 -0.8401 -1.9512
 4457TIP3   OH213334   3.102   2.311   0.503 -0.1731  0.7645  0.3038
 4457TIP3    H113335   3.123   2.293   0.411 -0.4082  1.6025  0.0827
 4457TIP3    H213336   3.097   2.224   0.543  3.6107  0.3943  0.3931
 4458TIP3   OH213337   2.217   1.597   4.948 -0.2002 -0.4463 -0.2239
 4458TIP3    H113338   2.280   1.531   4.919 -0.2643 -0.4827 -0.2806
 4458TIP3    H213339   2.265   1.680   4.946  0.2242 -0.6389  0.9096
 4459TIP3   OH213340   3.069   2.002   1.556 -0.1098 -0.9582  0.5109
 4459TIP3    H113341   2.991   1.947   1.562 -1.2767  0.5603 -0.0821
 4459TIP3    H213342   3.039   2.089   1.582  0.6173  0.3423 -2.5717
 4460TIP3   OH213343   0.607   6.130   2.466  0.1433  0.0001  0.5180
 4460TIP3    H113344   0.562   6.053   2.431  1.4529  0.5225 -2.6348
 4460TIP3    H213345   0.541   6.200   2.462  0.3674  0.1632 -1.5942
 4461TIP3   OH213346   0.297   4.921   2.292 -0.0151  0.4160 -0.7461
 4461TIP3    H113347   0.223   4.972   2.261  0.2028  0.9237 -0.4480
 4461TIP3    H213348   0.258   4.848   2.339 -0.3417 -0.1888 -1.9311
 4462TIP3   OH213349   0.199   2.899   5.130 -0.0731 -0.1648 -0.1368
 4462TIP3    H113350   0.124   2.884   5.072 -0.0738  1.0805 -0.4793
 4462TIP3    H213351   0.263   2.833   5.103 -0.3221 -0.0214 -1.1215
 4463TIP3   OH213352   5.690  -0.025   5.076  0.1152  0.1204 -0.3909
 4463TIP3    H113353   5.749   0.037   5.120 -0.9621  0.9551 -0.0869
 4463TIP3    H213354   5.628   0.031   5.029 -0.6046 -0.7377 -0.4783
 4464TIP3   OH213355   1.472   5.345   3.317 -0.1649  0.9948  0.0951
 4464TIP3    H113356   1.546   5.311   3.368  0.2335  1.1016 -0.4027
 4464TIP3    H213357   1.401   5.354   3.380 -1.0648 -2.9509 -0.0431
 4465TIP3   OH213358   5.345   1.871   2.266  0.1049 -0.1353 -0.2054
 4465TIP3    H113359   5.277   1.899   2.204 -0.4430 -2.0591 -0.5434
 4465TIP3    H213360   5.423   1.858   2.212  0.6294  1.5182  0.0950
 4466TIP3   OH213361   0.824   1.030   4.490  0.3915  0.2397  0.4222
 4466TIP3    H113362   0.864   1.046   4.575  1.2891  0.7040 -0.0798
 4466TIP3    H213363   0.890   0.982   4.440  0.2100  0.7267 -0.3067
 4467TIP3   OH213364   1.686   1.126   3.140  0.6812  0.0900  0.0519
 4467TIP3    H113365   1.702   1.216   3.168 -0.5062  0.6123 -0.9058
 4467TIP3    H213366   1.595   1.124   3.114  0.4760 -1.5871  0.7232
 4468TIP3   OH213367   4.638   0.291   4.768 -0.0486 -0.8970  0.4689
 4468TIP3    H113368   4.699   0.340   4.824  0.2219 -0.7652  0.0603
 4468TIP3    H213369   4.560   0.347   4.763  0.5462 -0.1305 -0.6258
 4469TIP3   OH213370   5.263   3.184   3.760  0.2657 -0.0422 -0.4896
 4469TIP3    H113371   5.247   3.206   3.668 -0.3449  2.0328  0.0666
 4469TIP3    H213372   5.246   3.090   3.765 -2.6205  0.2816 -1.9491
 4470TIP3   OH213373   1.294   2.986   2.541  0.2972 -0.1685  0.2498
 4470TIP3    H113374   1.305   3.073   2.503  1.2793 -1.1633 -1.9215
 4470TIP3    H213375   1.369   2.976   2.600 -0.5242  0.8905  1.5403
 4471TIP3   OH213376   6.271   4.874   5.300 -0.5064 -0.2859 -0.2258
 4471TIP3    H113377   6.273   4.813   5.226 -0.2236  0.2084 -0.6329
 4471TIP3    H213378   6.192   4.851   5.348 -0.1807 -1.2584 -0.1296
 4472TIP3   OH213379   1.142   3.689   2.053 -0.0548 -0.0417  0.5744
 4472TIP3    H113380   1.197   3.757   2.092 -2.4280  1.5318  1.4047
 4472TIP3    H213381   1.064   3.687   2.108 -1.0125 -1.9205 -0.7489
 4473TIP3   OH213382   6.765   1.562   1.152 -0.3470 -1.0953 -0.1408
 4473TIP3    H113383   6.673   1.561   1.177 -0.3633 -0.1212 -0.1029
 4473TIP3    H213384   6.785   1.472   1.128 -1.4278 -1.2426 -0.5569
 4474TIP3   OH213385   4.933   5.934   2.362 -0.0507  0.3408 -0.0387
 4474TIP3    H113386   5.003   5.999   2.372  0.1401  0.0482  0.6326
 4474TIP3    H213387   4.919   5.928   2.268 -0.2604  1.5574 -0.0998
 4475TIP3   OH213388   3.949   5.550   1.449  1.0770 -0.5169 -0.4319
 4475TIP3    H113389   3.890   5.608   1.401 -0.5235 -0.8801  0.9903
 4475TIP3    H213390   3.956   5.590   1.536  1.8210 -1.2339 -0.1471
 4476TIP3   OH213391   3.474   3.973   5.065 -0.0535  0.2281 -0.4081
 4476TIP3    H113392   3.498   3.952   4.975 -0.9447 -1.8406 -0.2139
 4476TIP3    H213393   3.426   4.055   5.059 -1.4973 -0.6838 -2.0701
 4477TIP3   OH213394   1.474   1.166   5.631 -0.1989  0.6587  0.2401
 4477TIP3    H113395   1.516   1.207   5.556  1.9557  1.0668  1.6004
 4477TIP3    H213396   1.439   1.084   5.597  1.3536  0.4967 -1.0708
 4478TIP3   OH213397   0.308   2.812   3.849  0.0482 -0.3792 -0.1777
 4478TIP3    H113398   0.355   2.886   3.887 -1.4201  0.7296 -0.4175
 4478TIP3    H213399   0.293   2.838   3.758  0.2565 -1.3508 -0.4966
 4479TIP3   OH213400   2.844   3.463   0.033 -0.0680 -1.0488 -0.6042
 4479TIP3    H113401   2.864   3.444   0.125 -2.8573 -2.8821 -0.2711
 4479TIP3    H213402   2.909   3.412  -0.016  1.4247 -0.0778  0.2736
 4480TIP3   OH213403   3.915   0.902   0.755 -0.5233 -0.1833 -0.2078
 4480TIP3    H113404   3.823   0.903   0.727 -0.6427 -1.5142  0.0375
 4480TIP3    H213405   3.943   0.811   0.739 -0.0315 -0.4984  2.1705
 4481TIP3   OH213406   7.114   0.121   4.165  0.5169  0.4718 -0.0885
 4481TIP3    H113407   7.060   0.085   4.094  1.0365  0.9920 -0.7602
 4481TIP3    H213408   7.077   0.207   4.182  0.4765  0.4003  0.1898
 4482TIP3   OH213409   4.077   5.161   4.639  0.6233 -0.4563  0.1303
 4482TIP3    H113410   4.051   5.213   4.563 -0.6396  1.4658  1.7647
 4482TIP3    H213411   3.994   5.127   4.674  0.9060  0.5762  1.9079
 4483TIP3   OH213412   3.939   5.698   3.776 -0.0348 -0.0101 -0.1547
 4483TIP3    H113413   3.931   5.602   3.775 -2.0549  0.1232 -0.9025
 4483TIP3    H213414   4.015   5.716   3.722 -0.2235 -1.1572 -0.8448
 4484TIP3   OH213415   0.145   2.469   5.468  0.0379  0.1669 -0.0477
 4484TIP3    H113416   0.213   2.525   5.432 -0.3765  0.4929 -0.3353
 4484TIP3    H213417   0.114   2.417   5.393 -0.6502  0.6656 -0.1174
 4485TIP3   OH213418   0.110   0.281   5.382  0.4492 -0.7534  0.0627
 4485TIP3    H113419   0.092   0.230   5.303  0.5727 -1.8030  0.6829
 4485TIP3    H213420   0.191   0.327   5.363  0.8572 -1.5504 -0.1831
 4486TIP3   OH213421   5.749   5.623   4.782  0.2730 -0.7664  0.4018
 4486TIP3    H113422   5.670   5.653   4.826 -0.2548 -0.4848 -0.6984
 4486TIP3    H213423   5.732   5.530   4.765 -0.2766 -0.4836 -0.7232
 4487TIP3   OH213424   2.877   2.019   3.138 -0.3189  0.1283 -0.2921
 4487TIP3    H113425   2.968   1.995   3.156 -0.4776 -0.0855  0.2471
 4487TIP3    H213426   2.852   1.962   3.066 -0.4498 -0.8070  0.4731
 4488TIP3   OH213427   6.685   4.046   3.309 -0.4619  0.0354 -0.2475
 4488TIP3    H113428   6.742   4.116   3.278  0.7801 -1.0981 -0.6373
 4488TIP3    H213429   6.725   4.017   3.391 -0.0308 -1.2424 -0.8789
 4489TIP3   OH213430   2.817   4.057   3.707  0.0277 -0.1977 -0.1195
 4489TIP3    H113431   2.897   4.099   3.740 -0.3661 -1.0831  2.1989
 4489TIP3    H213432   2.773   4.026   3.786 -1.8750 -1.0597 -1.4520
 4490TIP3   OH213433   4.080   3.184   4.702 -0.6467 -0.1873  0.1710
 4490TIP3    H113434   4.162   3.195   4.751  1.4860 -0.2306 -3.0943
 4490TIP3    H213435   4.013   3.178   4.770  1.9080  0.6400  3.0257
 4491TIP3   OH213436   2.305   6.512   2.954  0.0347  0.5954 -0.8698
 4491TIP3    H113437   2.276   6.459   2.879  0.3029 -1.4564  0.3900
 4491TIP3    H213438   2.299   6.602   2.923 -3.6358  0.1140 -2.0568
 4492TIP3   OH213439   0.357   2.082   2.453  0.7482 -0.1398 -0.3629
 4492TIP3    H113440   0.315   2.155   2.498  0.0330  0.5328 -2.0221
 4492TIP3    H213441   0.399   2.031   2.522 -0.5236  0.6722  1.0558
 4493TIP3   OH213442   4.042   3.029   5.282 -0.0891  0.5383  0.4232
 4493TIP3    H113443   4.026   3.121   5.261  1.7076  0.6259 -0.7471
 4493TIP3    H213444   3.962   2.984   5.255  0.0858  1.4070 -1.7434
 4494TIP3   OH213445   4.698   6.763   4.653  0.1785  0.4408  0.2502
 4494TIP3    H113446   4.674   6.671   4.655 -0.8782  0.6868 -0.0617
 4494TIP3    H213447   4.726   6.778   4.562  1.0395  0.2714  0.4831
 4495TIP3   OH213448   1.699   4.086   2.323  0.1723  0.2957  0.1602
 4495TIP3    H113449   1.730   4.176   2.334 -1.9208  0.9168  1.5837
 4495TIP3    H213450   1.748   4.036   2.387  0.5617  0.6348  0.1317
 4496TIP3   OH213451   2.035   4.294   3.348 -0.3763  0.2480 -0.2778
 4496TIP3    H113452   2.092   4.299   3.271 -0.3537 -0.9411 -0.3449
 4496TIP3    H213453   1.983   4.375   3.344 -1.2185 -0.3319 -2.2120
 4497TIP3   OH213454   5.764   0.978   1.919  0.4909  0.8315 -0.3924
 4497TIP3    H113455   5.802   0.908   1.866  2.0146  1.6382 -0.4039
 4497TIP3    H213456   5.677   0.992   1.881 -0.0343 -1.3049 -0.1240
 4498TIP3   OH213457   6.476   1.449   0.210  0.0613  0.1092 -0.1409
 4498TIP3    H113458   6.523   1.458   0.127 -0.8867 -0.6930 -0.7802
 4498TIP3    H213459   6.485   1.356   0.232 -0.0150  0.2423  0.4671
 4499TIP3   OH213460   1.952   3.190   4.085  0.1742  0.0580 -0.2250
 4499TIP3    H113461   1.902   3.254   4.035  0.7604  0.6661 -0.0596
 4499TIP3    H213462   2.031   3.238   4.112  2.2467 -1.6029 -2.8045
 4500TIP3   OH213463   4.192   5.913   3.859  0.0172 -0.5214 -0.0923
 4500TIP3    H113464   4.280   5.944   3.836 -0.4654  1.7183  0.8039
 4500TIP3    H213465   4.133   5.973   3.814 -1.0140 -0.6094  1.0935
 4501TIP3   OH213466   2.408   0.240   3.504  0.5643  0.0743 -0.2106
 4501TIP3    H113467   2.411   0.153   3.464 -0.5508  0.0306 -0.2334
 4501TIP3    H213468   2.419   0.301   3.430  1.2975 -0.0437 -0.2006
 4502TIP3   OH213469   5.755   5.061   4.807 -0.4514  0.7974  0.1294
 4502TIP3    H113470   5.831   5.017   4.768  1.0992  0.7091  2.9462
 4502TIP3    H213471   5.751   5.146   4.763  0.8736  0.5361 -0.5546
 4503TIP3   OH213472   3.222   4.582   2.061  0.0391 -0.3958  0.3543
 4503TIP3    H113473   3.179   4.500   2.088  0.6834 -0.0548  2.6386
 4503TIP3    H213474   3.195   4.646   2.126 -1.2907  1.5677 -1.9767
 4504TIP3   OH213475   0.845   2.408   5.181  0.3200  0.2243  0.2627
 4504TIP3    H113476   0.922   2.367   5.220  0.8491 -0.0671 -1.0578
 4504TIP3    H213477   0.868   2.501   5.175  1.5444 -0.1819 -2.2709
 4505TIP3   OH213478   1.834   3.368   3.924 -0.2826  0.0747 -1.0852
 4505TIP3    H113479   1.777   3.441   3.902  0.6600  0.9071 -0.8586
 4505TIP3    H213480   1.919   3.392   3.887  0.6547  0.2216  1.0289
 4506TIP3   OH213481   4.715   0.269   0.576 -0.2894  0.0091  0.6889
 4506TIP3    H113482   4.742   0.185   0.614 -1.7218 -0.7358  0.1612
 4506TIP3    H213483   4.731   0.259   0.483 -0.9915  0.1009  0.5539
 4507TIP3   OH213484   0.437   0.251   3.757  0.8751  0.0784 -0.1043
 4507TIP3    H113485   0.394   0.305   3.823 -1.0520 -2.2749  0.7296
 4507TIP3    H213486   0.500   0.198   3.805  2.2650  1.0476 -0.8023
 4508TIP3   OH213487   4.141   4.383   4.305 -0.2361 -0.2129 -0.3229
 4508TIP3    H113488   4.183   4.336   4.233  0.3232  0.6413 -0.5761
 4508TIP3    H213489   4.051   4.397   4.275 -0.1983 -0.4722 -0.5592
 4509TIP3   OH213490   4.045   5.672   0.787  1.0430  0.1869 -0.3554
 4509TIP3    H113491   3.961   5.628   0.797  0.2484  1.4438 -1.1577
 4509TIP3    H213492   4.041   5.746   0.848  1.6241  0.1823 -0.3001
 4510TIP3   OH213493   4.898   1.591   5.139 -0.3072  0.4260  0.1301
 4510TIP3    H113494   4.862   1.518   5.090  0.2232  0.1063  0.2125
 4510TIP3    H213495   4.844   1.666   5.113 -0.3344  0.1709 -0.5720
 4511TIP3   OH213496   2.914   3.648   0.878 -0.4093  0.3931  1.1432
 4511TIP3    H113497   2.995   3.600   0.893 -2.1480 -2.6959  1.4820
 4511TIP3    H213498   2.878   3.663   0.966 -1.4712 -0.6885  0.9119
 4512TIP3   OH213499   6.379   1.675   4.872  0.0355 -0.0245  0.3961
 4512TIP3    H113500   6.384   1.582   4.895 -0.3597 -0.1728 -0.1193
 4512TIP3    H213501   6.411   1.680   4.782  0.1254  0.3530  0.4440
 4513TIP3   OH213502   2.948   0.747   4.221  0.2590  0.5617 -0.8267
 4513TIP3    H113503   2.865   0.700   4.213 -0.1114  1.1875 -0.7084
 4513TIP3    H213504   2.925   0.839   4.209  1.1486  0.6232 -2.2855
 4514TIP3   OH213505   6.282   0.156   3.999 -0.1369  0.0285 -0.8700
 4514TIP3    H113506   6.227   0.233   3.989  0.0272  0.0575 -1.6810
 4514TIP3    H213507   6.237   0.101   4.062 -1.3687 -0.1819 -1.8959
 4515TIP3   OH213508   5.628   5.348   2.412 -0.3320 -0.2995 -0.0322
 4515TIP3    H113509   5.674   5.266   2.432  2.3309  1.0859 -0.1528
 4515TIP3    H213510   5.622   5.393   2.495 -2.3131 -0.7865  0.1399
 4516TIP3   OH213511   0.673   4.075   4.207 -0.2441 -0.0461  0.0682
 4516TIP3    H113512   0.767   4.064   4.218 -0.0076  1.7411  0.1675
 4516TIP3    H213513   0.634   4.008   4.263  0.9102 -2.5567 -1.9062
 4517TIP3   OH213514   1.516   3.523   2.254  0.1071  0.3308  0.5153
 4517TIP3    H113515   1.577   3.572   2.199  1.4451 -2.9177 -1.1466
 4517TIP3    H213516   1.468   3.467   2.193 -3.3527  1.3899  1.9817
 4518TIP3   OH213517   6.379   2.179   3.700 -0.1338 -0.5206  0.5054
 4518TIP3    H113518   6.442   2.115   3.665 -0.5996 -0.0900 -1.2553
 4518TIP3    H213519   6.301   2.166   3.646 -0.4311  1.1474  0.4792
 4519TIP3   OH213520   3.394   4.951   1.642 -0.3285  0.2436 -0.0890
 4519TIP3    H113521   3.369   5.021   1.701  0.4918  0.3714  0.1170
 4519TIP3    H213522   3.479   4.920   1.675 -0.6106 -0.7550 -0.2495
 4520TIP3   OH213523   2.184   1.908   2.974  0.0180 -0.3335 -0.2901
 4520TIP3    H113524   2.253   1.970   2.997  1.3824 -1.8218 -0.1886
 4520TIP3    H213525   2.112   1.930   3.033  1.2554 -0.2087  1.2606
 4521TIP3   OH213526   2.284   5.852   1.604 -0.2042  0.3335 -0.0206
 4521TIP3    H113527   2.267   5.876   1.695 -1.0657 -0.7954  0.1270
 4521TIP3    H213528   2.323   5.765   1.609 -0.3926  0.2022 -0.7353
 4522TIP3   OH213529   1.874   2.375   1.321  0.3128 -0.2480 -0.1050
 4522TIP3    H113530   1.799   2.410   1.273 -1.5267  1.3277  3.4691
 4522TIP3    H213531   1.840   2.296   1.364  1.7395 -1.3676 -0.9743
 4523TIP3   OH213532   0.353   0.925   4.715  0.2898  0.4504  0.6696
 4523TIP3    H113533   0.308   0.870   4.779  1.8808 -0.6695  0.8874
 4523TIP3    H213534   0.361   0.869   4.637  1.5300  0.5226  0.7375
 4524TIP3   OH213535   3.015   2.022   0.554 -0.1190 -0.0073 -0.0057
 4524TIP3    H113536   3.099   1.997   0.591  0.1761  0.7765 -0.1318
 4524TIP3    H213537   3.004   1.965   0.478  0.1902 -0.2669  0.1436
 4525TIP3   OH213538   6.062   6.297   2.182  0.1324  0.6092 -0.1090
 4525TIP3    H113539   5.981   6.245   2.187 -0.8381  2.0581 -0.1618
 4525TIP3    H213540   6.044   6.362   2.114  0.5995  2.1947  1.2314
 4526TIP3   OH213541   6.059   3.287   4.516 -0.5918  0.1438 -0.3771
 4526TIP3    H113542   6.137   3.238   4.491 -0.9795  0.3958 -2.2375
 4526TIP3    H213543   6.091   3.356   4.573  0.4501 -0.1402 -0.5962
 4527TIP3   OH213544   2.125   5.550   0.378  0.2047  0.7117 -0.3092
 4527TIP3    H113545   2.059   5.602   0.331 -0.3992 -0.2322 -0.5368
 4527TIP3    H213546   2.074   5.493   0.436  0.8614  0.4978  0.0721
 4528TIP3   OH213547   2.114   1.118   0.830 -0.3336  0.8571 -0.0914
 4528TIP3    H113548   2.022   1.096   0.813  0.0966 -1.3503  0.2022
 4528TIP3    H213549   2.110   1.186   0.897 -1.7446  0.6755  0.0521
 4529TIP3   OH213550   6.462   1.083   1.467  0.2193  0.0111  0.4209
 4529TIP3    H113551   6.401   1.142   1.423 -0.4735 -1.5892 -0.8864
 4529TIP3    H213552   6.543   1.090   1.416 -1.0645 -3.0750 -2.4025
 4530TIP3   OH213553   0.808   3.144   4.674 -0.2979  0.6351  0.0701
 4530TIP3    H113554   0.858   3.114   4.598  0.5349 -0.6695  1.0950
 4530TIP3    H213555   0.875   3.169   4.738 -0.9671  0.2868  0.9209
 4531TIP3   OH213556   2.459   5.753   3.963  0.5738  0.1005 -0.1971
 4531TIP3    H113557   2.415   5.707   3.892  0.0220  0.0158  0.1974
 4531TIP3    H213558   2.438   5.846   3.948  1.3376  0.1912 -0.7496
 4532TIP3   OH213559   1.821   4.263   2.089  0.4124 -0.6861 -0.4691
 4532TIP3    H113560   1.867   4.304   2.162  1.1644 -1.6487 -0.3888
 4532TIP3    H213561   1.828   4.169   2.105 -0.7208 -0.8863 -0.9978
 4533TIP3   OH213562   5.925   0.377   3.708  0.3789  0.0736 -0.2945
 4533TIP3    H113563   5.893   0.287   3.716  1.0761 -0.0380  1.9247
 4533TIP3    H213564   5.961   0.382   3.619 -2.2157 -0.9320 -1.4828
 4534TIP3   OH213565   0.556   1.935   4.192 -0.5183 -0.2547  0.0899
 4534TIP3    H113566   0.471   1.967   4.222 -0.4229 -0.7871  0.9607
 4534TIP3    H213567   0.618   2.005   4.214 -0.8722  0.6488 -1.6021
 4535TIP3   OH213568   2.852   5.452   3.716 -0.0284  0.2910  0.3191
 4535TIP3    H113569   2.929   5.404   3.747 -0.7293 -0.4964  0.9011
 4535TIP3    H213570   2.778   5.405   3.755 -0.7725  1.4045  0.2795
 4536TIP3   OH213571   1.837   6.447   4.378  0.1741  0.4065  0.1027
 4536TIP3    H113572   1.924   6.486   4.386 -0.0299  1.0601 -0.7274
 4536TIP3    H213573   1.845   6.361   4.420  1.1457  0.5696  0.2655
 4537TIP3   OH213574   5.525   4.225   4.034  0.2829  0.0420 -0.0414
 4537TIP3    H113575   5.588   4.191   4.098  1.7481  1.0018 -0.9375
 4537TIP3    H213576   5.572   4.225   3.951 -1.3010 -0.3216 -0.9799
 4538TIP3   OH213577   2.019   6.595   4.671 -0.0904 -0.0474  0.1528
 4538TIP3    H113578   2.074   6.575   4.595  0.6945  1.1586  0.3718
 4538TIP3    H213579   2.081   6.611   4.742 -0.7313  0.8073  0.5444
 4539TIP3   OH213580   3.326   5.342   3.882  0.4011 -0.0654  0.3728
 4539TIP3    H113581   3.347   5.381   3.798 -2.4160 -1.7321 -1.2688
 4539TIP3    H213582   3.264   5.403   3.923 -1.3615 -1.0537 -0.6756
 4540TIP3   OH213583   6.573   6.297   5.062  0.0405  0.5701  0.5403
 4540TIP3    H113584   6.489   6.288   5.018  0.1045 -1.6008  0.7604
 4540TIP3    H213585   6.560   6.368   5.124 -2.0607 -0.5311  1.4535
 4541TIP3   OH213586   0.540   1.530   4.901  0.2839 -0.2559  0.1563
 4541TIP3    H113587   0.592   1.588   4.846  0.3932 -0.4288  0.0746
 4541TIP3    H213588   0.569   1.442   4.877  2.5519 -0.2893  2.6104
 4542TIP3   OH213589   4.846   0.453   4.547 -0.1546  0.3602  0.2804
 4542TIP3    H113590   4.850   0.421   4.457 -0.6931  3.2170 -0.8686
 4542TIP3    H213591   4.912   0.522   4.551 -0.2132  0.3769  2.0780
 4543TIP3   OH213592   2.876   3.273   0.635 -0.4647 -0.0626  0.0092
 4543TIP3    H113593   2.791   3.310   0.610 -0.2682  0.5301  0.1979
 4543TIP3    H213594   2.905   3.225   0.558 -0.9761 -0.2853 -0.0513
 4544TIP3   OH213595   1.626   3.524   1.798 -0.2071  0.2892 -0.0039
 4544TIP3    H113596   1.674   3.606   1.808 -1.4152  1.0477 -0.1764
 4544TIP3    H213597   1.539   3.543   1.832 -0.5592 -0.8817 -0.2014
 4545TIP3   OH213598   6.809   2.500   5.293 -0.1651 -0.4379  0.1038
 4545TIP3    H113599   6.872   2.428   5.280 -1.2527 -1.6464  1.2274
 4545TIP3    H213600   6.859   2.566   5.341  0.7792 -0.5349 -0.7038
 4546TIP3   OH213601   2.964   6.811   2.991 -0.1203  0.2017  0.5319
 4546TIP3    H113602   2.959   6.767   3.077  0.6498 -2.3299 -0.6244
 4546TIP3    H213603   2.883   6.785   2.947  1.0819 -1.5504 -0.7799
 4547TIP3   OH213604   3.846   2.382   1.814 -0.0215  0.2955 -0.3839
 4547TIP3    H113605   3.901   2.331   1.874  0.2353  0.1753 -0.7121
 4547TIP3    H213606   3.779   2.320   1.786  0.6283 -0.0579 -1.2327
 4548TIP3   OH213607   2.376   4.314   3.771  0.6563 -0.1489 -0.6690
 4548TIP3    H113608   2.404   4.238   3.822  0.2439  0.0597 -0.1318
 4548TIP3    H213609   2.293   4.341   3.810  1.6778  1.7011  0.3267
 4549TIP3   OH213610   3.916   0.526   2.992 -0.4245  0.2273 -0.1156
 4549TIP3    H113611   3.878   0.473   3.063 -0.4553 -0.6582 -0.7815
 4549TIP3    H213612   3.873   0.494   2.913  0.6770  0.1974 -0.7155
 4550TIP3   OH213613   1.206   5.391   4.462  0.2041 -0.1491  0.0583
 4550TIP3    H113614   1.297   5.377   4.437  0.7687  0.6214  1.5475
 4550TIP3    H213615   1.160   5.405   4.379  1.4193 -0.5775 -0.7187
 4551TIP3   OH213616   6.010   0.024   1.361  0.3496 -0.5814 -0.2847
 4551TIP3    H113617   5.923   0.063   1.373  1.1570  0.5993  2.2785
 4551TIP3    H213618   5.995  -0.070   1.371 -0.6678 -0.4199 -0.1257
 4552TIP3   OH213619   2.094   0.933   4.907 -0.0597 -0.7306 -0.3194
 4552TIP3    H113620   2.033   1.007   4.911 -1.8859 -2.2108  1.2296
 4552TIP3    H213621   2.146   0.941   4.988 -0.4304 -1.2403 -0.0236
 4553TIP3   OH213622   3.445   0.366   1.006 -0.6714 -0.4531  0.2078
 4553TIP3    H113623   3.472   0.338   0.919 -0.5942 -0.7245  0.3172
 4553TIP3    H213624   3.355   0.398   0.994  0.0286  1.4464 -0.3570
 4554TIP3   OH213625   4.551   4.256   4.258  0.0059 -0.0285 -0.3672
 4554TIP3    H113626   4.472   4.283   4.212 -0.9379 -0.5645  0.8740
 4554TIP3    H213627   4.581   4.178   4.212 -0.0083  0.3525 -1.0294
 4555TIP3   OH213628   4.320   3.116   5.495 -0.5317 -0.0820 -0.8650
 4555TIP3    H113629   4.332   3.209   5.473  1.4460  0.0724  0.6443
 4555TIP3    H213630   4.319   3.072   5.410  2.4666  0.9269 -1.5588
 4556TIP3   OH213631   6.421   4.113   1.521  0.2964  0.4000 -0.5981
 4556TIP3    H113632   6.363   4.039   1.502  0.8206 -0.7958  2.0426
 4556TIP3    H213633   6.363   4.189   1.522 -0.9148 -0.5031  0.1456
 4557TIP3   OH213634   1.030   5.307   1.960 -0.4317 -0.2622  0.1268
 4557TIP3    H113635   1.126   5.302   1.964 -0.3751  1.2367  1.6844
 4557TIP3    H213636   1.002   5.286   2.049 -1.5751 -0.6775 -0.3173
 4558TIP3   OH213637   4.942   0.569   1.013 -0.2770 -0.1346  0.1914
 4558TIP3    H113638   4.946   0.476   1.034  0.3761 -0.1817 -0.1025
 4558TIP3    H213639   4.852   0.595   1.032 -0.9375 -1.1983 -1.3240
 4559TIP3   OH213640   4.088   3.458   4.780  0.0725 -0.1011 -0.1900
 4559TIP3    H113641   4.094   3.373   4.737  1.3736  0.1154 -0.4832
 4559TIP3    H213642   4.026   3.508   4.727  0.0548 -0.5395 -0.5821
 4560TIP3   OH213643   5.712   3.314   0.226  0.1345 -0.6879 -0.3796
 4560TIP3    H113644   5.719   3.224   0.258  1.2697 -1.1865 -1.8787
 4560TIP3    H213645   5.802   3.345   0.221 -0.2978  0.9904  1.2132
 4561TIP3   OH213646   6.750   3.471   0.573  0.0565 -0.0492  0.5299
 4561TIP3    H113647   6.775   3.553   0.615 -1.3738  0.8145 -0.2389
 4561TIP3    H213648   6.656   3.462   0.591 -0.1366 -0.7217 -0.6765
 4562TIP3   OH213649   1.926   2.014   1.455 -0.1324  0.1977  0.7769
 4562TIP3    H113650   1.885   1.931   1.480 -3.1178  1.7279  1.5499
 4562TIP3    H213651   1.880   2.040   1.375  0.1290  1.4768  1.0153
 4563TIP3   OH213652   7.121   5.733   3.533  0.2199  0.1684 -0.7226
 4563TIP3    H113653   7.040   5.707   3.491  0.5672  0.3750 -1.5492
 4563TIP3    H213654   7.118   5.693   3.619 -2.2011  2.6818  0.5120
 4564TIP3   OH213655   5.250   3.578   5.787  0.1835  0.1469  0.1588
 4564TIP3    H113656   5.184   3.565   5.856 -0.4236 -0.9382 -0.5836
 4564TIP3    H213657   5.204   3.557   5.706  1.5393 -1.0870 -0.3504
 4565TIP3   OH213658   6.714   3.090   3.784  0.0516 -0.2264  0.1047
 4565TIP3    H113659   6.622   3.065   3.790 -0.1969  0.8774  1.3050
 4565TIP3    H213660   6.741   3.060   3.697 -1.9303  1.0304 -1.0330
 4566TIP3   OH213661   7.129   3.573   1.097  0.0894  0.4444 -0.5600
 4566TIP3    H113662   7.038   3.580   1.070  0.2057  2.2553 -0.6219
 4566TIP3    H213663   7.140   3.644   1.161  0.9742 -0.9370  0.8913
 4567TIP3   OH213664   4.621   3.666   0.176  0.0917 -0.1992 -0.4162
 4567TIP3    H113665   4.568   3.586   0.173 -1.2456  0.6468 -0.0432
 4567TIP3    H213666   4.702   3.639   0.220 -1.2194 -0.8924  1.7519
 4568TIP3   OH213667   3.437   6.043   4.737  0.6083 -0.0331  0.1221
 4568TIP3    H113668   3.509   6.107   4.741  0.6419 -0.0194 -0.5403
 4568TIP3    H213669   3.442   5.996   4.820 -0.5385  2.0089  1.4376
 4569TIP3   OH213670   5.405   6.714   2.980  0.3290 -0.1867 -0.2320
 4569TIP3    H113671   5.406   6.790   3.039  0.8165  1.3212 -2.0562
 4569TIP3    H213672   5.487   6.722   2.931  1.4233 -3.1138  0.8826
 4570TIP3   OH213673   4.495   3.398   2.171 -0.2585  0.2489 -1.1562
 4570TIP3    H113674   4.565   3.407   2.105  1.1311 -2.5921 -0.2554
 4570TIP3    H213675   4.483   3.303   2.179 -1.4694  0.5484  1.5740
 4571TIP3   OH213676   2.729   4.344   1.899 -0.0184 -0.2858  0.1425
 4571TIP3    H113677   2.782   4.318   1.823 -0.8762  2.4123 -1.5410
 4571TIP3    H213678   2.642   4.310   1.880 -0.0328 -0.3955  0.4035
 4572TIP3   OH213679   3.498   5.068   3.464  0.6373  0.4280 -0.0917
 4572TIP3    H113680   3.418   5.121   3.474 -0.2889 -0.8361 -0.5331
 4572TIP3    H213681   3.546   5.082   3.546 -1.3302 -0.8203  1.3767
 4573TIP3   OH213682   5.188   2.366   2.010 -0.0810  0.5613 -0.1339
 4573TIP3    H113683   5.278   2.398   2.004  0.4639 -1.1160 -1.6302
 4573TIP3    H213684   5.137   2.424   1.954 -0.4905  2.9998  2.4987
 4574TIP3   OH213685   1.630   0.408   2.431  0.0787  0.0702  0.1023
 4574TIP3    H113686   1.598   0.470   2.496 -0.8865  1.2719 -1.4782
 4574TIP3    H213687   1.722   0.432   2.419 -0.5313  1.9479 -1.2496
 4575TIP3   OH213688   2.275   3.882   0.505 -0.1505  0.1401  0.0958
 4575TIP3    H113689   2.328   3.827   0.446  0.0200  0.5083 -0.0975
 4575TIP3    H213690   2.272   3.967   0.461 -0.1652  0.3699  0.5423
 4576TIP3   OH213691   5.476   0.253   4.615  0.3240 -0.0332 -0.0167
 4576TIP3    H113692   5.434   0.298   4.689 -0.4554 -1.5979  0.5440
 4576TIP3    H213693   5.551   0.209   4.654  0.6639  0.1759 -0.4256
 4577TIP3   OH213694   2.518   4.939   1.349  0.1901 -0.2734  0.5037
 4577TIP3    H113695   2.428   4.965   1.373  1.0018  0.9328  2.5328
 4577TIP3    H213696   2.517   4.844   1.350 -1.2003 -0.2888 -0.0942
 4578TIP3   OH213697   6.946   3.258   0.536 -0.0435  0.2362  0.6991
 4578TIP3    H113698   6.892   3.204   0.477  0.2937 -1.0434  1.5328
 4578TIP3    H213699   6.887   3.329   0.563 -0.8430 -0.2897  0.3939
 4579TIP3   OH213700   0.440   6.412   1.427 -0.2234 -0.3067  0.4916
 4579TIP3    H113701   0.375   6.347   1.400 -2.0729  0.9530  1.6769
 4579TIP3    H213702   0.478   6.444   1.345 -0.4586 -1.6835 -0.1760
 4580TIP3   OH213703   6.166   0.928   2.137 -0.4740  0.4003 -0.5263
 4580TIP3    H113704   6.133   1.010   2.101  1.0091  0.7653 -1.1013
 4580TIP3    H213705   6.195   0.878   2.061 -1.7864 -0.8847 -0.2296
 4581TIP3   OH213706   1.106   6.592   5.776 -0.3111 -0.1977 -0.0008
 4581TIP3    H113707   1.198   6.565   5.778 -0.1315  0.4346  0.4914
 4581TIP3    H213708   1.102   6.660   5.708 -0.0257  1.1194  1.2631
 4582TIP3   OH213709   2.179   1.136   0.573 -0.0361  0.1447  0.7177
 4582TIP3    H113710   2.187   1.098   0.660  0.9036  0.6855  0.8729
 4582TIP3    H213711   2.245   1.205   0.570 -0.4640  0.5324 -0.2136
 4583TIP3   OH213712   1.919   0.810   2.329  0.3089 -0.1476 -0.1466
 4583TIP3    H113713   2.011   0.821   2.304 -0.0009  0.5407 -1.0486
 4583TIP3    H213714   1.873   0.881   2.284 -0.5077  0.2446  1.2340
 4584TIP3   OH213715   4.776   0.578   3.703 -0.5966 -0.3487  0.4087
 4584TIP3    H113716   4.861   0.568   3.660  0.1115 -0.6651  1.8288
 4584TIP3    H213717   4.766   0.673   3.714 -0.4180 -0.3141  0.2821
 4585TIP3   OH213718   7.098   1.748   3.111 -0.1601 -0.6321 -0.1357
 4585TIP3    H113719   7.152   1.776   3.184  0.7278 -3.4448  0.4299
 4585TIP3    H213720   7.024   1.702   3.152 -0.2728 -1.2298 -0.9814
 4586TIP3   OH213721   2.769   4.654   5.303 -0.4576 -0.2299  0.0375
 4586TIP3    H113722   2.810   4.570   5.284  1.6464  0.6590  0.3939
 4586TIP3    H213723   2.678   4.632   5.323  0.3983 -2.6263  1.7512
 4587TIP3   OH213724   5.986   5.645   2.164  0.2515 -0.8077 -0.0259
 4587TIP3    H113725   5.995   5.570   2.104  3.0699  0.0618 -0.8604
 4587TIP3    H213726   6.042   5.622   2.238  2.5433  1.0640 -1.0535
 4588TIP3   OH213727   2.672   6.015   0.757  0.4757 -0.1069 -0.5295
 4588TIP3    H113728   2.732   5.970   0.697  0.5790 -1.0714  0.2723
 4588TIP3    H213729   2.587   6.011   0.713  0.3627 -1.6107 -0.2531
 4589TIP3   OH213730   0.796   1.267   4.022  0.1162  0.1131  0.5856
 4589TIP3    H113731   0.857   1.197   4.045 -1.8708 -1.5323  1.1120
 4589TIP3    H213732   0.710   1.228   4.032 -1.1043  2.8119  1.4149
 4590TIP3   OH213733   4.455   1.131   2.615 -0.4420 -0.4972 -0.2604
 4590TIP3    H113734   4.481   1.077   2.689  0.7458  0.9797  0.4597
 4590TIP3    H213735   4.359   1.129   2.616 -0.4590 -0.2484  1.5528
 4591TIP3   OH213736   1.830   0.119   4.844  0.1737  0.2553  0.3850
 4591TIP3    H113737   1.817   0.208   4.877 -0.8783  0.8104 -1.4067
 4591TIP3    H213738   1.916   0.121   4.802 -0.2572  0.7105 -0.4929
 4592TIP3   OH213739   6.862   1.154   5.070  0.2667 -0.6817 -0.4263
 4592TIP3    H113740   6.809   1.232   5.083  0.2053 -0.8269  0.2121
 4592TIP3    H213741   6.950   1.187   5.050  0.7489 -0.4159  1.8588
 4593TIP3   OH213742   6.240   0.657   0.899  0.1909  0.3992 -0.0021
 4593TIP3    H113743   6.194   0.721   0.954  0.2685  0.7438 -0.3311
 4593TIP3    H213744   6.189   0.577   0.908  0.2703  0.4162  0.6658
 4594TIP3   OH213745   1.954   0.218   1.063 -0.0253 -0.1832  0.6016
 4594TIP3    H113746   1.960   0.216   0.967  1.1922  1.5538  0.6059
 4594TIP3    H213747   1.878   0.163   1.083 -1.1821  0.5454 -1.4445
 4595TIP3   OH213748   3.750   2.929   5.277  0.1106 -0.4388  1.2205
 4595TIP3    H113749   3.735   2.905   5.369 -1.0281 -0.3168  1.0740
 4595TIP3    H213750   3.696   2.867   5.227 -1.0797  0.9378  0.7414
 4596TIP3   OH213751   6.521   4.716   0.030 -0.0143  0.3022  0.6365
 4596TIP3    H113752   6.536   4.629   0.068 -1.7596 -0.7289 -0.8890
 4596TIP3    H213753   6.450   4.752   0.083  0.1377  0.4697  0.7289
 4597TIP3   OH213754   6.149   4.974   1.964 -0.2532  0.2864 -0.2683
 4597TIP3    H113755   6.084   5.037   1.934  0.2728  0.5088 -0.9536
 4597TIP3    H213756   6.191   4.942   1.884  0.5056  0.1763  0.1670
 4598TIP3   OH213757   2.852   2.544   1.978 -0.5878 -0.1756  0.5910
 4598TIP3    H113758   2.820   2.508   1.895  0.3973 -0.4437  0.3168
 4598TIP3    H213759   2.822   2.481   2.045  0.1090 -0.8897  0.2436
 4599TIP3   OH213760   1.784   3.297   0.248 -0.0756 -0.0548  0.0369
 4599TIP3    H113761   1.819   3.338   0.327 -0.5845  0.5921 -0.0597
 4599TIP3    H213762   1.691   3.321   0.248 -0.1901 -0.4824 -0.4825
 4600TIP3   OH213763   4.042   3.360   5.530  0.3024 -0.4008 -0.4312
 4600TIP3    H113764   4.018   3.271   5.505  0.4437 -0.3422 -0.7827
 4600TIP3    H213765   3.960   3.401   5.558  0.1630 -0.5045 -0.6880
 4601TIP3   OH213766   1.735   6.193   2.468 -0.3095 -0.6983 -0.0961
 4601TIP3    H113767   1.676   6.214   2.541  0.0907 -0.9651  0.3073
 4601TIP3    H213768   1.754   6.277   2.427 -0.8062 -0.5856 -0.1022
 4602TIP3   OH213769   5.826   5.968   5.068  0.0372  0.7672  0.0314
 4602TIP3    H113770   5.825   6.064   5.066  0.9101  0.7712 -0.8151
 4602TIP3    H213771   5.771   5.941   4.995  1.4568  0.6610 -1.0475
 4603TIP3   OH213772   3.286   3.035   3.398  0.2523 -0.0898  0.2295
 4603TIP3    H113773   3.283   2.957   3.343  0.1020  0.3139 -0.3378
 4603TIP3    H213774   3.372   3.031   3.440  0.2959 -0.4908  0.1017
 4604TIP3   OH213775   4.807   5.928   0.156  0.3499 -0.2128  0.7829
 4604TIP3    H113776   4.834   6.019   0.166  1.2734 -0.4114  0.2193
 4604TIP3    H213777   4.888   5.878   0.163  0.5958 -0.6851 -3.3362
 4605TIP3   OH213778   6.726   5.379   5.567 -0.0166 -0.0382  0.2438
 4605TIP3    H113779   6.630   5.376   5.569 -0.1052  1.4057 -0.4393
 4605TIP3    H213780   6.746   5.453   5.510  1.5344 -1.5660 -1.2923
 4606TIP3   OH213781   2.010   1.965   2.580 -0.2274  0.1551 -0.2703
 4606TIP3    H113782   1.998   1.939   2.488 -0.9760 -0.9817  0.1246
 4606TIP3    H213783   2.076   1.904   2.613 -2.4734 -1.8509  0.8520
 4607TIP3   OH213784   4.933   2.507   2.503 -0.1394 -0.0380  0.1440
 4607TIP3    H113785   4.909   2.590   2.462 -0.9387  0.1913  1.0242
 4607TIP3    H213786   4.879   2.503   2.582  1.6327 -0.2425  1.4209
 4608TIP3   OH213787   3.078   3.721   5.861 -0.2113 -0.2029 -0.0281
 4608TIP3    H113788   3.116   3.785   5.801 -0.4285 -0.3346 -0.3140
 4608TIP3    H213789   3.026   3.772   5.922  0.7959  0.0271  0.6664
 4609TIP3   OH213790   5.129   6.747   1.843 -0.0157  0.1507  0.0490
 4609TIP3    H113791   5.166   6.700   1.768 -0.9120 -0.2488 -0.1512
 4609TIP3    H213792   5.175   6.830   1.844  0.8797 -0.3248 -0.2044
 4610TIP3   OH213793   6.778   0.421   5.268 -0.4089 -0.1988 -0.0078
 4610TIP3    H113794   6.792   0.500   5.320 -0.6024 -0.7560  0.9285
 4610TIP3    H213795   6.847   0.422   5.202  0.4536  0.0560  0.8681
 4611TIP3   OH213796   1.601   6.705   0.990  0.6552  0.0498 -0.3069
 4611TIP3    H113797   1.567   6.683   0.904 -0.1547 -0.2693  0.0894
 4611TIP3    H213798   1.617   6.800   0.986 -1.6259  0.5008 -0.0640
 4612TIP3   OH213799   0.294   6.116   3.604 -0.3256 -0.4945 -0.1292
 4612TIP3    H113800   0.244   6.083   3.679 -2.0514 -0.8169 -1.3579
 4612TIP3    H213801   0.260   6.067   3.529  1.4516 -0.2918 -1.1249
 4613TIP3   OH213802   1.079   3.006   2.298  1.0369 -0.0621 -0.0966
 4613TIP3    H113803   1.150   2.945   2.281  1.9859 -0.2875  3.6493
 4613TIP3    H213804   1.087   3.026   2.392 -0.7591  3.8702 -0.5655
 4614TIP3   OH213805   6.554   5.218   0.578 -0.2855  0.1934 -0.1811
 4614TIP3    H113806   6.562   5.227   0.483 -2.4497  1.5843 -0.3059
 4614TIP3    H213807   6.594   5.298   0.613 -0.8512  0.4147 -0.0284
 4615TIP3   OH213808   4.175   1.014   2.393  0.3245 -0.0754  0.2714
 4615TIP3    H113809   4.157   1.066   2.471 -0.7670 -0.3438  0.2201
 4615TIP3    H213810   4.103   0.951   2.390  0.8853 -0.6912 -0.4214
 4616TIP3   OH213811   3.283   2.212   2.952  0.0940 -0.0035  0.3625
 4616TIP3    H113812   3.360   2.240   3.002  0.3894  2.6552 -1.3459
 4616TIP3    H213813   3.319   2.163   2.878  0.4216  2.3413 -1.1623
 4617TIP3   OH213814   2.378   1.793   5.318 -0.0706 -0.2175 -0.0134
 4617TIP3    H113815   2.347   1.881   5.300  1.4948  0.1540 -1.0504
 4617TIP3    H213816   2.439   1.804   5.392  0.1675 -0.4229 -0.1793
 4618TIP3   OH213817   2.059   1.286   3.671 -0.1450 -0.7756  0.3882
 4618TIP3    H113818   2.137   1.296   3.616 -1.0005 -1.4891 -1.0026
 4618TIP3    H213819   2.089   1.233   3.745  0.9380 -0.0962  0.4698
 4619TIP3   OH213820   5.285  -0.026   4.304 -0.0825 -0.3547  0.6320
 4619TIP3    H113821   5.258   0.046   4.359 -0.2964 -0.5862  0.8316
 4619TIP3    H213822   5.287   0.010   4.215  0.5643  0.1003  0.8201
 4620TIP3   OH213823   5.503   4.405   3.663  0.5353  0.3439  0.4676
 4620TIP3    H113824   5.409   4.416   3.678  0.1274 -3.9067  2.5472
 4620TIP3    H213825   5.509   4.349   3.586  1.4014  0.9509  0.0760
 4621TIP3   OH213826   4.673   2.216   1.517 -0.2459  0.4538  0.1020
 4621TIP3    H113827   4.703   2.306   1.509 -1.9710  1.0279 -0.2279
 4621TIP3    H213828   4.692   2.193   1.609  4.0717 -0.3870 -0.7712
 4622TIP3   OH213829   6.303   3.039   4.761 -0.1567  0.0221 -0.4484
 4622TIP3    H113830   6.331   2.957   4.800 -2.1009 -1.2826 -1.6302
 4622TIP3    H213831   6.350   3.044   4.678  0.0266  0.1428 -0.3371
 4623TIP3   OH213832   0.745   2.541   2.895 -0.2486 -0.7577  0.0243
 4623TIP3    H113833   0.806   2.573   2.829 -0.1591 -0.0891  0.4234
 4623TIP3    H213834   0.674   2.500   2.845  0.5905 -1.6798 -0.4435
 4624TIP3   OH213835   6.251   4.694   4.428 -0.0185 -0.6168 -0.0821
 4624TIP3    H113836   6.181   4.652   4.378 -0.6941 -0.9988  1.1434
 4624TIP3    H213837   6.212   4.774   4.461  0.1099 -0.8241  0.5955
 4625TIP3   OH213838   6.777   4.725   0.552 -0.1877  0.1747  0.2185
 4625TIP3    H113839   6.783   4.729   0.457  1.2285 -1.1831  0.2128
 4625TIP3    H213840   6.777   4.816   0.580 -0.4438  0.5867 -1.0594
 4626TIP3   OH213841   0.056   6.482   3.539  0.2192 -0.0681  0.2028
 4626TIP3    H113842  -0.027   6.525   3.517  0.4210 -0.4348 -1.4076
 4626TIP3    H213843   0.050   6.396   3.497  1.6264  0.1072 -0.4155
 4627TIP3   OH213844   7.101   2.603   5.678  0.0759 -0.3093  0.7290
 4627TIP3    H113845   7.113   2.625   5.586 -1.3877  1.2922  0.8732
 4627TIP3    H213846   7.059   2.516   5.676 -0.0767 -0.2275 -0.1153
 4628TIP3   OH213847   0.014   5.791   2.044  0.2406  0.6733  0.1786
 4628TIP3    H113848   0.069   5.760   1.972  0.1701  1.5429 -0.2582
 4628TIP3    H213849  -0.050   5.849   2.003 -1.3467 -0.6837  0.6049
 4629TIP3   OH213850   6.887   1.693   2.705 -0.2632  0.1757 -0.1256
 4629TIP3    H113851   6.897   1.614   2.652 -0.9512 -0.4608  0.6660
 4629TIP3    H213852   6.816   1.741   2.664  0.7488  0.8526 -1.1447
 4630TIP3   OH213853   5.515   4.960   5.101  0.7776 -0.5997 -0.1288
 4630TIP3    H113854   5.604   4.984   5.076  0.2190 -1.5203 -3.3599
 4630TIP3    H213855   5.522   4.939   5.195  3.2929  2.1040  0.4268
 4631TIP3   OH213856   2.172   1.772   2.681 -0.1062  0.3108 -0.4469
 4631TIP3    H113857   2.136   1.687   2.656  0.6160  0.1397 -0.9688
 4631TIP3    H213858   2.185   1.766   2.776  1.4862 -0.8120 -0.6793
 4632TIP3   OH213859   5.655   2.166   5.876  0.6654 -0.2504  0.4499
 4632TIP3    H113860   5.636   2.124   5.793  0.0509  0.3466  0.2741
 4632TIP3    H213861   5.575   2.154   5.928  0.9168 -0.3255  0.8251
 4633TIP3   OH213862   6.044   5.234   4.842 -0.3174 -0.1917  0.3205
 4633TIP3    H113863   6.007   5.153   4.806  0.9010  1.0356 -4.3377
 4633TIP3    H213864   5.988   5.303   4.806 -0.1909  1.2013  2.6298
 4634TIP3   OH213865   6.635   3.812   1.699  0.3988  0.6600 -0.1158
 4634TIP3    H113866   6.585   3.856   1.766 -0.7708  0.3533 -0.7583
 4634TIP3    H213867   6.570   3.782   1.635  1.2216 -1.1989 -0.1550
 4635TIP3   OH213868   2.869   4.651   2.257 -0.3038 -0.9053 -0.0592
 4635TIP3    H113869   2.831   4.578   2.208  1.5799 -1.5729 -0.6461
 4635TIP3    H213870   2.955   4.618   2.286  0.1772  0.7406  0.5281
 4636TIP3   OH213871   2.770   4.871   4.437 -0.7304 -0.1671 -0.6695
 4636TIP3    H113872   2.726   4.787   4.442 -0.4514 -0.2880 -0.2174
 4636TIP3    H213873   2.837   4.868   4.505 -0.1605  0.0922 -1.2061
 4637TIP3   OH213874   1.419   3.747   0.059 -0.1743  0.1234 -0.0795
 4637TIP3    H113875   1.495   3.711   0.013 -0.7045 -0.1040 -0.7997
 4637TIP3    H213876   1.453   3.822   0.108 -0.0322  2.1202 -2.9768
 4638TIP3   OH213877   0.309   3.009   2.547 -0.1440 -0.0410 -0.2718
 4638TIP3    H113878   0.274   3.091   2.583 -0.2132  0.4854 -1.4951
 4638TIP3    H213879   0.238   2.946   2.557  0.1640 -0.1691  1.3578
 4639TIP3   OH213880   6.611   5.335   4.142 -0.6065  0.2088 -0.1074
 4639TIP3    H113881   6.617   5.307   4.234  0.3103  1.5960  0.2856
 4639TIP3    H213882   6.540   5.282   4.106  1.4489 -3.1947  0.3359
 4640TIP3   OH213883   6.820   3.680   5.191  0.3329  0.3590  0.2114
 4640TIP3    H113884   6.860   3.657   5.107 -0.7286  2.2040 -0.8688
 4640TIP3    H213885   6.820   3.598   5.241 -0.1576 -1.1260 -2.0823
 4641TIP3   OH213886   5.718   3.211   1.592  0.4825  0.3061 -0.1135
 4641TIP3    H113887   5.756   3.293   1.559  0.2936  0.4055 -0.0862
 4641TIP3    H213888   5.624   3.224   1.585  0.3781  0.8567  1.6496
 4642TIP3   OH213889   5.837   4.854   1.970 -0.1386 -0.4340 -0.6897
 4642TIP3    H113890   5.799   4.811   1.893  1.5016 -1.0071 -1.2210
 4642TIP3    H213891   5.808   4.801   2.043 -2.0086  0.3131 -0.8277
 4643TIP3   OH213892   6.754   3.652   4.515 -0.6104 -0.2511 -0.1578
 4643TIP3    H113893   6.783   3.649   4.424 -0.2339  0.1497 -0.0590
 4643TIP3    H213894   6.816   3.595   4.562  1.0403  1.8063  0.3045
 4644TIP3   OH213895   6.026   1.796   5.837  0.1591  0.5928 -0.3990
 4644TIP3    H113896   6.029   1.826   5.747  0.3114  2.5758  0.2257
 4644TIP3    H213897   5.972   1.861   5.882  0.5810 -0.0238  1.0600
 4645TIP3   OH213898   2.787   4.316   1.407 -0.5707  0.2106  0.1634
 4645TIP3    H113899   2.708   4.265   1.426 -0.6292 -0.0090 -0.6503
 4645TIP3    H213900   2.848   4.253   1.370 -0.8998  0.8342 -1.5648
 4646TIP3   OH213901   2.595   3.512   0.986 -0.5836  0.2188  0.4053
 4646TIP3    H113902   2.641   3.525   1.069 -0.1518  0.9825  0.0602
 4646TIP3    H213903   2.638   3.437   0.946  1.5517  1.9429 -0.6845
 4647TIP3   OH213904   3.655   0.787   2.685 -0.1060  0.5336 -0.3489
 4647TIP3    H113905   3.596   0.740   2.625  0.6065  0.4681 -1.0146
 4647TIP3    H213906   3.598   0.819   2.754 -0.8510  0.0459 -0.7248
 4648TIP3   OH213907   4.816   0.778   4.633  0.4529  0.0621  0.2548
 4648TIP3    H113908   4.813   0.755   4.540  1.9103  2.2401 -0.3943
 4648TIP3    H213909   4.885   0.721   4.669  0.0910 -0.5748 -0.0280
 4649TIP3   OH213910   1.029   1.997   1.870 -0.0017  1.0371  0.5223
 4649TIP3    H113911   0.951   2.045   1.898 -0.0875  0.8108  0.6762
 4649TIP3    H213912   1.051   1.942   1.945 -1.7139 -1.4673 -0.6911
 4650TIP3   OH213913   0.266   3.319   1.870  0.0987 -0.0552  0.3129
 4650TIP3    H113914   0.359   3.304   1.851  0.2951  0.0210  1.1471
 4650TIP3    H213915   0.232   3.233   1.895 -0.3669 -0.3258 -1.1570
 4651TIP3   OH213916   1.572   2.820   4.621 -0.1723 -0.0650 -0.1719
 4651TIP3    H113917   1.660   2.808   4.584 -0.1440  0.9088 -0.4524
 4651TIP3    H213918   1.550   2.911   4.600 -1.2658 -0.3113 -0.1357
 4652TIP3   OH213919   3.182   1.662   4.682  0.0185 -0.4695  0.0062
 4652TIP3    H113920   3.235   1.632   4.608 -1.9644  2.4804 -2.9199
 4652TIP3    H213921   3.209   1.753   4.695 -1.5458 -0.1178  1.0829
 4653TIP3   OH213922   4.420   1.825   1.979  0.5191 -0.2956  0.3294
 4653TIP3    H113923   4.433   1.733   2.002 -2.3411 -0.7044  0.7215
 4653TIP3    H213924   4.329   1.829   1.949  0.7221  2.3305 -0.1631
 4654TIP3   OH213925   4.519   6.446   2.655 -0.5721  0.6949  0.2848
 4654TIP3    H113926   4.609   6.416   2.668 -0.1297  1.6974 -0.3615
 4654TIP3    H213927   4.468   6.365   2.644  0.6922  0.1246 -2.0523
 4655TIP3   OH213928   3.824   3.882   0.620 -0.6039  0.4370 -0.4417
 4655TIP3    H113929   3.802   3.920   0.705 -0.5722 -2.0269  0.7531
 4655TIP3    H213930   3.803   3.789   0.629 -0.9643  0.1597 -3.2879
 4656TIP3   OH213931   4.016   5.422   3.958 -0.5580 -0.0750 -0.0159
 4656TIP3    H113932   3.950   5.428   3.890 -0.8017 -0.9439  0.1445
 4656TIP3    H213933   3.969   5.444   4.039 -0.1593  1.4700 -0.1629
 4657TIP3   OH213934   3.823   4.322   1.703 -0.9819 -0.4182 -0.5503
 4657TIP3    H113935   3.902   4.267   1.703 -0.7278 -0.1369  1.7431
 4657TIP3    H213936   3.824   4.365   1.617  1.3929 -0.4147 -0.5885
 4658TIP3   OH213937   0.865   2.750   3.968  0.4127  0.3705  0.5695
 4658TIP3    H113938   0.827   2.668   4.000  0.3545  0.1548 -0.0355
 4658TIP3    H213939   0.794   2.791   3.918  0.8829  0.0876 -0.3569
 4659TIP3   OH213940   3.249   2.156   2.516 -0.4630 -0.3074 -0.3974
 4659TIP3    H113941   3.337   2.193   2.511 -1.1824  1.4050 -3.5092
 4659TIP3    H213942   3.256   2.071   2.473 -0.3268 -0.1271 -0.7344
 4660TIP3   OH213943   2.664   0.183   4.044  0.3850 -0.5574  0.3605
 4660TIP3    H113944   2.586   0.135   4.017  1.1459 -0.9107 -1.3666
 4660TIP3    H213945   2.651   0.272   4.010 -0.5267  0.2376  2.6012
 4661TIP3   OH213946   0.689   3.122   5.724 -0.2666  0.4156  0.6689
 4661TIP3    H113947   0.683   3.218   5.720 -0.9872  0.4174  1.5318
 4661TIP3    H213948   0.610   3.091   5.679  0.2577  0.2099 -0.1243
 4662TIP3   OH213949   6.285   0.173   0.436  0.2775 -0.0853  0.2803
 4662TIP3    H113950   6.327   0.088   0.419  0.1536 -0.1339  0.2117
 4662TIP3    H213951   6.222   0.154   0.505  0.5603  0.0463  0.5761
 4663TIP3   OH213952   0.167   4.104   2.155 -0.4485 -0.3219 -0.0066
 4663TIP3    H113953   0.152   4.154   2.075 -1.0000 -1.1588 -0.4374
 4663TIP3    H213954   0.166   4.170   2.225  1.5231  0.6350 -0.7982
 4664TIP3   OH213955   6.799   1.973   5.806  0.1918 -0.2719  0.3437
 4664TIP3    H113956   6.760   2.016   5.882 -1.7224  0.1865 -0.8312
 4664TIP3    H213957   6.741   1.997   5.733 -1.1895 -4.9405 -0.3901
 4665TIP3   OH213958   1.528   2.226   1.776  0.4507 -0.7197  0.6924
 4665TIP3    H113959   1.541   2.133   1.791 -1.3418 -1.2581 -0.7773
 4665TIP3    H213960   1.514   2.263   1.863 -0.8549 -2.1700  1.1297
 4666TIP3   OH213961   0.897   4.654   1.731 -0.4092  0.8282 -0.0629
 4666TIP3    H113962   0.993   4.651   1.729 -0.2618  0.5077  2.9093
 4666TIP3    H213963   0.871   4.563   1.718 -0.2497  0.7145  0.4070
 4667TIP3   OH213964   2.500   4.108   3.032  0.7077  0.2606  0.1518
 4667TIP3    H113965   2.497   4.123   2.937 -0.3272 -3.0427 -0.4684
 4667TIP3    H213966   2.409   4.087   3.055  1.1923 -0.3704  1.5738
 4668TIP3   OH213967   2.177   0.615   4.091  0.4881 -0.3314 -0.1065
 4668TIP3    H113968   2.214   0.527   4.088  0.8363 -0.1960  0.2120
 4668TIP3    H213969   2.123   0.621   4.012  1.2700 -0.4753 -0.6612
 4669TIP3   OH213970   3.728   6.027   3.412 -0.4262 -0.0659  0.2677
 4669TIP3    H113971   3.689   6.100   3.364 -3.2983 -1.6988 -0.1462
 4669TIP3    H213972   3.809   6.008   3.366 -0.2380  1.9981 -0.3677
 4670TIP3   OH213973   3.088   3.443   0.651  0.4732 -0.6491 -0.1112
 4670TIP3    H113974   3.124   3.451   0.740  1.8171  0.5226 -0.7304
 4670TIP3    H213975   3.007   3.393   0.663  0.1956  0.1684  1.8925
 4671TIP3   OH213976   2.929   0.471   4.697 -0.0582  0.2094 -0.1101
 4671TIP3    H113977   2.941   0.451   4.604  2.5494 -0.0372  0.2202
 4671TIP3    H213978   2.874   0.550   4.697  0.6003  0.7154 -1.9073
 4672TIP3   OH213979   5.022   1.134   1.403 -0.1086  0.0645 -0.3822
 4672TIP3    H113980   4.964   1.206   1.426 -0.3667 -0.7561  1.7510
 4672TIP3    H213981   4.988   1.100   1.320 -0.4470  1.8709 -1.0095
 4673TIP3   OH213982   5.782   1.440   3.913  0.0888 -0.3530  0.4285
 4673TIP3    H113983   5.845   1.399   3.853  0.7953  1.5046 -0.1923
 4673TIP3    H213984   5.770   1.376   3.983  0.0939 -2.1313 -1.1208
 4674TIP3   OH213985   5.519   6.410   1.842 -0.3719  0.7898  0.4414
 4674TIP3    H113986   5.506   6.438   1.932 -0.2787  2.4342 -0.0194
 4674TIP3    H213987   5.574   6.331   1.848 -1.6136 -0.0019  1.8569
 4675TIP3   OH213988   7.035   5.275   4.907 -0.0697 -0.3449  0.0877
 4675TIP3    H113989   7.022   5.323   4.825 -1.1797  2.4715  1.7455
 4675TIP3    H213990   7.128   5.285   4.926 -0.0423  0.0690 -0.2486
 4676TIP3   OH213991   6.159   4.083   1.961  0.2492  0.1145  0.0614
 4676TIP3    H113992   6.240   4.032   1.961 -0.4021 -0.9704  0.9587
 4676TIP3    H213993   6.111   4.053   1.884 -0.1818 -0.7481  0.6482
 4677TIP3   OH213994   2.761   4.124   4.220 -0.3103 -0.0002  0.4402
 4677TIP3    H113995   2.709   4.178   4.160  1.6494  0.7202 -0.7073
 4677TIP3    H213996   2.757   4.171   4.303 -1.3269  0.1339  0.3237
 4678TIP3   OH213997   6.001   6.749   3.315  0.2427  0.4321  0.2234
 4678TIP3    H113998   5.961   6.828   3.350  0.4279  1.1375 -1.0961
 4678TIP3    H213999   6.015   6.768   3.223  1.0766 -0.8307  0.0634
 4679TIP3   OH214000   3.392   2.998   0.407  0.2914 -0.1471 -0.0729
 4679TIP3    H114001   3.354   3.086   0.399  0.8056 -0.0126 -1.2895
 4679TIP3    H214002   3.390   2.979   0.501 -0.8172  0.7207  0.1023
 4680TIP3   OH214003   7.043   1.263   1.933 -0.1082 -0.0803  0.6006
 4680TIP3    H114004   7.136   1.276   1.951  0.4891  0.9010 -2.5138
 4680TIP3    H214005   7.002   1.343   1.965  0.6180  0.7920 -0.5258
 4681TIP3   OH214006   6.425   0.787   0.230  0.9140  0.3050  0.0802
 4681TIP3    H114007   6.446   0.754   0.143  1.4639 -0.6066  0.5379
 4681TIP3    H214008   6.402   0.709   0.281  0.3692  0.8462  0.6941
 4682TIP3   OH214009   6.509   1.113   0.965  0.1058 -0.1871  0.0169
 4682TIP3    H114010   6.457   1.180   0.920  0.5447 -0.7480 -1.3956
 4682TIP3    H214011   6.451   1.079   1.033 -1.1333 -0.2846 -1.0473
 4683TIP3   OH214012   4.714   2.333   4.108 -0.0919  0.2801  0.5785
 4683TIP3    H114013   4.806   2.337   4.081 -0.5953  0.0614 -1.2452
 4683TIP3    H214014   4.693   2.240   4.109 -0.6333  0.3893 -0.2299
 4684TIP3   OH214015   0.720   5.034   2.348  0.2667  0.5772  0.1210
 4684TIP3    H114016   0.684   4.952   2.384 -1.9364  1.6989  0.6514
 4684TIP3    H214017   0.644   5.080   2.312  1.6513  1.8578 -1.3086
 4685TIP3   OH214018   3.748   2.754   4.542  0.6100 -0.0465 -0.4632
 4685TIP3    H114019   3.751   2.669   4.586  0.0139 -0.3913 -1.0761
 4685TIP3    H214020   3.813   2.746   4.472  0.3206 -0.1187 -0.7256
 4686TIP3   OH214021   2.183   2.189   4.893  0.4360  0.1439  0.1425
 4686TIP3    H114022   2.239   2.114   4.915  0.3754  0.1396  0.2822
 4686TIP3    H214023   2.233   2.265   4.925  0.5739  0.1753 -0.1492
 4687TIP3   OH214024   0.655   4.685   4.919  0.1685 -0.3672 -0.2834
 4687TIP3    H114025   0.594   4.688   4.992  1.7394  0.8025  1.0424
 4687TIP3    H214026   0.649   4.595   4.886 -0.8589 -0.7972  1.0097
 4688TIP3   OH214027   1.814   4.546   3.551  0.0887  0.1459  0.3317
 4688TIP3    H114028   1.868   4.561   3.473 -0.9805  1.8526 -0.1430
 4688TIP3    H214029   1.736   4.501   3.517  1.2315 -2.5642  1.0519
 4689TIP3   OH214030   3.184   1.654   3.792  0.0401 -0.2523  0.3037
 4689TIP3    H114031   3.233   1.661   3.874 -2.2027 -1.9703  1.9233
 4689TIP3    H214032   3.133   1.735   3.787  1.6061  0.7298 -0.4627
 4690TIP3   OH214033   3.615   4.264   2.645  0.0467 -0.4799 -0.6015
 4690TIP3    H114034   3.587   4.318   2.719  2.1166  2.3829 -1.7170
 4690TIP3    H214035   3.534   4.248   2.595 -0.7981  0.8477  0.2800
 4691TIP3   OH214036   3.383   5.687   2.156 -0.3662  0.2166  0.3220
 4691TIP3    H114037   3.418   5.609   2.112  2.1819  0.6625  1.3793
 4691TIP3    H214038   3.313   5.654   2.212 -1.8964 -0.7205 -1.9647
 4692TIP3   OH214039   4.972   4.921   0.779  0.0783 -0.1229 -0.4931
 4692TIP3    H114040   4.933   4.941   0.693  0.2081  0.4258 -0.4314
 4692TIP3    H214041   4.995   4.828   0.774  0.4091 -0.0123 -1.1857
 4693TIP3   OH214042   5.299   3.389   3.469  0.3471 -0.2044  0.3943
 4693TIP3    H114043   5.389   3.385   3.437 -0.0268 -0.8350 -0.6724
 4693TIP3    H214044   5.306   3.417   3.560  1.5425  0.7464  0.0319
 4694TIP3   OH214045   6.500   5.069   4.069 -0.4324 -0.2142  0.3026
 4694TIP3    H114046   6.499   5.002   4.138 -0.3216 -1.2623 -0.6944
 4694TIP3    H214047   6.541   5.027   3.994 -0.7632  0.8339 -0.5006
 4695TIP3   OH214048   5.311   3.255   0.950  0.7024  0.0069 -0.2573
 4695TIP3    H114049   5.224   3.262   0.989 -0.1521 -1.2108 -1.8312
 4695TIP3    H214050   5.369   3.296   1.014 -0.9667  0.5195  1.0036
 4696TIP3   OH214051   7.044   3.905   4.352  0.2979 -0.0327  0.1010
 4696TIP3    H114052   7.113   3.964   4.324  0.8007  0.5297  2.3191
 4696TIP3    H214053   6.986   3.959   4.407 -1.6090 -0.6292 -1.1953
 4697TIP3   OH214054   4.480   1.845   3.752 -0.4218 -0.2635  0.2646
 4697TIP3    H114055   4.426   1.838   3.674 -1.3726  0.9963  0.7775
 4697TIP3    H214056   4.450   1.773   3.808 -1.7704  0.5519  0.6370
 4698TIP3   OH214057   4.145   2.485   3.737  0.0075 -0.4172  0.9848
 4698TIP3    H114058   4.161   2.573   3.702  1.4981 -0.7602  0.7215
 4698TIP3    H214059   4.228   2.461   3.779 -0.9171 -1.0420  2.5163
 4699TIP3   OH214060   5.953   2.345   0.043  0.5452  0.0921  0.5494
 4699TIP3    H114061   5.877   2.322   0.096  0.1952  0.4230  0.1941
 4699TIP3    H214062   5.934   2.433   0.009  1.3015  0.3833  0.8542
 4700TIP3   OH214063   2.392   0.458   5.176 -0.3034 -0.7207  0.5408
 4700TIP3    H114064   2.390   0.549   5.206 -1.3937 -0.6484  0.2687
 4700TIP3    H214065   2.407   0.407   5.256 -0.3232 -0.3448  0.7883
 4701TIP3   OH214066   1.153   5.026   3.437 -0.1744 -0.0107 -0.3131
 4701TIP3    H114067   1.121   5.116   3.428 -0.4289  0.0511  0.9785
 4701TIP3    H214068   1.230   5.033   3.492 -0.2273 -0.5884 -0.1583
 4702TIP3   OH214069   5.104   2.894   3.563  0.1188  0.2044  0.7171
 4702TIP3    H114070   5.126   2.908   3.655  0.6661 -0.4298  0.6933
 4702TIP3    H214071   5.173   2.939   3.514 -0.3043  0.7452  0.6115
 4703TIP3   OH214072   0.546   0.970   5.315  0.1941  0.0036  0.1231
 4703TIP3    H114073   0.569   0.970   5.408 -0.3347  0.2950  0.2620
 4703TIP3    H214074   0.593   0.895   5.278 -0.3038 -0.6698  0.8152
 4704TIP3   OH214075   6.696   5.574   1.911 -0.1747 -0.7529 -0.3981
 4704TIP3    H114076   6.662   5.627   1.982 -0.7143 -0.7041 -0.6846
 4704TIP3    H214077   6.774   5.621   1.880 -0.1593 -0.5787 -0.0911
 4705TIP3   OH214078   1.637   2.634   4.215 -0.4841 -0.0534  0.2615
 4705TIP3    H114079   1.703   2.572   4.247  1.2670  2.3464  1.5548
 4705TIP3    H214080   1.667   2.656   4.126 -0.6483 -0.4041  0.1157
 4706TIP3   OH214081   5.527   6.146   3.167 -0.3552  0.0640 -0.3162
 4706TIP3    H114082   5.457   6.084   3.185 -1.9739  1.9686  0.2860
 4706TIP3    H214083   5.502   6.188   3.085  0.8762 -0.2586 -0.8842
 4707TIP3   OH214084   3.410   1.209   0.433  0.0648 -0.0398 -0.0201
 4707TIP3    H114085   3.485   1.160   0.399 -0.1175 -0.3404  0.0013
 4707TIP3    H214086   3.437   1.301   0.430 -0.8069  0.2374 -3.3079
 4708TIP3   OH214087   3.800   1.788   5.395 -0.5349  0.2085 -0.0519
 4708TIP3    H114088   3.867   1.734   5.438 -1.4853 -1.2257 -0.2986
 4708TIP3    H214089   3.849   1.859   5.353  0.7442 -0.3475  0.4618
 4709TIP3   OH214090   1.276   0.621   4.241 -0.2022  0.1509  0.8362
 4709TIP3    H114091   1.339   0.692   4.237 -1.3761  1.1740 -0.1767
 4709TIP3    H214092   1.242   0.614   4.152 -0.6284 -1.2137  1.0789
 4710TIP3   OH214093   1.601   1.891   1.130 -0.2194  0.1774  0.3665
 4710TIP3    H114094   1.588   1.807   1.086 -1.0178 -0.8373  2.4446
 4710TIP3    H214095   1.527   1.945   1.101  0.5708  0.4030 -1.3758
 4711TIP3   OH214096   4.272   4.029   4.806 -0.3929  0.0649 -0.1268
 4711TIP3    H114097   4.281   4.113   4.762  0.2459  0.2790  0.4007
 4711TIP3    H214098   4.327   4.036   4.884 -1.6574 -0.2253  0.8341
 4712TIP3   OH214099   5.996   1.346   4.979 -0.1060 -0.2294  0.0276
 4712TIP3    H114100   6.034   1.278   4.923 -0.4208 -0.6767  0.3491
 4712TIP3    H214101   5.904   1.348   4.955 -0.1842 -0.2212  0.3358
 4713TIP3   OH214102   0.839   6.672   4.646  0.6936  0.1575 -0.2300
 4713TIP3    H114103   0.749   6.689   4.673  1.1514  0.0834  1.4753
 4713TIP3    H214104   0.891   6.736   4.694  1.7134 -1.0267  0.3203
 4714TIP3   OH214105   0.598   5.204   0.222 -0.2760  0.2204  0.1938
 4714TIP3    H114106   0.538   5.270   0.189  0.7671  1.1024  0.0092
 4714TIP3    H214107   0.619   5.150   0.146 -0.8306 -0.0953  0.2609
 4715TIP3   OH214108   5.003   0.328   1.165 -0.4024 -0.2192  0.4308
 4715TIP3    H114109   4.957   0.282   1.095  0.4568 -0.3431 -0.0665
 4715TIP3    H214110   5.096   0.324   1.141 -0.1099 -0.0264  1.4364
 4716TIP3   OH214111   5.543   0.860   0.592 -0.5567 -0.1419 -0.0502
 4716TIP3    H114112   5.533   0.827   0.503 -0.8583  2.4031 -1.0676
 4716TIP3    H214113   5.541   0.783   0.648 -0.8875 -1.7694 -2.2061
 4717TIP3   OH214114   5.516   0.485   1.456  0.1683 -0.5941 -0.0541
 4717TIP3    H114115   5.431   0.458   1.421 -0.7495  3.1259 -1.1722
 4717TIP3    H214116   5.571   0.496   1.378  1.1371 -1.2851  0.5159
 4718TIP3   OH214117   0.991   1.101   4.132 -0.0195 -0.4212 -0.2544
 4718TIP3    H114118   1.001   1.014   4.170  0.8250 -0.0124  0.4764
 4718TIP3    H214119   1.074   1.145   4.149 -0.6514  0.7409 -0.0912
 4719TIP3   OH214120  -0.009   2.803   2.270 -0.0775  0.3091 -0.2076
 4719TIP3    H114121  -0.011   2.710   2.294  1.2824  0.6389  1.3527
 4719TIP3    H214122   0.034   2.805   2.184  2.3140 -0.3427  0.9154
 4720TIP3   OH214123   2.519   6.683   1.859 -0.3400 -0.8354 -0.0896
 4720TIP3    H114124   2.474   6.612   1.812  0.6479 -1.1592 -0.5803
 4720TIP3    H214125   2.483   6.763   1.821 -0.7957 -1.0775 -0.1819
 4721TIP3   OH214126   6.947   4.405   3.761  0.2828  0.3741 -0.3337
 4721TIP3    H114127   6.954   4.426   3.668 -0.8463 -3.6598 -1.5632
 4721TIP3    H214128   7.037   4.397   3.790  0.8963 -3.0295 -2.5635
 4722TIP3   OH214129   0.658   6.022   5.487 -0.4814 -0.1403 -0.2771
 4722TIP3    H114130   0.677   5.990   5.398 -0.7562 -0.0485 -0.3689
 4722TIP3    H214131   0.680   5.948   5.544  0.4752  0.0723 -0.3493
 4723TIP3   OH214132   0.536   1.533   2.685  0.7264 -0.5465  0.0638
 4723TIP3    H114133   0.453   1.544   2.732  1.3265 -0.6515  1.1940
 4723TIP3    H214134   0.512   1.539   2.593 -0.5314 -0.5304  0.3651
 4724TIP3   OH214135   1.869   3.342   2.157  0.3501  0.4529  0.3197
 4724TIP3    H114136   1.819   3.418   2.128  1.1874  1.3871  1.2112
 4724TIP3    H214137   1.862   3.279   2.086  1.5719  2.2750 -1.5290
 4725TIP3   OH214138   1.018   1.052   3.159  0.2702 -0.2798 -0.5615
 4725TIP3    H114139   0.928   1.024   3.173  0.2957 -0.2161 -0.2740
 4725TIP3    H214140   1.066   1.019   3.235  0.7258 -1.3458 -1.2870
 4726TIP3   OH214141   0.939   2.092   0.440 -0.1570  0.0312  0.3128
 4726TIP3    H114142   0.950   2.185   0.459 -0.9247  0.0518  0.6832
 4726TIP3    H214143   0.845   2.082   0.424  0.2739 -0.0796 -3.0003
 4727TIP3   OH214144   3.088   4.865   4.533 -0.4025 -0.0486 -0.0014
 4727TIP3    H114145   3.162   4.888   4.590  0.8935 -0.7597 -1.3184
 4727TIP3    H214146   3.129   4.818   4.460 -2.1940 -0.5594 -0.7105
 4728TIP3   OH214147   6.391   5.271   5.511  0.0832 -0.4609 -0.3762
 4728TIP3    H114148   6.358   5.346   5.560 -0.1310  1.3247 -3.0468
 4728TIP3    H214149   6.324   5.254   5.444  2.2454  0.2169 -2.9206
 4729TIP3   OH214150   7.175   0.464   1.695  0.2820 -0.4680  0.1665
 4729TIP3    H114151   7.224   0.444   1.616  0.7231 -1.6843  0.7152
 4729TIP3    H214152   7.125   0.542   1.673  0.7632 -0.4971 -1.1426
 4730TIP3   OH214153   2.157   1.040   2.402  0.2866 -0.1983 -0.1097
 4730TIP3    H114154   2.172   1.128   2.367 -1.4168 -0.0935 -0.6523
 4730TIP3    H214155   2.199   0.982   2.339 -1.0222  0.0984 -1.2976
 4731TIP3   OH214156   5.606   0.469   3.410 -0.7023 -0.0661 -0.8858
 4731TIP3    H114157   5.689   0.478   3.363  0.7585  0.4594  1.5839
 4731TIP3    H214158   5.539   0.465   3.342  1.1769  1.3622 -2.9335
 4732TIP3   OH214159   5.965   4.491   4.760  0.1277 -0.4553 -0.0837
 4732TIP3    H114160   5.900   4.539   4.811  0.4974 -0.3896  0.3232
 4732TIP3    H214161   5.960   4.531   4.673  2.4969  2.4177  0.9255
 4733TIP3   OH214162   1.882   0.937   0.248 -0.2168 -0.9553 -0.5430
 4733TIP3    H114163   1.961   0.972   0.206  0.3447 -1.9371 -0.3447
 4733TIP3    H214164   1.900   0.843   0.256 -1.1016 -1.0647  0.1871
 4734TIP3   OH214165   0.675   3.277   4.238 -0.0007  0.1516 -0.2336
 4734TIP3    H114166   0.704   3.269   4.147  0.9816 -0.6138  0.1283
 4734TIP3    H214167   0.604   3.214   4.246 -0.1583  0.2955 -0.4979
 4735TIP3   OH214168   2.267   5.078   3.078 -0.2307 -0.0908  0.7808
 4735TIP3    H114169   2.296   5.166   3.057 -1.2883  0.0896 -0.0414
 4735TIP3    H214170   2.171   5.083   3.079 -0.4081 -1.6035 -1.2332
 4736TIP3   OH214171   6.784   6.779   1.305 -0.5185 -0.0971  0.3334
 4736TIP3    H114172   6.707   6.833   1.317 -0.7656 -0.4751  0.4584
 4736TIP3    H214173   6.765   6.698   1.352 -1.3915 -1.5100 -2.2006
 4737TIP3   OH214174   2.150   5.915   1.856 -0.1502  0.1615  0.2078
 4737TIP3    H114175   2.057   5.928   1.836 -0.2887 -2.1268 -1.0211
 4737TIP3    H214176   2.188   6.002   1.855 -2.0945  1.0421 -0.3342
 4738TIP3   OH214177   0.064   0.412   3.788  0.4109 -0.1512  0.1380
 4738TIP3    H114178   0.066   0.320   3.811 -2.1528 -0.2326  0.3136
 4738TIP3    H214179   0.071   0.458   3.871  0.6856 -0.2026  0.1443
 4739TIP3   OH214180   2.738   1.343   2.579  0.3781 -0.2259  0.0641
 4739TIP3    H114181   2.653   1.352   2.621 -0.4778 -1.3135 -1.3138
 4739TIP3    H214182   2.799   1.390   2.636 -1.0782  0.2880  1.2591
 4740TIP3   OH214183   3.653   3.587   4.074 -0.3617 -0.3191  0.0649
 4740TIP3    H114184   3.729   3.631   4.112 -1.2080  0.1878  1.2519
 4740TIP3    H214185   3.629   3.642   3.999  0.5039 -0.5623 -0.4071
 4741TIP3   OH214186   3.081   2.388   2.920  0.4292  0.4228  0.5492
 4741TIP3    H114187   3.000   2.355   2.959 -0.7594  1.1200 -1.2278
 4741TIP3    H214188   3.143   2.316   2.931 -0.7249 -0.5495  1.0113
 4742TIP3   OH214189   6.991   5.892   2.265 -0.4158 -0.0644  0.0969
 4742TIP3    H114190   6.946   5.892   2.350  0.3584 -0.8511  0.5242
 4742TIP3    H214191   7.067   5.835   2.278  0.2121  0.5161 -0.8709
 4743TIP3   OH214192   1.282   3.197   3.375  0.5500  0.2216  0.3226
 4743TIP3    H114193   1.360   3.213   3.322 -0.1591  1.2132 -0.4697
 4743TIP3    H214194   1.218   3.260   3.342 -0.6888 -0.7928  0.7271
 4744TIP3   OH214195   0.490   4.205   5.612  0.1315 -0.5680  0.5875
 4744TIP3    H114196   0.412   4.189   5.560  0.0426  0.0833  0.5163
 4744TIP3    H214197   0.530   4.283   5.573  1.1298 -1.2148  0.2597
 4745TIP3   OH214198   2.010   4.462   2.564  0.2514 -0.1976  0.4655
 4745TIP3    H114199   1.924   4.496   2.587 -0.5754 -1.4075 -0.6678
 4745TIP3    H214200   2.061   4.467   2.645 -1.0618  0.0199  1.2975
 4746TIP3   OH214201   3.917   5.913   1.502 -0.3969  0.1093  0.4953
 4746TIP3    H114202   3.959   5.990   1.466 -0.3948 -0.1111  0.0210
 4746TIP3    H214203   3.863   5.879   1.431  1.2607 -1.5678 -0.0401
 4747TIP3   OH214204   4.201   5.703   4.032 -0.2486  0.3050  0.5049
 4747TIP3    H114205   4.114   5.667   4.015  0.4299 -1.2355  0.0846
 4747TIP3    H214206   4.197   5.792   3.998 -1.9165  0.5698  1.3006
 4748TIP3   OH214207   5.307   6.296   2.262 -0.2272  0.1900 -0.6055
 4748TIP3    H114208   5.309   6.344   2.345 -0.9394 -0.0935 -0.4151
 4748TIP3    H214209   5.385   6.240   2.264 -0.3942 -0.0250  0.0052
 4749TIP3   OH214210   1.518   1.363   3.315  0.3151 -0.3817 -0.4357
 4749TIP3    H114211   1.554   1.313   3.387 -0.3463 -1.3814 -0.7844
 4749TIP3    H214212   1.593   1.411   3.279  1.2001 -1.9494 -0.7620
 4750TIP3   OH214213   3.087   5.216   4.052 -0.2913  0.0233  0.7207
 4750TIP3    H114214   3.007   5.249   4.093 -1.0741 -0.3337 -0.4780
 4750TIP3    H214215   3.102   5.275   3.978  1.4983  1.0952  1.8760
 4751TIP3   OH214216   4.393   5.603   1.560 -0.0816  0.3850  0.5738
 4751TIP3    H114217   4.347   5.651   1.491  0.7422 -0.4261 -0.5883
 4751TIP3    H214218   4.475   5.650   1.571  0.1055  0.0873  0.4626
 4752TIP3   OH214219   2.993   4.310   3.140  0.1834 -0.0196 -0.2014
 4752TIP3    H114220   2.908   4.265   3.138  0.9170 -1.4497 -0.1556
 4752TIP3    H214221   3.017   4.313   3.233  1.0996 -1.4668 -0.3558
 4753TIP3   OH214222   1.473  -0.007   1.327  0.0435 -0.5293  0.3523
 4753TIP3    H114223   1.436   0.030   1.407  1.8158  1.4934  0.3097
 4753TIP3    H214224   1.399  -0.009   1.265 -0.7349  0.3473  1.2262
 4754TIP3   OH214225   2.275   2.444   4.731 -0.3671  0.1956  0.0121
 4754TIP3    H114226   2.189   2.472   4.762 -0.3909  0.1065  0.0284
 4754TIP3    H214227   2.256   2.383   4.659 -0.3206  0.0884  0.0894
 4755TIP3   OH214228   2.040   2.946   0.048 -0.0185 -1.1612  0.0240
 4755TIP3    H114229   2.057   2.935  -0.045  0.5194 -1.4721  0.1554
 4755TIP3    H214230   2.078   2.868   0.089  1.1550 -0.2771  0.6713
 4756TIP3   OH214231   0.467   3.227   1.572  0.2913 -0.0505 -0.1894
 4756TIP3    H114232   0.468   3.207   1.666 -0.0429 -0.6316 -0.3038
 4756TIP3    H214233   0.515   3.154   1.532 -2.0500 -1.3699 -0.7449
 4757TIP3   OH214234   1.119   1.335   1.272 -0.2690 -0.9626 -0.1612
 4757TIP3    H114235   1.136   1.341   1.366  0.7819  0.8021 -0.4208
 4757TIP3    H214236   1.115   1.425   1.242  1.6071 -1.4469 -2.1693
 4758TIP3   OH214237   0.719   4.352   2.702  0.3859 -0.3088 -0.0982
 4758TIP3    H114238   0.793   4.411   2.682  0.2745 -0.2483 -0.3354
 4758TIP3    H214239   0.700   4.369   2.794 -0.2962  0.7642 -0.4240
 4759TIP3   OH214240   5.018   2.303   4.435  0.2907 -0.2627 -0.2876
 4759TIP3    H114241   4.957   2.330   4.504 -1.0833 -0.7102 -1.2822
 4759TIP3    H214242   5.042   2.213   4.458 -0.5579 -0.5883 -0.6402
 4760TIP3   OH214243   6.906   2.957   5.743  0.0707 -0.3429 -0.4223
 4760TIP3    H114244   6.973   3.024   5.730 -0.4805  0.0589 -1.3144
 4760TIP3    H214245   6.950   2.888   5.792  0.5753  0.7780  0.7403
 4761TIP3   OH214246   0.503   2.616   3.794 -0.4514  0.0648  0.5386
 4761TIP3    H114247   0.472   2.529   3.770 -1.6334  1.2640 -2.8447
 4761TIP3    H214248   0.424   2.668   3.808 -0.0018  1.5303 -1.6600
 4762TIP3   OH214249   3.200   2.957   2.754  0.2956 -0.0999 -0.0311
 4762TIP3    H114250   3.238   2.872   2.776 -1.4508 -0.4964  1.7846
 4762TIP3    H214251   3.180   2.951   2.661  0.6413 -1.5060 -0.0347
 4763TIP3   OH214252   1.407   3.943   5.194  0.1136  0.3292 -0.1879
 4763TIP3    H114253   1.434   3.973   5.281  1.4847 -0.2720 -0.3860
 4763TIP3    H214254   1.447   3.857   5.185 -2.3509 -0.9123 -0.2982
 4764TIP3   OH214255   7.022   6.461   5.172  0.0982  0.3627  0.3768
 4764TIP3    H114256   7.099   6.415   5.207 -0.8506 -2.2006 -0.6499
 4764TIP3    H214257   6.970   6.483   5.250  0.6803 -0.1561  0.9257
 4765TIP3   OH214258   2.603   0.848   5.193  0.1397 -0.0739  0.2131
 4765TIP3    H114259   2.649   0.795   5.128 -0.5552 -1.2583  0.6705
 4765TIP3    H214260   2.539   0.790   5.231 -1.8778  1.5630 -0.4783
 4766TIP3   OH214261   1.191   4.746   2.287  0.2184  0.0342  0.3374
 4766TIP3    H114262   1.180   4.803   2.363  0.5133  0.6687 -0.0818
 4766TIP3    H214263   1.176   4.804   2.212 -1.4065 -0.8666 -0.0829
 4767TIP3   OH214264   6.724   1.887   4.605 -0.5415  0.5524 -0.1842
 4767TIP3    H114265   6.636   1.917   4.583  0.0377  1.5761 -1.2469
 4767TIP3    H214266   6.750   1.832   4.531 -1.0222 -1.4658  1.0677
 4768TIP3   OH214267   5.870   0.798   3.654 -0.0980 -0.2551 -0.5763
 4768TIP3    H114268   5.957   0.770   3.682 -0.7329  0.3765  2.3670
 4768TIP3    H214269   5.817   0.718   3.655  0.1246 -0.4058 -0.9484
 4769TIP3   OH214270   6.894   4.451   4.936  0.1482 -0.5248  0.2222
 4769TIP3    H114271   6.888   4.539   4.899 -1.3508 -0.0867  1.4138
 4769TIP3    H214272   6.928   4.464   5.025  1.1105 -1.3010  0.0010
 4770TIP3   OH214273   5.536   6.151   0.763  0.6827  0.3015  0.2510
 4770TIP3    H114274   5.464   6.166   0.823  1.5353  1.2649  1.0800
 4770TIP3    H214275   5.588   6.232   0.767  1.4948 -0.1390 -0.7507
 4771TIP3   OH214276   2.004   2.430   4.803 -0.4897 -0.3458 -0.3570
 4771TIP3    H114277   1.922   2.384   4.819 -1.5448  1.1847 -1.1828
 4771TIP3    H214278   2.032   2.460   4.890 -2.1713  1.3219 -0.3503
 4772TIP3   OH214279   6.718   2.502   1.689 -0.2982 -0.2592 -0.1960
 4772TIP3    H114280   6.711   2.579   1.632  1.1532 -0.0235 -0.0912
 4772TIP3    H214281   6.636   2.455   1.676 -0.5300  0.4620 -1.5055
 4773TIP3   OH214282   0.710   5.802   5.676 -0.3614  0.3086  0.1179
 4773TIP3    H114283   0.634   5.754   5.709 -0.2107 -0.2845 -0.3690
 4773TIP3    H214284   0.779   5.736   5.672 -0.2538  0.4733 -0.9390
 4774TIP3   OH214285   6.466   6.700   2.565  0.3038  0.4061 -0.4961
 4774TIP3    H114286   6.403   6.664   2.627  1.5824 -0.0457  0.5990
 4774TIP3    H214287   6.434   6.788   2.547 -0.8468  0.0531 -0.2939
 4775TIP3   OH214288   2.255   6.347   3.990  0.0212  0.1643  0.4931
 4775TIP3    H114289   2.330   6.298   4.023  1.0454  0.8484 -0.7409
 4775TIP3    H214290   2.288   6.435   3.972 -0.9669  0.3780 -0.4336
 4776TIP3   OH214291   1.896   5.331   2.140 -0.6033 -0.3037 -0.8579
 4776TIP3    H114292   1.866   5.253   2.094 -0.5859 -0.8200 -0.0138
 4776TIP3    H214293   1.978   5.305   2.181 -1.7510 -0.6085  1.3907
 4777TIP3   OH214294   4.067   3.608   3.840 -0.0425  0.1586 -0.1151
 4777TIP3    H114295   4.039   3.641   3.754 -0.0093  0.4505 -0.0140
 4777TIP3    H214296   4.158   3.581   3.827 -0.1488 -0.1342 -0.2639
 4778TIP3   OH214297   1.914   2.151   4.234  0.4332  0.1288 -0.1732
 4778TIP3    H114298   1.942   2.169   4.145 -1.2149  1.0627 -0.5365
 4778TIP3    H214299   1.906   2.055   4.238 -1.5671  0.1627 -1.7532
 4779TIP3   OH214300   2.959   4.243   0.879 -0.3031 -1.0041 -0.2737
 4779TIP3    H114301   2.993   4.317   0.828  4.3918 -3.5516 -1.4293
 4779TIP3    H214302   2.903   4.195   0.818 -1.8278  0.4364 -0.0938
 4780TIP3   OH214303   1.109   1.485   3.502  0.0569  0.6070  0.1174
 4780TIP3    H114304   1.161   1.473   3.422 -0.0675  1.6465 -0.1380
 4780TIP3    H214305   1.018   1.476   3.472 -0.0510  2.1275 -0.1128
 4781TIP3   OH214306   4.751   0.176   5.558  0.5515  0.6592  0.2862
 4781TIP3    H114307   4.692   0.246   5.530  0.0498  0.1152 -0.0751
 4781TIP3    H214308   4.770   0.195   5.649 -2.0665 -0.3604  1.1586
 4782TIP3   OH214309   2.667   4.869   0.918  0.4461 -0.1929  0.2278
 4782TIP3    H114310   2.712   4.818   0.850  1.7143 -0.0574  0.9353
 4782TIP3    H214311   2.722   4.860   0.995  0.7385  2.2404  0.3869
 4783TIP3   OH214312   2.695   3.984   2.762  0.1162 -0.7835 -0.4387
 4783TIP3    H114313   2.608   4.020   2.745  0.4847  0.0827 -0.5247
 4783TIP3    H214314   2.753   4.031   2.702  0.8273 -0.5199  0.4387
 4784TIP3   OH214315   5.130   3.462   5.051 -0.1004 -0.0523  0.0510
 4784TIP3    H114316   5.219   3.453   5.086 -0.1454  0.6441  0.3664
 4784TIP3    H214317   5.074   3.467   5.129 -0.2081  1.4683 -0.0830
 4785TIP3   OH214318   3.592   3.860   4.250  0.7469 -0.5146  0.3294
 4785TIP3    H114319   3.503   3.890   4.235  0.8443  0.2150  1.1073
 4785TIP3    H214320   3.637   3.875   4.167  0.3486 -0.1361  0.1790
 4786TIP3   OH214321   6.447   5.746   1.908  0.3395  0.0066 -0.0631
 4786TIP3    H114322   6.422   5.742   2.000 -0.3430  0.2090 -0.2266
 4786TIP3    H214323   6.427   5.659   1.874  1.5680 -0.3936  0.2065
 4787TIP3   OH214324   5.352   5.672   0.402  0.9057  0.4225 -0.1138
 4787TIP3    H114325   5.443   5.652   0.424  0.6075  0.5633  1.3395
 4787TIP3    H214326   5.345   5.767   0.410  0.2940  0.2886  1.2596
 4788TIP3   OH214327   1.767   3.560   2.604 -0.3576 -0.2353 -0.2737
 4788TIP3    H114328   1.767   3.491   2.538 -1.7009 -0.0313 -0.5234
 4788TIP3    H214329   1.692   3.539   2.660 -0.5505  0.8063 -0.1303
 4789TIP3   OH214330   7.104   1.868   0.663  0.3767 -0.4439  0.6023
 4789TIP3    H114331   7.033   1.818   0.623  1.4822 -0.3499 -1.6229
 4789TIP3    H214332   7.087   1.958   0.637  0.2411 -0.1000  1.7873
 4790TIP3   OH214333   4.972   3.872   0.221 -0.4960 -0.2450  0.1638
 4790TIP3    H114334   5.053   3.918   0.243 -1.6629  1.1231  1.9887
 4790TIP3    H214335   4.939   3.918   0.144  0.2590 -0.5881 -0.3793
 4791TIP3   OH214336   1.213   1.970   0.479  0.1013 -0.2065  0.2484
 4791TIP3    H114337   1.179   1.946   0.565  2.1665 -1.4459  0.7806
 4791TIP3    H214338   1.186   1.898   0.422  0.5264 -0.4473  0.3453
 4792TIP3   OH214339   6.721   5.917   1.821 -0.1190 -0.0948 -0.0140
 4792TIP3    H114340   6.643   5.862   1.817 -0.9819  1.0016  0.9962
 4792TIP3    H214341   6.736   5.931   1.915 -0.4502  2.0603 -0.2173
 4793TIP3   OH214342   6.974   6.279   1.558  0.3221 -0.4292  0.7165
 4793TIP3    H114343   6.930   6.361   1.537 -0.0105 -0.7491  0.1282
 4793TIP3    H214344   6.907   6.227   1.603  0.0928 -0.8878 -0.1139
 4794TIP3   OH214345   0.085   4.497   1.810  0.0028  0.2724 -0.3446
 4794TIP3    H114346   0.113   4.583   1.780 -0.9399  0.3404 -1.0900
 4794TIP3    H214347  -0.001   4.484   1.770 -0.9229 -0.0395  1.6101
 4795TIP3   OH214348   0.029   2.153   0.004  0.1244  0.4299 -0.0214
 4795TIP3    H114349   0.113   2.109  -0.014  0.1962  0.7763 -0.5879
 4795TIP3    H214350  -0.002   2.114   0.085 -0.2279 -1.2777 -0.9464
 4796TIP3   OH214351   5.983   3.776   2.006  0.2049  0.2645  0.1773
 4796TIP3    H114352   6.054   3.719   1.978 -0.0460  0.9687 -2.1109
 4796TIP3    H214353   5.983   3.847   1.942 -1.6906  0.9889  0.9155
 4797TIP3   OH214354   2.850   0.354   4.464  0.1837 -0.4092  0.5929
 4797TIP3    H114355   2.841   0.273   4.515 -0.4630 -2.5740 -2.6545
 4797TIP3    H214356   2.761   0.387   4.457  0.6185  1.7415  3.3482
 4798TIP3   OH214357   3.755   6.594   2.700 -0.2461 -0.1187 -0.2545
 4798TIP3    H114358   3.700   6.546   2.637  0.4832 -0.7813 -0.3991
 4798TIP3    H214359   3.843   6.561   2.686  0.0174  0.0974  0.7673
 4799TIP3   OH214360   3.467   3.503   4.580  0.0215 -0.0268 -0.2068
 4799TIP3    H114361   3.553   3.507   4.538 -0.5075  1.6255 -1.2241
 4799TIP3    H214362   3.471   3.568   4.650 -0.6760  0.7618 -0.8705
 4800TIP3   OH214363   5.788   1.309   0.125  0.1309  0.1640  0.1283
 4800TIP3    H114364   5.817   1.400   0.121 -2.2573  0.9503 -2.1446
 4800TIP3    H214365   5.740   1.302   0.207  1.3237  0.5718  0.8859
 4801TIP3   OH214366   6.505   6.591   5.154  0.0325  0.2312 -0.0907
 4801TIP3    H114367   6.426   6.537   5.159 -0.1914  0.5210 -0.3899
 4801TIP3    H214368   6.538   6.595   5.244  0.5830 -1.1724 -0.2025
 4802TIP3   OH214369   3.660   1.962   2.822  0.4765 -0.4350  0.3736
 4802TIP3    H114370   3.582   2.010   2.795  0.3315 -1.0364 -0.3189
 4802TIP3    H214371   3.729   1.992   2.762  0.6046 -0.4057  0.5370
 4803TIP3   OH214372   3.959   1.762   3.794  0.0579 -0.7735  0.1402
 4803TIP3    H114373   3.988   1.728   3.709 -1.3105 -1.8383  0.0662
 4803TIP3    H214374   3.865   1.774   3.784  0.0306  0.0218  1.2110
 4804TIP3   OH214375   1.719   1.148   2.200  0.0250 -0.1798 -0.1960
 4804TIP3    H114376   1.778   1.079   2.171 -1.2647 -1.2948 -0.2199
 4804TIP3    H214377   1.730   1.218   2.134 -0.1703 -1.1933 -1.3400
 4805TIP3   OH214378   6.845   2.962   3.975 -0.0659 -0.1560 -0.7259
 4805TIP3    H114379   6.880   2.888   3.926 -0.1646 -1.6129  1.2720
 4805TIP3    H214380   6.806   3.019   3.908 -0.4243 -2.1444 -2.3088
 4806TIP3   OH214381   1.503   3.781   2.561 -0.0204  0.1078 -0.1473
 4806TIP3    H114382   1.479   3.869   2.590  1.9197  0.6507 -0.0281
 4806TIP3    H214383   1.568   3.795   2.492  1.0416 -1.2111  0.5335
 4807TIP3   OH214384   1.925   5.777   4.756  0.0417 -0.0836 -0.8303
 4807TIP3    H114385   1.985   5.702   4.757  0.4719  0.2580 -0.5039
 4807TIP3    H214386   1.841   5.741   4.786  0.7359 -0.0434  1.3382
 4808TIP3   OH214387   6.399   5.588   0.744  0.2561 -0.0663 -0.1408
 4808TIP3    H114388   6.477   5.636   0.718  0.4390 -0.7369 -0.8677
 4808TIP3    H214389   6.326   5.638   0.707  0.4871 -0.7369 -1.5468
 4809TIP3   OH214390   1.038   5.669   1.878 -0.0520 -0.3266 -0.1385
 4809TIP3    H114391   0.992   5.689   1.960  2.0707  0.1961  1.0027
 4809TIP3    H214392   1.066   5.754   1.844  0.2152 -0.6324 -0.7087
 4810TIP3   OH214393   0.225   5.830   1.393  0.1352 -0.1195  0.4943
 4810TIP3    H114394   0.172   5.757   1.426 -0.2957  0.2687  0.6822
 4810TIP3    H214395   0.239   5.810   1.300 -1.5724  0.4693  0.0747
 4811TIP3   OH214396   6.797   2.274   4.952 -0.1371  0.5326  0.1395
 4811TIP3    H114397   6.807   2.243   4.862  0.2121  0.4001  0.2193
 4811TIP3    H214398   6.812   2.196   5.006  0.1048  0.7040  0.3235
 4812TIP3   OH214399   0.367   3.510   3.335 -0.1563  0.0475  0.5251
 4812TIP3    H114400   0.354   3.604   3.340  1.6340  0.3774 -0.3714
 4812TIP3    H214401   0.462   3.498   3.336 -0.2393 -1.5488 -2.1400
 4813TIP3   OH214402   2.133   6.602   0.710 -0.1860 -0.6123 -0.0606
 4813TIP3    H114403   2.134   6.659   0.633 -0.8427 -2.3270 -1.4132
 4813TIP3    H214404   2.155   6.516   0.676  1.0647 -1.1576  1.9616
 4814TIP3   OH214405   4.658   4.106   2.179  0.4432 -0.6367 -0.5990
 4814TIP3    H114406   4.652   4.202   2.180 -1.9948 -0.7041 -1.0231
 4814TIP3    H214407   4.716   4.085   2.252  3.0932  1.1963 -2.0064
 4815TIP3   OH214408   7.013   2.163   0.605  0.0566 -0.4556 -0.3287
 4815TIP3    H114409   6.923   2.187   0.629 -0.1163  1.2471 -2.3530
 4815TIP3    H214410   7.026   2.202   0.519  2.4709 -1.4150 -0.4815
 4816TIP3   OH214411   4.622   4.863   5.622  0.1061 -0.2346 -0.4386
 4816TIP3    H114412   4.711   4.834   5.601  0.1138 -1.0660  0.6359
 4816TIP3    H214413   4.567   4.789   5.594 -0.1756 -0.0349 -0.4101
 4817TIP3   OH214414   2.205   3.590   2.157  0.0752 -0.1269  0.3451
 4817TIP3    H114415   2.181   3.536   2.232 -0.5287 -0.5528 -0.1395
 4817TIP3    H214416   2.214   3.528   2.085  1.3309  0.1966  0.2057
 4818TIP3   OH214417   2.678   2.137   1.566 -0.3423  0.6557 -0.4138
 4818TIP3    H114418   2.737   2.070   1.599 -1.5868 -0.5787 -0.6231
 4818TIP3    H214419   2.710   2.157   1.478  0.0593  0.3867 -0.3309
 4819TIP3   OH214420   6.250   3.543   1.323  0.0087 -0.1220 -0.1296
 4819TIP3    H114421   6.198   3.586   1.390 -0.0726 -1.2527  0.5606
 4819TIP3    H214422   6.240   3.450   1.341  1.2234 -0.4020 -0.7684
 4820TIP3   OH214423   1.874   2.319  -0.001 -0.0924  0.2609  0.5049
 4820TIP3    H114424   1.945   2.300   0.059 -0.4363  0.3863  0.9570
 4820TIP3    H214425   1.869   2.414  -0.003 -1.7379  0.2736  2.2916
 4821TIP3   OH214426   0.904   3.598   5.457  0.3655  0.0643  0.6951
 4821TIP3    H114427   0.853   3.639   5.527  0.2474  0.3150  0.4666
 4821TIP3    H214428   0.840   3.584   5.387  0.6674  0.6644  0.2842
 4822TIP3   OH214429   6.969   5.344   1.361  0.4499  0.4143  0.6409
 4822TIP3    H114430   6.883   5.384   1.355  1.1991  2.1003  0.4225
 4822TIP3    H214431   6.962   5.262   1.312 -1.0020  0.5401  0.6145
 4823TIP3   OH214432   0.114   1.291   3.013 -0.1057  0.9100 -0.3344
 4823TIP3    H114433   0.045   1.354   2.990 -1.0634 -0.0289 -0.0787
 4823TIP3    H214434   0.172   1.340   3.071 -0.1694  1.9206 -1.0789
 4824TIP3   OH214435   3.337   1.242   2.198  0.2438 -0.5189  0.4730
 4824TIP3    H114436   3.356   1.159   2.155 -2.2121 -0.4269 -0.9167
 4824TIP3    H214437   3.313   1.302   2.127  0.1034  0.8403  1.6161
 4825TIP3   OH214438   1.597   4.422   3.457  0.1173  0.5046  0.0994
 4825TIP3    H114439   1.519   4.459   3.414 -0.5055 -1.0408 -0.1897
 4825TIP3    H214440   1.639   4.371   3.388 -1.1002 -2.3435  1.3125
 4826TIP3   OH214441   6.826   2.628   2.444 -0.2782 -0.2073  0.0484
 4826TIP3    H114442   6.879   2.598   2.370  0.3473 -1.7554  1.0648
 4826TIP3    H214443   6.771   2.698   2.408  0.4605 -0.4863 -1.7090
 4827TIP3   OH214444   1.243   0.510   5.176  0.1141 -0.0775 -0.3517
 4827TIP3    H114445   1.197   0.579   5.222  0.7418 -0.7307  1.3213
 4827TIP3    H214446   1.181   0.437   5.174  1.3186 -1.3279  2.8519
 4828TIP3   OH214447   0.187   2.321   2.632  0.0096  0.0751  0.3553
 4828TIP3    H114448   0.229   2.407   2.642 -0.0409 -0.0642  2.0884
 4828TIP3    H214449   0.142   2.326   2.548  2.2350  0.7631 -0.8709
 4829TIP3   OH214450   2.323   5.258   1.910  0.0032 -0.0369  0.5102
 4829TIP3    H114451   2.397   5.248   1.969 -0.0461 -0.9278  0.4409
 4829TIP3    H214452   2.331   5.347   1.875  1.8477 -0.5931 -0.5887
 4830TIP3   OH214453   1.373   3.010   0.824  0.4805 -0.2552  0.6733
 4830TIP3    H114454   1.335   2.925   0.848  1.9233 -1.2495 -0.3616
 4830TIP3    H214455   1.462   2.989   0.794  1.2741  1.7673  1.4188
 4831TIP3   OH214456   3.459   1.024   4.940  0.3464 -0.1193  0.7738
 4831TIP3    H114457   3.408   1.075   4.877  1.2158 -0.7340 -0.4844
 4831TIP3    H214458   3.443   1.066   5.024  1.0217  2.2122 -0.2001
 4832TIP3   OH214459   2.917   0.878   0.880  0.0146 -0.2938  0.1732
 4832TIP3    H114460   2.933   0.818   0.807 -0.2391 -1.0497  0.7291
 4832TIP3    H214461   2.979   0.950   0.866 -1.2148  0.4916 -1.7936
 4833TIP3   OH214462   0.456   0.615   3.213  0.2898  0.1059  0.0843
 4833TIP3    H114463   0.385   0.679   3.220 -0.2622 -0.4230 -0.5466
 4833TIP3    H214464   0.527   0.663   3.171  0.1638  0.5327  0.3552
 4834TIP3   OH214465   6.797   5.447   2.618 -0.7780 -0.2703  0.2753
 4834TIP3    H114466   6.764   5.529   2.654  1.2592  1.7935 -2.1818
 4834TIP3    H214467   6.780   5.452   2.524 -0.2156 -2.4874 -0.0107
 4835TIP3   OH214468   2.466   6.660   1.170 -0.3240 -0.6894 -0.3831
 4835TIP3    H114469   2.461   6.716   1.247  1.2946  0.8272 -1.3164
 4835TIP3    H214470   2.375   6.639   1.149 -0.8724  0.2773  0.9395
 4836TIP3   OH214471   1.802   5.547   1.311 -0.7821  0.5950  0.4140
 4836TIP3    H114472   1.858   5.599   1.368 -0.9611 -1.3670  2.5548
 4836TIP3    H214473   1.862   5.507   1.247 -0.1742  0.7870  0.8634
 4837TIP3   OH214474   1.315   2.188   0.630 -0.0579 -0.5077  0.2305
 4837TIP3    H114475   1.410   2.191   0.618  0.0763 -1.8901  0.7399
 4837TIP3    H214476   1.299   2.102   0.670 -1.5138 -0.2557  0.2317
 4838TIP3   OH214477   4.181   1.132   2.634  0.3419  0.1233 -0.3266
 4838TIP3    H114478   4.114   1.200   2.639 -1.4888 -1.6539  1.1050
 4838TIP3    H214479   4.170   1.081   2.714  3.5953 -0.1845  0.0828
 4839TIP3   OH214480   0.638   0.267   4.011 -0.2056  0.4673  0.3049
 4839TIP3    H114481   0.614   0.197   4.072 -2.9644 -0.1170 -1.2737
 4839TIP3    H214482   0.664   0.220   3.932 -1.3809  1.1772 -0.5277
 4840TIP3   OH214483   0.710   4.927   3.221  0.3092 -0.0785  0.0851
 4840TIP3    H114484   0.632   4.902   3.272 -0.0527  0.1970 -0.3278
 4840TIP3    H214485   0.771   4.855   3.235  0.2981  0.0962  1.0878
 4841TIP3   OH214486   2.505   2.902   5.593  0.3844 -0.4597 -0.2508
 4841TIP3    H114487   2.483   2.882   5.502  0.0841  1.5204 -0.6516
 4841TIP3    H214488   2.577   2.965   5.587  2.3523 -2.4590  0.9645
 4842TIP3   OH214489   1.041   0.378   4.814 -0.3599 -0.2833  0.1464
 4842TIP3    H114490   1.061   0.311   4.879  1.2866  0.4657  0.4536
 4842TIP3    H214491   0.960   0.418   4.846 -1.3111 -2.0087  0.0132
 4843TIP3   OH214492   2.508   1.749   1.857  0.0973  0.4976  0.3190
 4843TIP3    H114493   2.584   1.708   1.816  0.5460  1.7802 -0.2118
 4843TIP3    H214494   2.468   1.801   1.787 -0.6070  0.7316  0.8768
 4844TIP3   OH214495   3.561   6.277   1.817  0.0216 -0.3565 -0.0647
 4844TIP3    H114496   3.587   6.356   1.769 -0.4951 -0.9893 -1.4644
 4844TIP3    H214497   3.603   6.285   1.902  0.8296  0.9289 -0.5582
 4845TIP3   OH214498   1.322   0.171   0.744  0.0065 -0.0727  0.1205
 4845TIP3    H114499   1.241   0.145   0.787  0.1578  0.1143  0.5180
 4845TIP3    H214500   1.357   0.090   0.707 -0.1569 -0.2210  0.2925
 4846TIP3   OH214501   1.492   6.594   4.680 -0.4030 -0.1524  0.0408
 4846TIP3    H114502   1.446   6.619   4.600  0.2277 -2.0588 -0.9786
 4846TIP3    H214503   1.571   6.550   4.649  0.3595 -0.0408  1.7401
 4847TIP3   OH214504   4.983   4.534   1.497 -0.3052  0.3146 -0.3504
 4847TIP3    H114505   4.955   4.581   1.575 -0.1377 -1.2260  0.6596
 4847TIP3    H214506   5.078   4.525   1.506 -0.6161 -2.5269  0.8423
 4848TIP3   OH214507   1.731   6.466   4.645  0.0180  0.2879 -0.2910
 4848TIP3    H114508   1.785   6.545   4.653  1.4034 -0.4107 -2.0309
 4848TIP3    H214509   1.795   6.395   4.636 -1.2029 -0.7129 -1.2905
 4849TIP3   OH214510   6.967   3.546   0.223 -0.1545 -0.2828  0.3978
 4849TIP3    H114511   7.020   3.499   0.287 -1.6103 -2.2733  0.2345
 4849TIP3    H214512   6.961   3.486   0.148 -1.4915  0.4575 -0.1148
 4850TIP3   OH214513   2.316   0.019   1.557 -0.3016 -0.1469  0.3902
 4850TIP3    H114514   2.379   0.076   1.599  0.7013 -0.5074 -0.5829
 4850TIP3    H214515   2.315  -0.061   1.610  1.1167 -0.6865 -0.3558
 4851TIP3   OH214516   4.434   3.407   1.312 -0.4985 -0.0023  0.6839
 4851TIP3    H114517   4.392   3.321   1.310  1.3777 -0.9718 -0.3260
 4851TIP3    H214518   4.390   3.454   1.383 -1.3818 -1.8946  1.4550
 4852TIP3   OH214519   1.380   2.176   4.389 -0.3573 -0.8313  0.5351
 4852TIP3    H114520   1.394   2.115   4.317  1.1360 -0.5843  0.5959
 4852TIP3    H214521   1.464   2.181   4.434  0.2685  2.7939 -0.6734
 4853TIP3   OH214522   6.754   5.495   3.225  0.1912 -0.0057  0.4726
 4853TIP3    H114523   6.782   5.452   3.306 -0.5946  0.4210  0.9763
 4853TIP3    H214524   6.684   5.439   3.191 -0.7552  0.7814  1.0700
 4854TIP3   OH214525   2.974   2.478   4.998 -0.1877  0.0800 -0.3391
 4854TIP3    H114526   2.916   2.518   5.063  2.0892  1.7828  0.7851
 4854TIP3    H214527   3.013   2.404   5.044  0.9609  0.9157  0.0645
 4855TIP3   OH214528   5.537   1.742   0.958  0.0533  0.3812 -0.4539
 4855TIP3    H114529   5.512   1.677   1.024  0.4841  0.9003  0.2251
 4855TIP3    H214530   5.597   1.800   1.003  1.3461  0.0212 -1.6486
 4856TIP3   OH214531   2.224   4.344   5.082 -0.3811 -0.0420 -0.2151
 4856TIP3    H114532   2.229   4.432   5.119 -0.9225  0.0648 -0.3860
 4856TIP3    H214533   2.308   4.304   5.104 -0.2003  0.4552  0.0182
 4857TIP3   OH214534   2.965   0.771   4.910 -0.0316 -0.0775  0.0086
 4857TIP3    H114535   2.959   0.785   4.815  1.0103  1.1065  0.0934
 4857TIP3    H214536   2.881   0.732   4.934 -1.6596  2.6066 -0.8961
 4858TIP3   OH214537   1.586   6.116   1.236  0.2672 -0.7872  0.1236
 4858TIP3    H114538   1.660   6.087   1.289  0.6727 -0.1012 -0.0519
 4858TIP3    H214539   1.625   6.144   1.153 -0.1941 -0.4820  0.0012
 4859TIP3   OH214540   4.219   5.021   3.464 -0.1548  0.7232 -0.2290
 4859TIP3    H114541   4.133   4.988   3.436  0.0707 -2.5024  2.2535
 4859TIP3    H214542   4.205   5.053   3.553  1.3293 -0.8615  0.6394
 4860TIP3   OH214543   1.746   0.345   2.965 -0.2692 -0.2830 -0.4799
 4860TIP3    H114544   1.816   0.347   2.900  0.0201 -1.7755 -0.2394
 4860TIP3    H214545   1.671   0.310   2.918  0.3506 -2.8610  0.2992
 4861TIP3   OH214546   1.227   4.007   4.299  0.3059 -0.1453  0.5475
 4861TIP3    H114547   1.187   3.930   4.340 -1.9384 -0.4531 -1.9978
 4861TIP3    H214548   1.265   3.974   4.218 -1.0457  1.4266 -0.8002
 4862TIP3   OH214549   5.545   2.818   5.227 -0.0184  0.4866  0.4995
 4862TIP3    H114550   5.569   2.826   5.135  0.9741  0.6737  0.7619
 4862TIP3    H214551   5.566   2.903   5.265  2.2439 -0.4243  1.4640
 4863TIP3   OH214552   2.391   2.227   0.021 -0.0058  0.2209 -0.1702
 4863TIP3    H114553   2.474   2.180   0.010  0.2569  0.2132  1.4937
 4863TIP3    H214554   2.376   2.227   0.116 -1.7732  0.4732 -0.4085
 4864TIP3   OH214555   5.550   0.806   2.975  0.6270  0.2884 -0.4701
 4864TIP3    H114556   5.462   0.827   2.946  0.3404 -1.2833 -0.8514
 4864TIP3    H214557   5.550   0.710   2.982  1.8981  0.3537  0.8209
 4865TIP3   OH214558   4.435   1.407   0.184  0.8784  0.2620 -0.3307
 4865TIP3    H114559   4.515   1.459   0.189  1.3622 -0.5134  0.2736
 4865TIP3    H214560   4.400   1.425   0.097  1.1744  1.3854 -0.2274
 4866TIP3   OH214561   2.483   0.353   2.952  0.0412 -0.2178 -0.2629
 4866TIP3    H114562   2.553   0.302   2.992 -0.3251 -1.2623 -0.9347
 4866TIP3    H214563   2.423   0.288   2.916 -1.1811  0.6660  0.1407
 4867TIP3   OH214564   3.513   5.827   2.427  0.6037  0.1105  0.5666
 4867TIP3    H114565   3.552   5.771   2.359 -1.5980  0.1291 -0.8254
 4867TIP3    H214566   3.540   5.916   2.403 -2.2666  0.4420 -2.0129
 4868TIP3   OH214567   6.721   5.238   2.328  0.0685  0.1384  0.3190
 4868TIP3    H114568   6.769   5.319   2.312  0.6420 -0.0889  0.8129
 4868TIP3    H214569   6.734   5.186   2.249  0.4954  0.1546  0.3746
 4869TIP3   OH214570   1.689   5.857   2.831 -0.2251 -0.1367  0.3190
 4869TIP3    H114571   1.637   5.937   2.836 -2.7586 -1.6935  1.0171
 4869TIP3    H214572   1.633   5.790   2.870  1.4720 -2.4086 -0.9003
 4870TIP3   OH214573   7.194   5.424   3.398 -0.0982  0.4540  0.5899
 4870TIP3    H114574   7.261   5.431   3.466 -0.2526  0.0973  0.7830
 4870TIP3    H214575   7.160   5.335   3.407 -0.0651  0.3794 -0.0108
 4871TIP3   OH214576   2.156   4.458   5.428  0.1103 -0.4182 -0.3482
 4871TIP3    H114577   2.180   4.510   5.351 -0.8146 -0.4177 -0.6412
 4871TIP3    H214578   2.135   4.372   5.392 -1.8628  0.0074 -0.3108
 4872TIP3   OH214579   3.821   3.606   4.992  0.0960  0.3018  0.1570
 4872TIP3    H114580   3.772   3.683   5.023 -2.1472 -2.1023  3.1842
 4872TIP3    H214581   3.912   3.626   5.013 -0.5160  1.8686  1.5803
 4873TIP3   OH214582   5.100   4.465   3.506  0.4954 -0.3497  0.2217
 4873TIP3    H114583   5.158   4.437   3.577  1.5815 -1.1783 -0.9428
 4873TIP3    H214584   5.144   4.435   3.426  0.7391  2.9107 -1.0291
 4874TIP3   OH214585   1.598   1.112   4.611  0.2061 -0.0539 -0.3227
 4874TIP3    H114586   1.540   1.106   4.534 -1.1182  2.3514  0.3851
 4874TIP3    H214587   1.563   1.185   4.662  3.7928  1.4661  0.2629
 4875TIP3   OH214588   2.351   2.079   3.133 -0.1261 -0.3745  0.2079
 4875TIP3    H114589   2.294   2.098   3.208  0.6229  1.3321  0.3874
 4875TIP3    H214590   2.435   2.056   3.172 -0.4171 -2.0756 -0.0800
 4876TIP3   OH214591   3.610   4.215   4.026  0.5000 -0.1870 -0.0057
 4876TIP3    H114592   3.660   4.293   4.049  0.1328  0.2596 -0.7114
 4876TIP3    H214593   3.670   4.142   4.044  0.8214  0.2427  0.7146
 4877TIP3   OH214594   5.839   4.169   2.577  0.0934  0.1239 -0.3579
 4877TIP3    H114595   5.912   4.223   2.609 -0.1884  0.8281 -0.8763
 4877TIP3    H214596   5.809   4.121   2.654  1.2310 -0.3236 -0.1771
 4878TIP3   OH214597   5.689   3.981   1.440  0.3036  0.0637  0.8445
 4878TIP3    H114598   5.764   3.930   1.468  0.1270 -0.3178  0.6344
 4878TIP3    H214599   5.613   3.929   1.467  0.1287  0.0249  0.2935
 4879TIP3   OH214600   3.298   5.865   1.141  0.2880 -0.0454  0.4520
 4879TIP3    H114601   3.392   5.864   1.125  0.1235 -0.6164 -0.5791
 4879TIP3    H214602   3.277   5.957   1.159  1.2154 -0.0975  1.9040
 4880TIP3   OH214603   2.157   0.688   4.343  0.0301 -0.8724  0.8767
 4880TIP3    H114604   2.175   0.667   4.251 -0.7382  0.8989  0.2838
 4880TIP3    H214605   2.064   0.709   4.345 -0.3959 -2.5983  2.4492
 4881TIP3   OH214606   6.977   2.632   4.778 -0.2749  0.0244  0.0997
 4881TIP3    H114607   6.992   2.558   4.838  0.5091  0.2471  0.1961
 4881TIP3    H214608   6.906   2.682   4.819  1.9872  1.6665  2.3650
 4882TIP3   OH214609   1.968   0.450   5.110  0.3754  0.5500  0.1610
 4882TIP3    H114610   1.959   0.432   5.204  0.4893  1.5173  0.3626
 4882TIP3    H214611   1.925   0.535   5.098 -1.9370 -0.6961 -1.1167
 4883TIP3   OH214612   6.035   5.698   3.360 -0.2269  0.6313 -0.0077
 4883TIP3    H114613   6.012   5.614   3.319 -1.7280  1.6663 -1.3956
 4883TIP3    H214614   6.010   5.687   3.452 -2.0368  0.1083 -0.5247
 4884TIP3   OH214615   2.968   6.137   2.885  0.1830 -0.7302  0.3434
 4884TIP3    H114616   3.013   6.128   2.969  0.0030  0.1958  0.5417
 4884TIP3    H214617   2.902   6.068   2.886  1.7809 -2.3655 -0.0977
 4885TIP3   OH214618   0.268   3.917   2.885 -0.0289 -0.2176 -0.2421
 4885TIP3    H114619   0.298   3.992   2.938 -0.0116  0.1441 -0.7576
 4885TIP3    H214620   0.341   3.899   2.827 -0.2281 -0.3171 -0.4608
 4886TIP3   OH214621   3.094   2.082   2.055  0.1149  0.1340  0.6275
 4886TIP3    H114622   3.085   2.004   2.110  0.5076 -0.4024 -0.0594
 4886TIP3    H214623   3.024   2.140   2.086  0.3789 -0.1142  1.7491
 4887TIP3   OH214624   7.057   0.077   1.560  0.0521 -0.3723 -0.7675
 4887TIP3    H114625   7.040   0.123   1.642  0.5627  1.2288 -1.5243
 4887TIP3    H214626   7.125   0.129   1.517  0.6876 -1.8653 -1.6591
 4888TIP3   OH214627   0.845   1.711   0.139 -0.1716  0.1782  0.0252
 4888TIP3    H114628   0.827   1.687   0.230  0.3765 -0.5426 -0.0416
 4888TIP3    H214629   0.770   1.678   0.090 -0.8618  1.2898  0.3061
 4889TIP3   OH214630   5.414   5.413   1.924 -0.3658  0.0454 -0.0198
 4889TIP3    H114631   5.433   5.400   2.016 -0.7800 -0.1190  0.0410
 4889TIP3    H214632   5.395   5.326   1.890  1.6179 -0.1900 -0.6871
 4890TIP3   OH214633   6.899   3.678   1.768  0.3039  0.6392 -0.4806
 4890TIP3    H114634   6.979   3.703   1.721  0.3466  0.7389 -0.3566
 4890TIP3    H214635   6.833   3.739   1.738  0.2569  0.5142 -0.6332
 4891TIP3   OH214636   3.611   2.153   4.973 -0.1181 -0.0314  0.6649
 4891TIP3    H114637   3.672   2.131   4.903 -0.4856  1.4392 -0.1642
 4891TIP3    H214638   3.531   2.178   4.927 -0.8534 -0.4653  1.6814
 4892TIP3   OH214639   3.594   4.801   1.046 -0.3846  0.0556 -0.2324
 4892TIP3    H114640   3.613   4.710   1.023  0.7946 -0.1352  1.3142
 4892TIP3    H214641   3.540   4.795   1.125  1.5514  0.6473  1.2124
 4893TIP3   OH214642   6.416   0.754   2.486  0.4812 -0.6116  0.9164
 4893TIP3    H114643   6.507   0.768   2.512  0.7249 -0.2023 -0.1201
 4893TIP3    H214644   6.400   0.818   2.416  0.5179 -3.0256 -1.4473
 4894TIP3   OH214645   4.322   5.792   4.418  0.3678  0.3005  0.1001
 4894TIP3    H114646   4.305   5.879   4.381 -1.0009  0.2543  0.5792
 4894TIP3    H214647   4.353   5.740   4.343  1.2837  1.1975 -0.1731
 4895TIP3   OH214648   3.777   2.108   0.676 -0.3529  0.1749 -0.1351
 4895TIP3    H114649   3.861   2.128   0.634 -0.0022 -0.0540  0.4572
 4895TIP3    H214650   3.718   2.177   0.646 -0.0930  0.0494 -0.9650
 4896TIP3   OH214651   3.656   5.399   2.475  0.4474  0.2016 -0.2712
 4896TIP3    H114652   3.638   5.477   2.528  0.5047 -1.0002  1.6053
 4896TIP3    H214653   3.569   5.371   2.445  0.5285  1.6365 -2.0215
 4897TIP3   OH214654   3.890   3.487   1.312 -0.6065 -0.3782  0.5431
 4897TIP3    H114655   3.902   3.463   1.220  0.5838 -0.1206  0.6102
 4897TIP3    H214656   3.934   3.417   1.360  1.2177  0.8904  0.8038
 4898TIP3   OH214657   1.606   2.391   1.156 -0.0699  0.1217  0.2452
 4898TIP3    H114658   1.551   2.454   1.203  0.7363  0.2231  1.0745
 4898TIP3    H214659   1.569   2.306   1.179 -2.9558  0.2221 -3.0618
 4899TIP3   OH214660   0.810   4.813   5.395  0.1116 -0.5107  0.2649
 4899TIP3    H114661   0.853   4.786   5.314 -0.8629  0.2160 -0.5153
 4899TIP3    H214662   0.765   4.895   5.373 -0.9086 -0.7641  1.2930
 4900TIP3   OH214663   0.084   1.689   0.635 -0.0055  0.0327  0.1629
 4900TIP3    H114664   0.022   1.758   0.655 -1.3752 -1.4077  1.1210
 4900TIP3    H214665   0.039   1.633   0.571  1.1118  0.0595 -0.6764
 4901TIP3   OH214666   1.538   6.366   0.813  0.3542  0.0008 -0.2903
 4901TIP3    H114667   1.568   6.375   0.904 -0.4862 -0.3082  0.0289
 4901TIP3    H214668   1.585   6.435   0.766  1.4392 -0.3695  0.2068
 4902TIP3   OH214669   6.349   0.907   3.984 -0.6074 -0.3451  0.3197
 4902TIP3    H114670   6.418   0.972   3.970  0.1205 -0.4795  2.7924
 4902TIP3    H214671   6.274   0.941   3.935  0.8108  0.4315 -1.4319
 4903TIP3   OH214672   0.279   6.423   2.014 -0.0893 -0.1214 -0.1607
 4903TIP3    H114673   0.213   6.387   2.073  0.0558 -1.8819 -1.0157
 4903TIP3    H214674   0.236   6.425   1.929  0.6860 -0.4836 -0.5681
 4904TIP3   OH214675   4.797   5.651   1.226  0.3463 -0.4644  0.1850
 4904TIP3    H114676   4.806   5.658   1.131 -1.6275 -0.6076 -0.0409
 4904TIP3    H214677   4.861   5.583   1.250  1.9364  0.6027 -0.8001
 4905TIP3   OH214678   5.933   0.993   3.107  0.1687  0.1537  0.1120
 4905TIP3    H114679   5.976   1.075   3.082 -0.2198  0.5789  0.7995
 4905TIP3    H214680   5.903   1.008   3.196 -1.2285 -0.1899 -0.2694
 4906TIP3   OH214681   0.922   5.579   3.551 -0.1205  0.2535  0.2401
 4906TIP3    H114682   0.865   5.571   3.474  0.3514  4.5792 -0.8093
 4906TIP3    H214683   0.867   5.551   3.624 -1.9648 -0.2048 -1.2290
 4907TIP3   OH214684   6.740   2.145   1.132 -0.1883  0.3716 -0.1994
 4907TIP3    H114685   6.756   2.234   1.099  1.3626  0.4157  0.5924
 4907TIP3    H214686   6.692   2.102   1.061 -0.5728  1.7022 -0.7874
 4908TIP3   OH214687   5.021   0.188   2.080  0.0593  0.5013 -0.1583
 4908TIP3    H114688   4.975   0.109   2.104  2.2517 -1.1157 -0.8998
 4908TIP3    H214689   5.027   0.184   1.984  0.3222  1.5080 -0.2010
 4909TIP3   OH214690   3.185   0.665   5.767  0.1934  0.2159 -0.3229
 4909TIP3    H114691   3.137   0.745   5.747 -0.2746 -0.0965 -0.4588
 4909TIP3    H214692   3.150   0.636   5.851  0.1259 -0.0245 -0.4328
 4910TIP3   OH214693   1.377   6.135   0.776  0.4552  0.1051 -0.3233
 4910TIP3    H114694   1.302   6.190   0.750  0.9319  0.2756 -1.3858
 4910TIP3    H214695   1.436   6.196   0.820 -0.0521 -0.0459  0.5937
 4911TIP3   OH214696   2.231   3.086   2.515 -0.8705  0.4376  0.0074
 4911TIP3    H114697   2.267   3.169   2.483  0.6032  0.4026  1.4644
 4911TIP3    H214698   2.273   3.072   2.600  1.2752 -3.2564 -1.4228
 4912TIP3   OH214699   5.201   3.025   5.199  0.0710  0.0435  0.3772
 4912TIP3    H114700   5.248   3.097   5.156 -0.5364 -0.2030 -0.7251
 4912TIP3    H214701   5.244   3.017   5.284  1.6016  0.2557 -0.3373
 4913TIP3   OH214702   6.216   1.041   0.157 -0.3668  0.0775  0.0991
 4913TIP3    H114703   6.132   1.049   0.113  1.3971  1.2862 -3.4188
 4913TIP3    H214704   6.262   0.971   0.110  1.6710  1.4873 -0.1391
 4914TIP3   OH214705   4.820   4.442   5.465  0.1566 -0.0860  0.2020
 4914TIP3    H114706   4.910   4.469   5.483  0.1063  0.5058 -0.4003
 4914TIP3    H214707   4.789   4.406   5.548  0.4162  1.2101  0.8946
 4915TIP3   OH214708   6.464   6.608   1.186  0.6278 -0.0157  0.7048
 4915TIP3    H114709   6.474   6.521   1.223  1.3909  0.0807  0.7368
 4915TIP3    H214710   6.402   6.652   1.244 -2.0060 -1.4208 -0.8675
 4916TIP3   OH214711   2.157   2.093   3.871 -0.1912 -0.5534 -0.4788
 4916TIP3    H114712   2.098   2.138   3.932 -0.2430 -0.3995 -0.6424
 4916TIP3    H214713   2.237   2.145   3.872  0.9154 -2.1185  1.6695
 4917TIP3   OH214714   4.193   1.402   3.891 -0.1120  0.3419 -0.2144
 4917TIP3    H114715   4.221   1.317   3.859 -0.2772  0.5328 -0.8839
 4917TIP3    H214716   4.196   1.394   3.987  0.4166 -0.2285 -0.2690
 4918TIP3   OH214717   2.939   2.780   3.927  0.1937 -0.7496  0.2635
 4918TIP3    H114718   3.034   2.790   3.935  0.0601  1.0185 -0.1086
 4918TIP3    H214719   2.914   2.843   3.860 -1.1324 -1.9074 -0.3636
 4919TIP3   OH214720   1.109   5.527   5.478 -0.1500 -0.1988 -0.3866
 4919TIP3    H114721   1.168   5.476   5.534  0.8423 -0.1705 -1.3760
 4919TIP3    H214722   1.130   5.618   5.496 -0.8097 -0.1516  0.2018
 4920TIP3   OH214723   0.434   6.322   0.344  0.3984 -0.4589 -0.1678
 4920TIP3    H114724   0.399   6.275   0.420  0.1318 -1.2578 -0.7777
 4920TIP3    H214725   0.419   6.264   0.270 -0.5553  0.8682 -1.0575
 4921TIP3   OH214726   1.109   3.142   0.080  0.0971  0.2541 -0.5814
 4921TIP3    H114727   1.027   3.189   0.061 -1.9496 -2.6210  0.4983
 4921TIP3    H214728   1.110   3.070   0.016  1.2511 -0.3494  0.0919
 4922TIP3   OH214729   4.307   5.353   2.503 -0.6155 -0.2447 -0.0354
 4922TIP3    H114730   4.235   5.292   2.519 -0.7313  0.3583  1.9931
 4922TIP3    H214731   4.290   5.387   2.415 -2.3751 -0.7224  0.0776
 4923TIP3   OH214732   1.427   6.078   2.363  0.5948 -0.1602  0.0736
 4923TIP3    H114733   1.411   6.007   2.427 -0.7530 -0.3571 -0.4323
 4923TIP3    H214734   1.497   6.045   2.307 -0.1953 -1.2370 -0.3185
 4924TIP3   OH214735   1.398   0.811   0.459  0.3122  0.4300  0.0005
 4924TIP3    H114736   1.492   0.800   0.474  0.3366  1.6828  0.9558
 4924TIP3    H214737   1.386   0.791   0.367  1.4294 -0.2825 -0.0068
 4925TIP3   OH214738   2.317   5.012   0.257  0.2836  0.6992 -0.1326
 4925TIP3    H114739   2.313   5.107   0.263  0.8565  0.6604  1.1431
 4925TIP3    H214740   2.410   4.991   0.262  0.2365  0.1067 -1.3576
 4926TIP3   OH214741   5.333   5.319   0.928 -0.1855 -0.2412  0.1989
 4926TIP3    H114742   5.329   5.226   0.906 -0.2756  0.2304 -2.0680
 4926TIP3    H214743   5.255   5.356   0.887 -0.8885  0.6551  2.2436
 4927TIP3   OH214744   7.126   2.493   4.128 -0.8531 -0.6289  0.7672
 4927TIP3    H114745   7.130   2.450   4.042  1.0871  0.4382  0.2678
 4927TIP3    H214746   7.033   2.514   4.139 -1.0021  0.3145 -1.6669
 4928TIP3   OH214747   5.652   2.481   1.352  0.0370 -0.1164  0.4344
 4928TIP3    H114748   5.612   2.430   1.422 -0.1179  0.4244  0.7418
 4928TIP3    H214749   5.737   2.509   1.387  0.2583 -0.4223  0.1506
 4929TIP3   OH214750   0.584   4.219   1.762 -0.2789 -0.0771  0.6056
 4929TIP3    H114751   0.510   4.214   1.823 -1.0418 -0.6379 -0.3326
 4929TIP3    H214752   0.583   4.135   1.716 -1.0116  1.0754 -1.6196
 4930TIP3   OH214753   2.870   3.231   4.782  0.2249  0.0056 -0.0126
 4930TIP3    H114754   2.934   3.264   4.719 -2.1940  0.5593 -2.3705
 4930TIP3    H214755   2.821   3.165   4.734 -3.3665  2.1868  0.2920
 4931TIP3   OH214756   3.384   3.808   2.371 -0.0426  0.2053 -0.0474
 4931TIP3    H114757   3.371   3.716   2.347 -2.0804  0.1199  1.1443
 4931TIP3    H214758   3.359   3.857   2.293  2.3145 -0.2052 -1.1534
 4932TIP3   OH214759   0.416   6.783   3.477 -0.0516  0.4605  0.2750
 4932TIP3    H114760   0.341   6.728   3.459 -0.5142  1.5742 -1.4157
 4932TIP3    H214761   0.483   6.754   3.415 -0.1922  1.5409 -0.4072
 4933TIP3   OH214762   3.901   4.036   3.745 -0.7585  0.3474  0.0509
 4933TIP3    H114763   3.981   4.039   3.693  0.0323 -2.6620  0.8825
 4933TIP3    H214764   3.834   4.005   3.684 -0.9153  1.2363 -0.2385
 4934TIP3   OH214765   0.493   5.443   4.061 -0.3123 -0.1581 -0.0483
 4934TIP3    H114766   0.427   5.397   4.114 -1.1709 -0.5321 -1.3694
 4934TIP3    H214767   0.474   5.415   3.971  2.9838 -1.9625 -0.3438
 4935TIP3   OH214768   1.211   5.575   3.504 -0.0794 -0.3998 -0.3474
 4935TIP3    H114769   1.116   5.565   3.516  0.0353 -1.9027 -0.4881
 4935TIP3    H214770   1.220   5.628   3.425 -0.7895  0.6223  0.2263
 4936TIP3   OH214771   3.452   2.120   5.227 -0.1990 -0.5960 -0.1615
 4936TIP3    H114772   3.472   2.088   5.140  0.6951 -0.3937 -0.0360
 4936TIP3    H214773   3.518   2.080   5.284 -0.0426  0.2041  0.2378
 4937TIP3   OH214774   2.200   1.002   3.443  0.1999  0.1237  0.6382
 4937TIP3    H114775   2.142   1.072   3.414 -0.2336 -0.1013  0.9574
 4937TIP3    H214776   2.204   1.012   3.538  0.2039 -0.2389  0.6759
 4938TIP3   OH214777   2.580   4.115   1.473 -0.1756 -0.0112 -0.3205
 4938TIP3    H114778   2.517   4.136   1.543 -1.0462 -0.0935 -1.0581
 4938TIP3    H214779   2.637   4.049   1.512 -0.5180  0.0991  0.3914
 4939TIP3   OH214780   0.387   2.482   4.298  0.0768 -0.4553 -0.0609
 4939TIP3    H114781   0.479   2.478   4.270 -0.6632  0.6020 -3.0568
 4939TIP3    H214782   0.346   2.540   4.234 -3.0329 -2.1655  0.2164
 4940TIP3   OH214783   2.809   1.267   4.224 -0.1170 -0.1945  0.1560
 4940TIP3    H114784   2.726   1.291   4.266  0.2799  1.8926 -0.1309
 4940TIP3    H214785   2.791   1.271   4.131  0.0058 -0.9535  0.0954
 4941TIP3   OH214786   3.896   3.394   1.826 -0.1753  0.3341  0.1158
 4941TIP3    H114787   3.911   3.307   1.788 -0.5469 -0.6299  2.0367
 4941TIP3    H214788   3.958   3.400   1.899 -0.5919  1.4216  0.4073
 4942TIP3   OH214789   0.222   1.095   1.073 -0.2478 -0.2312 -0.0558
 4942TIP3    H114790   0.230   1.054   1.160 -1.1612  0.8160  0.5519
 4942TIP3    H214791   0.281   1.170   1.077 -2.3729  1.5042  0.7460
 4943TIP3   OH214792   3.913   0.018   0.091 -0.2025  0.4495 -0.5496
 4943TIP3    H114793   3.857   0.034   0.015  0.3418 -4.2281 -2.2144
 4943TIP3    H214794   3.859  -0.034   0.150  1.2360 -1.1777 -0.6032
 4944TIP3   OH214795   3.247   3.076   5.132  0.6883  0.0716 -0.3274
 4944TIP3    H114796   3.262   2.994   5.086 -2.3055  0.0670 -1.5371
 4944TIP3    H214797   3.216   3.137   5.065 -0.6508  1.0648  1.1121
 4945TIP3   OH214798   0.371   2.314   5.248 -0.0284 -0.1757 -0.5826
 4945TIP3    H114799   0.318   2.377   5.200 -1.1802  0.3569  1.2698
 4945TIP3    H214800   0.387   2.356   5.333  0.0323 -1.9285  0.3259
 4946TIP3   OH214801   1.600   5.412   5.821  0.4137  0.0260  1.1137
 4946TIP3    H114802   1.607   5.497   5.778  1.6672 -1.0271 -0.9355
 4946TIP3    H214803   1.684   5.403   5.867  1.0085 -0.7618 -0.0718
 4947TIP3   OH214804   5.985   4.455   1.188 -0.4171 -0.2793 -0.0354
 4947TIP3    H114805   5.925   4.412   1.127  0.3924 -0.7976 -0.4885
 4947TIP3    H214806   6.019   4.530   1.139 -0.0486 -0.4833 -0.0995
 4948TIP3   OH214807   5.606   2.887   2.812  0.3605  0.9046 -0.3750
 4948TIP3    H114808   5.536   2.822   2.817 -0.2027  1.5794  2.9434
 4948TIP3    H214809   5.684   2.842   2.844  0.5985  1.1233 -0.6434
 4949TIP3   OH214810   6.060   0.244   1.958 -0.5104 -0.2905 -0.4840
 4949TIP3    H114811   5.997   0.175   1.939 -1.0920  0.4064 -1.1887
 4949TIP3    H214812   6.092   0.225   2.046 -0.8745 -1.2847 -0.5617
 4950TIP3   OH214813   7.110   0.559   0.815  0.5179 -0.1857  0.4998
 4950TIP3    H114814   7.059   0.483   0.844  0.4716 -0.2297  0.3030
 4950TIP3    H214815   7.051   0.606   0.755  0.3326  0.3198  1.0673
 4951TIP3   OH214816   4.945   2.248   4.829  0.7618  0.4531 -0.8784
 4951TIP3    H114817   4.882   2.184   4.863  0.6077  0.9471 -0.2174
 4951TIP3    H214818   5.028   2.200   4.825  1.0492  0.6845  1.3216
 4952TIP3   OH214819   2.695   2.203   0.820 -0.1006  0.3773 -0.2519
 4952TIP3    H114820   2.606   2.167   0.818  0.1340 -0.4129  1.2398
 4952TIP3    H214821   2.685   2.292   0.852 -0.2769 -0.1675  1.2933
 4953TIP3   OH214822   1.177   4.550   3.967  0.2225 -0.3670  0.1249
 4953TIP3    H114823   1.208   4.546   4.058 -2.8298  0.2273  1.3217
 4953TIP3    H214824   1.177   4.643   3.945 -1.3149 -0.2609  0.4522
 4954TIP3   OH214825   0.519   0.793   1.963  0.0520  0.1298  0.3613
 4954TIP3    H114826   0.480   0.843   1.892  0.2023  0.8988  0.8033
 4954TIP3    H214827   0.613   0.811   1.957  0.6103 -2.7613 -1.5162
 4955TIP3   OH214828   2.369   1.510   0.785  0.0047 -0.1371  0.6932
 4955TIP3    H114829   2.296   1.518   0.848 -1.2661 -1.3542 -0.5455
 4955TIP3    H214830   2.403   1.599   0.777  1.2052 -0.1379  4.1829
 4956TIP3   OH214831   0.375   3.507   2.358 -0.3936  0.4173  0.1961
 4956TIP3    H114832   0.405   3.577   2.416 -0.3709  1.2850 -0.8346
 4956TIP3    H214833   0.455   3.466   2.326 -0.4154 -0.4600  1.2330
 4957TIP3   OH214834   7.146   2.145   1.931  0.1174  0.2880 -0.4250
 4957TIP3    H114835   7.126   2.072   1.990  1.3551 -0.5019 -0.9326
 4957TIP3    H214836   7.081   2.137   1.861 -0.1489  0.0608 -0.1585
 4958TIP3   OH214837   0.154   2.653   4.109 -0.6442 -0.0471  0.0675
 4958TIP3    H114838   0.203   2.630   4.031 -1.5400  0.4569 -0.6552
 4958TIP3    H214839   0.103   2.574   4.129 -1.2206  0.1719 -0.4932
 4959TIP3   OH214840   4.321   4.278   5.564 -0.4382 -0.2123 -0.6379
 4959TIP3    H114841   4.348   4.228   5.641  1.3923 -2.4264 -2.5547
 4959TIP3    H214842   4.399   4.280   5.508 -1.6614  1.3824 -2.4054
 4960TIP3   OH214843   4.476   0.281   5.787 -0.2314 -0.5499  0.1665
 4960TIP3    H114844   4.399   0.231   5.812  0.8443 -1.5205  1.6870
 4960TIP3    H214845   4.491   0.341   5.860 -0.3481  0.6353 -0.7491
 4961TIP3   OH214846   0.932   4.615   2.295  0.3311 -0.5165 -0.2844
 4961TIP3    H114847   1.016   4.656   2.313 -0.2019  0.4163  0.1963
 4961TIP3    H214848   0.882   4.626   2.377 -1.0817  1.0807 -1.2779
 4962TIP3   OH214849   6.791   0.544   0.364 -0.7803 -0.0928  0.1617
 4962TIP3    H114850   6.796   0.531   0.269 -0.5720  1.3622 -0.0622
 4962TIP3    H214851   6.709   0.503   0.390 -1.2866  0.2587 -0.8080
 4963TIP3   OH214852   2.201   5.708   4.619  0.5103 -0.2046 -0.3818
 4963TIP3    H114853   2.285   5.669   4.592  0.9997  0.4137  0.2175
 4963TIP3    H214854   2.189   5.679   4.709  0.0005 -0.4022 -0.5083
 4964TIP3   OH214855   4.151   6.467   0.394 -0.4369  0.2861  0.1378
 4964TIP3    H114856   4.134   6.449   0.486  1.3220  0.5764  0.5557
 4964TIP3    H214857   4.198   6.389   0.363 -0.9147  0.2401 -0.4922
 4965TIP3   OH214858   1.311   2.851   5.586  0.2585  0.0285 -0.0596
 4965TIP3    H114859   1.228   2.858   5.633  0.4746 -0.6012  0.4239
 4965TIP3    H214860   1.291   2.881   5.497 -0.3625  0.3677  0.1945
 4966TIP3   OH214861   2.871   4.748   0.314 -0.0459 -0.5706 -0.6101
 4966TIP3    H114862   2.841   4.673   0.263 -0.4046 -1.2687  0.5843
 4966TIP3    H214863   2.802   4.762   0.379  0.6134 -0.0119 -0.0099
 4967TIP3   OH214864   2.264   4.271   5.611  0.0992 -0.1825  0.1457
 4967TIP3    H114865   2.291   4.179   5.608  3.7086  0.5831  2.2550
 4967TIP3    H214866   2.295   4.308   5.529 -0.4872 -0.6361 -0.2873
 4968TIP3   OH214867   4.245   4.770   2.315 -0.3920 -0.4277  0.6516
 4968TIP3    H114868   4.165   4.718   2.312 -2.4022  2.4923 -0.0096
 4968TIP3    H214869   4.255   4.795   2.407  0.0812 -1.1848  0.8170
 4969TIP3   OH214870   1.229   5.224   0.833 -0.4330  0.0681  0.3706
 4969TIP3    H114871   1.137   5.221   0.808 -0.1990  0.2939 -0.5694
 4969TIP3    H214872   1.276   5.232   0.750  0.3149  2.5681  0.9349
 4970TIP3   OH214873   4.625   3.419   0.639 -0.8876 -0.3027 -0.3569
 4970TIP3    H114874   4.635   3.494   0.698  0.0676  0.8780 -1.9720
 4970TIP3    H214875   4.645   3.343   0.694  1.4656  0.8602  0.5105
 4971TIP3   OH214876   4.610   5.458   5.229 -0.2995  0.4743 -0.1982
 4971TIP3    H114877   4.565   5.474   5.312 -1.4425  2.1123 -1.0678
 4971TIP3    H214878   4.585   5.369   5.206 -0.4979  0.2250  0.8943
 4972TIP3   OH214879   1.179   5.967   2.029  0.7717 -0.4083 -0.2558
 4972TIP3    H114880   1.112   6.009   2.083  1.9603  0.2491  0.7678
 4972TIP3    H214881   1.135   5.948   1.946 -1.6009 -2.9426  1.4094
 4973TIP3   OH214882   7.160   3.141   5.730 -0.2651 -0.1140 -0.4282
 4973TIP3    H114883   7.232   3.109   5.784  0.2624  1.2110 -0.3166
 4973TIP3    H214884   7.173   3.097   5.645  0.6103  0.0143 -0.3707
 4974TIP3   OH214885   3.383   2.886   4.155 -0.0744 -0.0183  0.0205
 4974TIP3    H114886   3.294   2.921   4.157  0.4179  1.3983 -1.1956
 4974TIP3    H214887   3.436   2.953   4.197  0.7776  0.3593 -1.5953
 4975TIP3   OH214888   4.617   1.545   5.500  0.3470 -0.1021 -0.7412
 4975TIP3    H114889   4.620   1.479   5.570  0.1768 -0.5066 -1.1117
 4975TIP3    H214890   4.705   1.546   5.464  0.2469 -0.4174 -0.9992
 4976TIP3   OH214891   5.900   0.731   1.132  0.3102  0.6085  0.0182
 4976TIP3    H114892   5.955   0.774   1.067  0.7396  0.3335  0.1939
 4976TIP3    H214893   5.959   0.713   1.205  0.1533 -0.3463 -0.0806
 4977TIP3   OH214894   1.129   4.212   1.555  0.1508 -0.3029 -0.2829
 4977TIP3    H114895   1.122   4.184   1.463  0.0552  1.0064 -0.7014
 4977TIP3    H214896   1.219   4.194   1.579  0.9389  1.6839 -1.4859
 4978TIP3   OH214897   5.237   0.998   4.832  0.3004  0.4910  0.2865
 4978TIP3    H114898   5.199   0.911   4.819 -2.3230  1.7556 -1.3989
 4978TIP3    H214899   5.281   0.993   4.917 -0.9966 -2.0537  0.8986
 4979TIP3   OH214900   2.783   6.611   3.645 -0.3268  0.0261 -0.4828
 4979TIP3    H114901   2.818   6.625   3.733 -2.1788 -1.2844  0.5363
 4979TIP3    H214902   2.780   6.699   3.606  0.5416  0.6327  0.7470
 4980TIP3   OH214903   5.144   3.335   3.201  0.2622  0.3831  0.2164
 4980TIP3    H114904   5.188   3.389   3.267  0.2704  1.8366 -0.9003
 4980TIP3    H214905   5.055   3.370   3.198 -0.5945 -1.5340  1.3843
 4981TIP3   OH214906   6.528   4.178   4.330  0.6192  0.3020 -0.1587
 4981TIP3    H114907   6.575   4.190   4.413  0.2281  2.5674 -0.2145
 4981TIP3    H214908   6.465   4.108   4.348  0.7559  0.5388  1.3605
 4982TIP3   OH214909   6.472   6.495   4.032  0.1495 -0.0887 -0.2726
 4982TIP3    H114910   6.551   6.451   4.064  0.4525  1.0709  0.6681
 4982TIP3    H214911   6.452   6.560   4.100 -1.1777  0.1498 -0.8621
 4983TIP3   OH214912   4.886   6.565   5.612  0.3959  0.3930 -0.2952
 4983TIP3    H114913   4.866   6.651   5.649 -1.2444  0.2639 -0.8209
 4983TIP3    H214914   4.936   6.584   5.533 -0.2078  0.8952 -0.5681
 4984TIP3   OH214915   6.853   3.138   4.654  0.5865 -0.2396 -0.2347
 4984TIP3    H114916   6.916   3.201   4.619  0.9032 -0.2185  0.3551
 4984TIP3    H214917   6.886   3.053   4.626 -0.2458 -0.1247 -1.6731
 4985TIP3   OH214918   3.166   2.200   0.942 -0.2347  0.2698  0.3393
 4985TIP3    H114919   3.226   2.174   0.872  1.0595 -2.1084  2.1974
 4985TIP3    H214920   3.081   2.167   0.914 -0.4776  2.2919 -1.5872
 4986TIP3   OH214921   2.077   2.936   4.578 -0.1249  0.4887 -0.3682
 4986TIP3    H114922   2.133   2.892   4.641 -1.1501  0.6079  0.6602
 4986TIP3    H214923   2.101   2.898   4.494  2.3120  1.3619 -0.1663
 4987TIP3   OH214924   3.674   2.176   1.811  0.3584 -0.5086  0.0617
 4987TIP3    H114925   3.582   2.192   1.790  0.2073 -0.3562  0.8038
 4987TIP3    H214926   3.682   2.081   1.815  0.7955 -0.6475 -2.3530
 4988TIP3   OH214927   1.985   3.984   4.491 -0.0375  0.0187  0.2410
 4988TIP3    H114928   1.891   3.967   4.491 -0.1816  0.7800  1.2467
 4988TIP3    H214929   1.994   4.077   4.509  0.8415  0.5798 -2.5180
 4989TIP3   OH214930   4.367   5.862   2.061  0.0362  0.2890  0.2530
 4989TIP3    H114931   4.369   5.841   1.968  1.0271 -1.0198  0.5446
 4989TIP3    H214932   4.454   5.897   2.081 -0.0981  0.3641  0.7301
 4990TIP3   OH214933   3.791   0.920   3.988  0.1933 -0.0974  0.1805
 4990TIP3    H114934   3.701   0.932   4.017  0.7386  2.0076  1.1954
 4990TIP3    H214935   3.839   0.896   4.067  0.6225 -0.6836 -0.2478
 4991TIP3   OH214936   0.207   6.191   5.853  0.5638 -0.4494  0.4963
 4991TIP3    H114937   0.156   6.194   5.773 -0.0357 -1.6668  0.7958
 4991TIP3    H214938   0.297   6.173   5.824  0.4410 -0.3867  0.0759
 4992TIP3   OH214939   1.170   0.097   2.063 -1.0790  0.2478 -0.3209
 4992TIP3    H114940   1.196   0.165   2.000 -1.4626  0.2007 -0.5331
 4992TIP3    H214941   1.079   0.078   2.042 -1.5937  1.0803  1.0162
 4993TIP3   OH214942   0.719   2.001   5.050 -0.5038  0.0203 -0.5427
 4993TIP3    H114943   0.729   2.096   5.043  0.3685  0.2362  2.2558
 4993TIP3    H214944   0.631   1.988   5.083  0.1453  0.0662  1.2964
 4994TIP3   OH214945   4.719   0.654   5.876  0.0580  0.1856  0.0036
 4994TIP3    H114946   4.757   0.738   5.849  0.7975  0.1902  1.0060
 4994TIP3    H214947   4.630   0.675   5.903 -0.6262  0.2311 -2.0639
 4995TIP3   OH214948   6.686   3.500   5.827  0.0673  0.1294  0.6186
 4995TIP3    H114949   6.651   3.413   5.807 -0.6900  0.3615  0.8787
 4995TIP3    H214950   6.777   3.497   5.799  0.3246 -1.0619  1.4859
 4996TIP3   OH214951   0.241   1.663   0.863  0.0716 -0.2733  0.6104
 4996TIP3    H114952   0.312   1.719   0.831 -0.1560  0.2484  0.9989
 4996TIP3    H214953   0.184   1.651   0.787  1.0813 -1.5219  0.0240
 4997TIP3   OH214954   0.123   5.495   0.885  0.1164 -0.2726 -0.2316
 4997TIP3    H114955   0.124   5.423   0.821  1.5705  0.3158 -0.8952
 4997TIP3    H214956   0.059   5.557   0.849  0.0392 -0.4923 -0.4827
 4998TIP3   OH214957   5.761   5.059   3.428  0.1160  0.3574  0.0823
 4998TIP3    H114958   5.730   5.093   3.344  0.2141  1.0995  0.3439
 4998TIP3    H214959   5.722   4.972   3.434  0.6133  0.0373 -1.0158
 4999TIP3   OH214960   3.610   4.893   4.820  0.3133 -0.1488 -0.2149
 4999TIP3    H114961   3.618   4.949   4.743 -0.7681 -0.3412 -0.4839
 4999TIP3    H214962   3.669   4.819   4.802  0.6762  0.2006 -0.4857
 5000TIP3   OH214963   4.646   6.729   4.395  0.0059  0.8181 -0.0898
 5000TIP3    H114964   4.697   6.794   4.346 -1.0542  2.8740  1.3763
 5000TIP3    H214965   4.626   6.661   4.331  2.1237  1.3421 -1.4161
 5001TIP3   OH214966   1.215   0.036   3.715 -0.0276  0.0183 -0.4920
 5001TIP3    H114967   1.193  -0.058   3.713  1.5857 -0.3967 -0.0076
 5001TIP3    H214968   1.307   0.039   3.687  0.1234  1.4039  0.1127
 5002TIP3   OH214969   2.204   3.928   1.371 -0.0193  0.1638  0.4919
 5002TIP3    H114970   2.232   3.931   1.463 -0.9522  2.7625  0.7841
 5002TIP3    H214971   2.247   4.003   1.330  0.6529 -1.1519 -1.3345
 5003TIP3   OH214972   6.907   0.666   3.105 -0.2150  0.7016 -0.4180
 5003TIP3    H114973   6.885   0.708   3.021 -0.4724 -0.5499 -0.9997
 5003TIP3    H214974   6.836   0.691   3.164  0.4290  2.3497 -0.2707
 5004TIP3   OH214975   0.415   2.783   2.729 -0.2328 -0.5341  0.0157
 5004TIP3    H114976   0.482   2.740   2.675  0.3687  1.8667 -1.2963
 5004TIP3    H214977   0.449   2.872   2.743 -1.3862 -0.4032  2.6224
 5005TIP3   OH214978   5.221   2.835   1.019  0.4162  0.5518  0.0037
 5005TIP3    H114979   5.146   2.855   0.963  0.6331  1.3272 -0.0212
 5005TIP3    H214980   5.290   2.810   0.958 -0.1668 -1.3817  0.0910
 5006TIP3   OH214981   3.126   6.261   3.305  0.0578 -0.0972 -0.0265
 5006TIP3    H114982   3.118   6.238   3.398 -1.6522  1.1143  0.1785
 5006TIP3    H214983   3.177   6.342   3.305  0.9070 -0.6261 -0.2385
 5007TIP3   OH214984   1.998   2.464   4.523 -0.1619  0.5034 -0.5421
 5007TIP3    H114985   2.037   2.379   4.499  0.0834  0.3763  0.2677
 5007TIP3    H214986   1.968   2.451   4.614 -0.0639  1.3053 -0.3934
 5008TIP3   OH214987   2.917   5.753   4.075  0.6379  0.1332 -0.2441
 5008TIP3    H114988   2.923   5.767   3.981 -0.5207 -1.4982 -0.6012
 5008TIP3    H214989   2.859   5.678   4.085  0.5248  0.4196  1.7908
 5009TIP3   OH214990   5.813   2.069   2.560  0.4444 -0.2122  0.2168
 5009TIP3    H114991   5.832   1.975   2.571  1.9619  0.2080  1.5937
 5009TIP3    H214992   5.723   2.079   2.591  0.6476 -1.0385  1.1116
 5010TIP3   OH214993   4.031   2.325   3.097  0.0155 -0.6664  0.1259
 5010TIP3    H114994   3.973   2.270   3.151 -0.1016  0.1203  0.8258
 5010TIP3    H214995   4.061   2.393   3.157  0.6570 -0.3296 -0.5686
 5011TIP3   OH214996   3.396   3.444   5.747 -0.1757  0.5583  0.4146
 5011TIP3    H114997   3.412   3.367   5.692 -0.0891  1.2816 -0.6080
 5011TIP3    H214998   3.317   3.483   5.710 -1.8574 -0.5290  2.6448
 5012TIP3   OH214999   6.683   2.241   2.255  0.1680  0.6326 -0.7890
 5012TIP3    H115000   6.748   2.240   2.325  0.4716 -1.7150 -1.0052
 5012TIP3    H215001   6.719   2.299   2.189  1.5845  0.1467 -0.4699
 5013TIP3   OH215002   6.680   0.900   3.476 -0.0244 -0.7213 -1.0475
 5013TIP3    H115003   6.645   0.983   3.444 -2.6673 -1.0146  0.7446
 5013TIP3    H215004   6.746   0.925   3.541  0.3120 -0.0877 -1.6160
 5014TIP3   OH215005   0.326   1.428   1.250 -0.1403 -0.8016  0.0374
 5014TIP3    H115006   0.408   1.388   1.281 -1.1888 -1.7969  1.6899
 5014TIP3    H215007   0.259   1.392   1.308 -1.5070  1.4646 -0.0336
 5015TIP3   OH215008   2.662   2.867   1.956 -0.1159 -0.1286  0.2185
 5015TIP3    H115009   2.663   2.839   2.048 -1.4026  0.4774  0.4344
 5015TIP3    H215010   2.733   2.931   1.950 -0.9122  0.8642  1.1444
 5016TIP3   OH215011   7.040   0.218   2.322  0.4294  0.1273 -0.4479
 5016TIP3    H115012   7.081   0.204   2.407  0.9523  0.4042 -0.6436
 5016TIP3    H215013   7.093   0.166   2.261  0.5848  0.6063 -0.7281
 5017TIP3   OH215014   5.254   4.118   1.501  0.1047  0.0951 -0.1911
 5017TIP3    H115015   5.316   4.166   1.446 -0.6790  1.3622  0.0089
 5017TIP3    H215016   5.168   4.137   1.463 -0.3473  0.0842  0.7981
 5018TIP3   OH215017   7.103   4.178   2.393  0.4106  0.4264 -0.3816
 5018TIP3    H115018   7.130   4.087   2.400  1.5769  0.7551 -0.4398
 5018TIP3    H215019   7.173   4.228   2.435 -2.2863  1.0931  3.9694
 5019TIP3   OH215020   0.363   3.593   2.079 -0.3057 -0.1769  0.1074
 5019TIP3    H115021   0.353   3.587   2.174  1.0631  3.0236  0.5796
 5019TIP3    H215022   0.434   3.532   2.059 -1.0257 -1.3692  0.9804
 5020TIP3   OH215023   0.444   6.111   0.163 -0.2187 -0.6627 -0.0274
 5020TIP3    H115024   0.438   6.097   0.068  0.9064  0.0860 -0.2287
 5020TIP3    H215025   0.360   6.080   0.197 -0.2382 -1.9170 -1.1452
 5021TIP3   OH215026   3.723   5.092   2.315 -0.6766  0.0076 -0.0999
 5021TIP3    H115027   3.764   5.042   2.386  1.3116  1.4155 -0.1846
 5021TIP3    H215028   3.630   5.069   2.320 -0.2908 -1.3352  1.7790
 5022TIP3   OH215029   5.794   2.246   3.250 -0.0380 -0.0024  0.6402
 5022TIP3    H115030   5.782   2.228   3.157 -0.0437  0.1238  0.6162
 5022TIP3    H215031   5.710   2.223   3.290 -0.3538  0.8261  0.4796
 5023TIP3   OH215032   4.570   4.335   4.964  0.5358 -0.3534 -0.5406
 5023TIP3    H115033   4.627   4.395   5.012  0.0504  1.1168 -1.7280
 5023TIP3    H215034   4.551   4.380   4.882 -2.2900 -0.7924 -0.2274
 5024TIP3   OH215035   3.977   2.127   1.314  0.3992  0.7419 -0.5444
 5024TIP3    H115036   4.051   2.066   1.304 -0.6781 -0.8927  0.8246
 5024TIP3    H215037   3.955   2.122   1.407 -1.2446  1.4250 -0.8731
 5025TIP3   OH215038   0.384   4.132   2.988  0.1641  0.4190 -0.1641
 5025TIP3    H115039   0.462   4.086   2.959 -0.5581 -0.6813 -0.4333
 5025TIP3    H215040   0.372   4.201   2.923  0.8559  0.5393 -0.1706
 5026TIP3   OH215041   0.483   6.513   4.152 -0.5733 -0.1176  0.4298
 5026TIP3    H115042   0.459   6.605   4.164  0.6094  0.3549 -0.6046
 5026TIP3    H215043   0.568   6.516   4.108  0.0044 -1.7061  1.3455
 5027TIP3   OH215044   6.540   3.475   3.062 -0.3046  0.1316  0.0745
 5027TIP3    H115045   6.633   3.488   3.045 -0.3987  0.9425  0.1645
 5027TIP3    H215046   6.499   3.477   2.975 -0.3985  1.1561  0.1288
 5028TIP3   OH215047   2.483   1.728   3.106 -0.8479  0.0668 -0.6378
 5028TIP3    H115048   2.487   1.721   3.201 -0.8429  1.1997 -0.5422
 5028TIP3    H215049   2.396   1.765   3.088 -0.6369  0.3805 -1.0354
 5029TIP3   OH215050   4.367   4.645   0.162  0.9528  0.1519 -0.1231
 5029TIP3    H115051   4.342   4.709   0.095 -0.9473 -0.1262  0.2784
 5029TIP3    H215052   4.404   4.697   0.233  0.6483  0.6864 -0.3508
 5030TIP3   OH215053   4.417   4.898   1.420 -0.3931 -0.4976 -0.4418
 5030TIP3    H115054   4.405   4.868   1.510 -0.7544  0.8283 -0.0251
 5030TIP3    H215055   4.347   4.962   1.406 -0.7038 -1.1030 -1.8633
 5031TIP3   OH215056   1.999   1.734   1.872  0.2144  0.8704  1.0927
 5031TIP3    H115057   1.966   1.731   1.782  0.2209  3.6719  0.9193
 5031TIP3    H215058   2.090   1.705   1.865  0.1726  0.9239  0.2421
 5032TIP3   OH215059   1.908   0.035   1.757  0.5323  0.1940 -0.2387
 5032TIP3    H115060   1.936   0.109   1.703  0.6632  1.0594  0.9704
 5032TIP3    H215061   1.959  -0.039   1.724  3.4262  1.4630  1.0584
 5033TIP3   OH215062   5.015   2.598   1.918  0.4523 -0.0810 -0.1428
 5033TIP3    H115063   5.055   2.684   1.902 -1.4731  0.6364 -1.4613
 5033TIP3    H215064   4.955   2.613   1.991 -0.7669  0.0264 -1.1388
 5034TIP3   OH215065   3.123   0.711   5.128  0.5461 -0.0688  0.8464
 5034TIP3    H115066   3.075   0.694   5.047  0.2941 -0.2199  1.0236
 5034TIP3    H215067   3.214   0.723   5.101  0.0827  2.5739  0.2053
 5035TIP3   OH215068   3.182   3.635   4.844  0.3826  0.4140 -0.3238
 5035TIP3    H115069   3.192   3.540   4.834  0.1072  0.3601 -0.0999
 5035TIP3    H215070   3.236   3.656   4.920 -0.6974  0.2088  0.5324
 5036TIP3   OH215071   4.128   3.929   2.374 -0.2451  0.5624  0.0610
 5036TIP3    H115072   4.219   3.913   2.397  0.2275  2.0852 -0.5655
 5036TIP3    H215073   4.088   3.963   2.454 -0.4436 -0.6912  0.5092
 5037TIP3   OH215074   5.691   1.233   4.090 -0.0354  0.3645 -0.0255
 5037TIP3    H115075   5.761   1.188   4.042  0.2425 -0.3131  0.9865
 5037TIP3    H215076   5.649   1.165   4.141 -0.2494  1.0897  0.7891
 5038TIP3   OH215077   6.394   4.536   2.675  0.2610 -0.1716  0.1164
 5038TIP3    H115078   6.383   4.494   2.761 -1.0721  1.4503  0.8015
 5038TIP3    H215079   6.308   4.572   2.656  1.3801  2.4880 -0.2741
 5039TIP3   OH215080   4.134   4.197   2.589  0.1490  0.1719 -0.2825
 5039TIP3    H115081   4.168   4.226   2.673 -3.0207  1.2091  0.8123
 5039TIP3    H215082   4.171   4.258   2.526  1.5927  0.1586  0.5110
 5040TIP3   OH215083   3.507   6.266   4.216  0.0440  0.6555 -0.3935
 5040TIP3    H115084   3.507   6.296   4.125  0.3672  1.2493 -0.1982
 5040TIP3    H215085   3.565   6.190   4.216  1.0869  1.4417 -0.4288
 5041TIP3   OH215086   2.874   6.631   4.711 -0.3818 -0.0548 -0.1748
 5041TIP3    H115087   2.820   6.703   4.677  2.0174  0.4610 -3.4595
 5041TIP3    H215088   2.948   6.675   4.753  0.9862 -0.4749 -2.0069
 5042TIP3   OH215089   2.500   1.408   3.009  0.1787 -0.1862 -0.2929
 5042TIP3    H115090   2.441   1.467   2.962  1.1838 -0.2742 -1.7062
 5042TIP3    H215091   2.582   1.456   3.017  0.4441 -0.6978  0.1805
 5043TIP3   OH215092   4.196   1.478   4.550  0.7010  0.3382 -0.2608
 5043TIP3    H115093   4.174   1.391   4.519  1.0032  0.1707 -0.0198
 5043TIP3    H215094   4.282   1.497   4.511  1.2577 -0.0275  0.7375
 5044TIP3   OH215095   0.679   2.269   3.337 -0.8190  0.2511 -0.1226
 5044TIP3    H115096   0.605   2.229   3.382 -0.2468 -0.4158  0.2474
 5044TIP3    H215097   0.640   2.329   3.273 -1.7312 -1.1882 -0.9722
 5045TIP3   OH215098   5.630   5.883   3.794  0.4917 -0.4515  0.2720
 5045TIP3    H115099   5.608   5.969   3.760 -2.1583 -1.7338 -1.5997
 5045TIP3    H215100   5.710   5.859   3.749 -0.0737  0.0831 -1.0748
 5046TIP3   OH215101   6.405   4.443   4.495  0.2683 -0.0482 -0.2636
 5046TIP3    H115102   6.471   4.421   4.429 -0.5391 -0.6945 -0.8820
 5046TIP3    H215103   6.360   4.519   4.460  0.7743  0.4882  0.2320
 5047TIP3   OH215104   6.198   4.359   2.000 -0.4287  0.3822 -0.2563
 5047TIP3    H115105   6.141   4.285   1.981 -0.6205  0.5437 -0.3143
 5047TIP3    H215106   6.150   4.436   1.968 -1.3920  0.8427  2.0764
 5048TIP3   OH215107   5.684   1.037   3.272 -0.1334  0.2514 -0.1877
 5048TIP3    H115108   5.620   1.081   3.215 -0.9374 -2.2086 -1.3057
 5048TIP3    H215109   5.632   1.002   3.344  0.2605 -0.1322 -0.0862
 5049TIP3   OH215110   2.007   6.248   0.307  0.0908  0.0017 -0.2938
 5049TIP3    H115111   1.969   6.240   0.220 -0.8688  0.0604  0.1054
 5049TIP3    H215112   2.061   6.170   0.318 -1.1837 -0.9158 -0.2793
 5050TIP3   OH215113   3.415   5.819   4.154 -0.2546  0.3151  0.2964
 5050TIP3    H115114   3.442   5.731   4.129 -0.9908 -0.0506  0.7453
 5050TIP3    H215115   3.326   5.808   4.187 -0.2335  1.1752  0.6643
 5051TIP3   OH215116   4.351   0.276   3.398 -0.4316 -0.3981  0.2364
 5051TIP3    H115117   4.293   0.211   3.436 -0.3839  0.4224  1.8074
 5051TIP3    H215118   4.424   0.283   3.460  0.5599 -0.2513 -0.8898
 5052TIP3   OH215119   3.068   0.035   3.292 -0.2775  0.4223 -0.3077
 5052TIP3    H115120   3.020   0.108   3.253 -1.4604  0.7157  1.5579
 5052TIP3    H215121   3.066  -0.033   3.226 -0.3059  1.6251 -1.5838
 5053TIP3   OH215122   0.207   0.764   4.173  0.1242 -0.3539  0.3669
 5053TIP3    H115123   0.137   0.813   4.130 -1.2263 -2.2961  0.2447
 5053TIP3    H215124   0.285   0.781   4.119 -0.8060 -0.1181 -0.9378
 5054TIP3   OH215125   3.094   3.778   2.544  0.0302  0.0978 -0.0811
 5054TIP3    H115126   3.180   3.745   2.569 -0.1493 -0.5904 -0.3594
 5054TIP3    H215127   3.058   3.816   2.624 -0.3282 -1.6143  0.6188
 5055TIP3   OH215128   6.067   6.707   4.539 -0.2463 -0.7614  0.1582
 5055TIP3    H115129   6.071   6.777   4.475 -0.9059  0.1660  1.0988
 5055TIP3    H215130   6.096   6.629   4.492  0.3739  0.1144 -0.9352
 5056TIP3   OH215131   2.875   5.230   1.249  0.0622 -0.0913  0.0491
 5056TIP3    H115132   2.912   5.295   1.309 -0.7762  0.9394 -0.5350
 5056TIP3    H215133   2.859   5.153   1.305 -0.6932  0.8478  1.1651
 5057TIP3   OH215134   3.608   4.777   0.315 -0.2173 -0.5451 -0.0121
 5057TIP3    H115135   3.623   4.719   0.240 -0.8634  0.2785 -0.7900
 5057TIP3    H215136   3.693   4.782   0.358 -0.2008 -2.3102  0.2676
 5058TIP3   OH215137   3.029   2.263   2.634  0.7202  0.4974 -0.5968
 5058TIP3    H115138   3.111   2.218   2.610  0.8260  0.0346  0.5567
 5058TIP3    H215139   3.038   2.350   2.595  2.1728  0.7611  0.2379
 5059TIP3   OH215140   5.301   3.615   1.533  0.1137  0.3847  0.0079
 5059TIP3    H115141   5.265   3.565   1.460 -0.5627  1.0860 -0.1565
 5059TIP3    H215142   5.300   3.554   1.607 -0.4457  0.0743 -0.2505
 5060TIP3   OH215143   6.003   3.902   2.687  0.5343 -0.5099 -0.1260
 5060TIP3    H115144   6.078   3.901   2.628  0.5186 -0.7835 -0.1415
 5060TIP3    H215145   5.976   3.811   2.694  0.0854 -0.3896 -0.2630
 5061TIP3   OH215146   1.435   0.317   0.996  0.2128 -0.7177 -0.8641
 5061TIP3    H115147   1.435   0.222   0.996  1.0526 -0.7252 -0.1411
 5061TIP3    H215148   1.515   0.341   0.949 -0.4914 -0.3473 -1.9202
 5062TIP3   OH215149   3.414   0.351   1.849  0.0715 -0.6766  0.3789
 5062TIP3    H115150   3.494   0.302   1.835 -0.4750 -1.3938 -0.3626
 5062TIP3    H215151   3.368   0.304   1.919 -0.0447 -0.7014  0.2864
 5063TIP3   OH215152   6.622   5.940   2.961 -1.0989 -0.0701 -0.0511
 5063TIP3    H115153   6.636   5.967   3.051 -1.2891 -0.1883  0.0133
 5063TIP3    H215154   6.671   5.859   2.952  0.8985  1.1249 -0.7183
 5064TIP3   OH215155   2.477   3.746   2.190 -0.1047 -0.2311 -0.0605
 5064TIP3    H115156   2.518   3.720   2.108 -0.9454  0.7826 -0.8340
 5064TIP3    H215157   2.396   3.696   2.194  0.8243 -1.7437  1.1498
 5065TIP3   OH215158   5.470   2.641   2.816  0.1939  0.4960 -0.1089
 5065TIP3    H115159   5.490   2.624   2.908  1.1232 -0.1886 -0.4295
 5065TIP3    H215160   5.536   2.593   2.767  0.1484  1.4275 -1.1382
 5066TIP3   OH215161   1.305   4.521   0.041  0.2216 -0.3772 -0.8131
 5066TIP3    H115162   1.222   4.489   0.073 -0.5524  0.6787 -1.6690
 5066TIP3    H215163   1.328   4.593   0.099  0.9072 -1.1045 -0.1573
 5067TIP3   OH215164   7.115   6.713   3.121  0.2377 -0.0747  0.1686
 5067TIP3    H115165   7.037   6.768   3.114  0.1426 -0.1858  0.3546
 5067TIP3    H215166   7.124   6.672   3.036  1.5403  1.8905 -0.7306
 5068TIP3   OH215167   4.482   2.482   0.896  0.2942  1.0838  0.5138
 5068TIP3    H115168   4.457   2.480   0.988 -1.8715  1.2710 -0.0337
 5068TIP3    H215169   4.500   2.574   0.877 -0.1586  1.1732  0.5211
 5069TIP3   OH215170   1.473   4.472   2.158 -0.6414  0.0642  0.0249
 5069TIP3    H115171   1.490   4.392   2.207  0.2910 -0.4047 -1.0466
 5069TIP3    H215172   1.472   4.541   2.225 -2.2397 -0.9014  1.0678
 5070TIP3   OH215173   1.213   0.404   1.785 -0.6080  0.3552 -0.9974
 5070TIP3    H115174   1.140   0.353   1.822  0.6489 -0.0559  1.1053
 5070TIP3    H215175   1.196   0.494   1.815 -0.1242  0.2032 -0.2315
 5071TIP3   OH215176   2.400   3.277   5.510 -0.3835  0.0694  1.1111
 5071TIP3    H115177   2.480   3.285   5.563  0.8729  2.2585 -0.9288
 5071TIP3    H215178   2.426   3.226   5.434 -0.3102  2.3587 -0.4958
 5072TIP3   OH215179   6.085   5.058   4.051 -0.6504  0.7216 -0.4722
 5072TIP3    H115180   6.067   5.134   4.106  0.8031  0.1240  0.8794
 5072TIP3    H215181   6.133   5.094   3.976 -0.6189  1.2198 -0.2158
 5073TIP3   OH215182   6.981   3.107   1.698 -0.0817  0.0153  0.7747
 5073TIP3    H115183   6.991   3.012   1.694  2.4501  0.2463 -0.3520
 5073TIP3    H215184   6.940   3.130   1.614 -0.8795 -0.0723  1.1309
 5074TIP3   OH215185   1.381   4.751   0.200 -0.2523  0.8463 -0.0029
 5074TIP3    H115186   1.470   4.766   0.169  0.5477 -2.2789  0.4148
 5074TIP3    H215187   1.390   4.742   0.295 -0.7803 -0.5669 -0.0596
 5075TIP3   OH215188   5.032   3.636   2.867 -0.3829 -0.5603  0.0727
 5075TIP3    H115189   5.043   3.706   2.803 -1.6469  0.0315  0.4529
 5075TIP3    H215190   5.021   3.557   2.815 -0.8836 -0.1612 -0.4341
 5076TIP3   OH215191   5.053   6.303   4.475 -0.0063  0.6867 -0.3994
 5076TIP3    H115192   4.980   6.316   4.415 -0.9175 -0.3803  0.4339
 5076TIP3    H215193   5.117   6.252   4.425 -0.4633  0.3895 -0.6841
 5077TIP3   OH215194   0.619   1.880   4.473 -0.3973  0.0800  0.7357
 5077TIP3    H115195   0.594   1.905   4.562  1.8857 -0.5436  1.6147
 5077TIP3    H215196   0.544   1.830   4.440 -1.2071  0.1839  2.3421
 5078TIP3   OH215197   0.753   5.964   0.942  0.4888 -0.1834  0.3665
 5078TIP3    H115198   0.780   5.908   1.014 -2.2606  0.2027  1.8516
 5078TIP3    H215199   0.740   6.050   0.982 -0.6028  0.1659 -0.6593
 5079TIP3   OH215200   0.888   2.843   1.072 -0.0034 -0.1880  0.2465
 5079TIP3    H115201   0.794   2.862   1.066 -0.0137 -0.5600 -4.7602
 5079TIP3    H215202   0.892   2.760   1.120 -2.2843 -0.4510  0.1136
 5080TIP3   OH215203   1.282   5.537   3.781  0.6931 -0.0736 -0.2121
 5080TIP3    H115204   1.198   5.493   3.766  0.2702  1.0936 -1.5426
 5080TIP3    H215205   1.305   5.574   3.696  0.8722  2.4655  0.8369
 5081TIP3   OH215206   2.612   1.305   4.889  0.3525 -0.5155 -0.0165
 5081TIP3    H115207   2.624   1.249   4.966 -0.5001 -0.3650  0.2344
 5081TIP3    H215208   2.635   1.393   4.919 -1.1165 -0.2583  0.4117
 5082TIP3   OH215209   5.621   3.295   5.134  0.2446  0.3719 -0.1056
 5082TIP3    H115210   5.659   3.281   5.048 -0.3747  0.1097 -0.3439
 5082TIP3    H215211   5.557   3.366   5.121  0.8635  1.0270  0.3539
 5083TIP3   OH215212   1.003   0.991   5.711  0.2581 -0.4451 -0.3415
 5083TIP3    H115213   1.040   1.075   5.738 -0.1981 -0.2096 -0.4292
 5083TIP3    H215214   1.067   0.926   5.740 -0.1391 -0.1905  1.1688
 5084TIP3   OH215215   3.454   0.828   4.330  0.0716  1.0158  0.4068
 5084TIP3    H115216   3.467   0.767   4.402  0.0638 -1.4762 -1.5463
 5084TIP3    H215217   3.536   0.825   4.281 -1.3385 -0.9055 -2.0904
 5085TIP3   OH215218   5.498   6.073   4.710 -0.0187 -0.4722  0.1717
 5085TIP3    H115219   5.442   6.011   4.664 -0.5513  0.1158  0.0095
 5085TIP3    H215220   5.554   6.110   4.641 -0.4281 -0.0058  0.0830
 5086TIP3   OH215221   5.333   5.251   2.327 -0.7253 -0.0734  0.1191
 5086TIP3    H115222   5.416   5.211   2.356 -1.1838 -1.6109 -0.5521
 5086TIP3    H215223   5.323   5.220   2.237 -1.6283  0.7794 -0.0801
 5087TIP3   OH215224   6.361   0.744   2.957  0.0841  0.0417  0.5134
 5087TIP3    H115225   6.432   0.705   2.905  0.0043 -0.4820  0.7916
 5087TIP3    H215226   6.281   0.714   2.915 -0.0116  1.4544 -0.4244
 5088TIP3   OH215227   3.638   0.690   3.093  0.4297 -0.5575  0.5856
 5088TIP3    H115228   3.606   0.779   3.077  1.3703 -0.3023  0.0239
 5088TIP3    H215229   3.722   0.703   3.138  1.0601 -1.1094 -0.3774
 5089TIP3   OH215230   3.828   3.602   0.964  0.0181  0.5565 -0.1172
 5089TIP3    H115231   3.911   3.641   0.937 -1.5114  4.9166  0.6974
 5089TIP3    H215232   3.851   3.514   0.994  4.1386  1.2239 -0.8258
 5090TIP3   OH215233   3.697   2.135   2.538 -0.0479  0.2220 -0.5451
 5090TIP3    H115234   3.755   2.166   2.608 -1.9881 -2.2337  2.4567
 5090TIP3    H215235   3.742   2.059   2.502 -0.2322 -0.1635  0.0173
 5091TIP3   OH215236   0.794   6.045   0.069 -0.2057 -0.3409 -0.1050
 5091TIP3    H115237   0.847   6.038   0.149 -2.0909  0.3764  1.2690
 5091TIP3    H215238   0.736   5.970   0.072 -0.9168  0.1937 -0.2966
 5092TIP3   OH215239   5.575   1.132   0.577  0.5251 -0.0102  0.0992
 5092TIP3    H115240   5.590   1.143   0.483  1.3442 -0.6995  0.1314
 5092TIP3    H215241   5.550   1.040   0.586  0.3198  0.0885  0.5434
 5093TIP3   OH215242   3.246   2.716   3.920 -0.2941 -0.8714 -0.0548
 5093TIP3    H115243   3.274   2.768   3.845 -1.5343 -0.1353 -0.0240
 5093TIP3    H215244   3.299   2.748   3.993  1.9914 -2.5711 -0.8091
 5094TIP3   OH215245   5.078   1.834   3.897  0.5429  0.2863 -0.4758
 5094TIP3    H115246   5.167   1.810   3.869  0.7158  0.2099  0.1143
 5094TIP3    H215247   5.092   1.901   3.965  0.1466  0.2892 -0.3956
 5095TIP3   OH215248   1.981   0.581   1.672  0.0606  0.4401  0.3090
 5095TIP3    H115249   1.932   0.563   1.592  0.2033  1.9044 -0.1354
 5095TIP3    H215250   2.058   0.525   1.666  0.4053  1.0124 -0.9207
 5096TIP3   OH215251   1.416   1.558   5.880 -0.1971 -0.0558 -0.0662
 5096TIP3    H115252   1.356   1.487   5.858 -0.9980 -0.0739  1.9742
 5096TIP3    H215253   1.496   1.538   5.831 -1.0999 -1.2236 -1.1261
 5097TIP3   OH215254   5.042   1.568   3.174 -0.3633 -0.3109  0.1870
 5097TIP3    H115255   5.001   1.634   3.231 -0.9284  0.4283 -1.0300
 5097TIP3    H215256   5.071   1.499   3.234  0.5485  1.1792  1.5508
 5098TIP3   OH215257   6.082   6.484   1.615  0.3775 -0.6898 -0.5068
 5098TIP3    H115258   6.000   6.460   1.571  0.0555 -2.1946  0.7664
 5098TIP3    H215259   6.106   6.404   1.663  2.6084 -0.2791 -0.8451
 5099TIP3   OH215260   0.673   1.674   3.795  0.1668 -0.2556 -0.2020
 5099TIP3    H115261   0.694   1.580   3.789  1.1407 -0.0215 -0.7248
 5099TIP3    H215262   0.645   1.697   3.706 -0.3998 -0.1178  0.0099
 5100TIP3   OH215263   3.144   0.222   4.547 -0.7597 -0.3015 -0.1488
 5100TIP3    H115264   3.227   0.263   4.523 -1.5814  0.5041 -1.7062
 5100TIP3    H215265   3.169   0.150   4.606  1.2806 -1.6349 -2.4434
 5101TIP3   OH215266   0.684   6.782   1.271  0.0566 -0.7218  0.2265
 5101TIP3    H115267   0.624   6.820   1.335  0.3476  1.7018 -0.8366
 5101TIP3    H215268   0.630   6.718   1.224 -2.4249  2.4756 -1.7829
 5102TIP3   OH215269   1.123   5.181   3.936 -0.2092 -0.1195  0.1806
 5102TIP3    H115270   1.044   5.152   3.982  1.0541 -1.5374  1.5852
 5102TIP3    H215271   1.194   5.161   3.997  1.2819  0.6743 -1.2403
 5103TIP3   OH215272   0.604   4.464   1.603 -0.4913  0.5335 -0.2789
 5103TIP3    H115273   0.584   4.384   1.651  0.4144  0.8259  0.6044
 5103TIP3    H215274   0.659   4.435   1.531  1.9304  0.6181  1.4379
 5104TIP3   OH215275   6.292   3.558   5.170  0.0715  0.3904  0.3297
 5104TIP3    H115276   6.360   3.621   5.195  3.3266 -2.5925 -0.2062
 5104TIP3    H215277   6.282   3.502   5.248  1.0096 -1.3595 -0.7375
 5105TIP3   OH215278   2.729   3.448   5.881  0.0468  0.6940 -0.3423
 5105TIP3    H115279   2.824   3.458   5.879  0.4398 -2.1917 -1.7074
 5105TIP3    H215280   2.707   3.416   5.793 -2.3082  1.9353 -0.2744
 5106TIP3   OH215281   1.906   2.935   5.835 -0.0806 -0.1064  0.0721
 5106TIP3    H115282   1.996   2.968   5.837 -0.5873  1.3901  2.4459
 5106TIP3    H215283   1.907   2.860   5.896 -0.6018  0.4540  0.7826
 5107TIP3   OH215284   1.715   3.344   4.517  0.0783 -0.3980  0.2485
 5107TIP3    H115285   1.701   3.383   4.430  1.8524 -0.2611 -0.0220
 5107TIP3    H215286   1.762   3.263   4.499  0.8034 -0.1781  1.0955
 5108TIP3   OH215287   3.529   1.681   5.771 -0.0315 -0.7086  0.2164
 5108TIP3    H115288   3.454   1.646   5.819 -0.3546  0.5961  0.7336
 5108TIP3    H215289   3.554   1.759   5.821  0.0013  0.3573 -1.4037
 5109TIP3   OH215290   5.498   6.076   5.372 -0.3459  0.3359  0.8832
 5109TIP3    H115291   5.430   6.102   5.309 -1.3839  1.1929  2.2984
 5109TIP3    H215292   5.560   6.149   5.371  0.1268 -0.0593  0.2247
 5110TIP3   OH215293   4.457   2.922   1.284  0.2063 -0.0241 -0.2095
 5110TIP3    H115294   4.546   2.916   1.318  0.3798  1.6206 -0.2603
 5110TIP3    H215295   4.414   2.984   1.342 -0.8077 -0.5346 -0.3974
 5111TIP3   OH215296   6.721   1.663   4.441 -0.2991  0.0226  0.2138
 5111TIP3    H115297   6.719   1.684   4.347 -0.5258 -0.7033  0.0516
 5111TIP3    H215298   6.813   1.649   4.460 -0.3325 -0.6407 -0.0902
 5112TIP3   OH215299   2.262   0.956   1.980  0.0724  0.7924  0.5763
 5112TIP3    H115300   2.215   0.910   1.911  1.7051 -0.9282  0.5065
 5112TIP3    H215301   2.355   0.937   1.962  0.8423  3.7996  0.8296
 5113TIP3   OH215302   5.367   4.307   4.631  0.4430 -0.6309 -0.5804
 5113TIP3    H115303   5.297   4.369   4.610  0.6996 -0.7640 -1.9104
 5113TIP3    H215304   5.433   4.359   4.677  1.3288  0.4845 -2.9480
 5114TIP3   OH215305   0.683   1.947   0.726  0.2379 -0.3195  0.7369
 5114TIP3    H115306   0.687   2.041   0.742  0.4609 -0.4435  1.4547
 5114TIP3    H215307   0.772   1.916   0.741  0.2192 -0.6109  0.2607
 5115TIP3   OH215308   5.480   5.922   0.123 -0.3044  0.0382  0.1967
 5115TIP3    H115309   5.419   5.848   0.130  0.3233 -0.4328  0.7544
 5115TIP3    H215310   5.477   5.947   0.031 -2.1589  0.7214  0.3992
 5116TIP3   OH215311   2.991   3.154   2.677 -0.4271 -0.4395 -0.3047
 5116TIP3    H115312   2.943   3.075   2.650  1.8121 -1.6203 -1.0820
 5116TIP3    H215313   3.052   3.123   2.744 -0.5983  0.9708  0.5381
 5117TIP3   OH215314   7.202   2.572   2.412 -0.2503 -0.2460 -0.4696
 5117TIP3    H115315   7.216   2.481   2.387  0.6981 -0.4419  0.7179
 5117TIP3    H215316   7.157   2.568   2.496  3.7046  0.2319  1.9148
 5118TIP3   OH215317   1.297   5.701   0.377  0.5725  0.8787  0.1917
 5118TIP3    H115318   1.281   5.792   0.402 -0.5857  0.5528  0.6927
 5118TIP3    H215319   1.378   5.677   0.421 -0.1846  1.0541  1.7259
 5119TIP3   OH215320   4.555   1.769   5.324  0.5072  0.9583 -0.0334
 5119TIP3    H115321   4.560   1.689   5.376 -1.5620 -1.0555 -2.5846
 5119TIP3    H215322   4.539   1.839   5.387  2.1769 -0.6284  2.2944
 5120TIP3   OH215323   2.281   4.013   2.184 -0.2859 -0.5202 -0.4041
 5120TIP3    H115324   2.345   3.944   2.203  0.7575  0.4954 -0.1249
 5120TIP3    H215325   2.268   4.008   2.089  0.1407 -0.7881 -0.4518
 5121TIP3   OH215326   2.073   4.739   0.357 -0.0408 -0.0917  0.1036
 5121TIP3    H115327   2.095   4.808   0.295 -0.2822  0.6094  0.7713
 5121TIP3    H215328   1.978   4.744   0.366 -0.1675 -1.1203 -0.5153
 5122TIP3   OH215329   5.899   3.197   1.216  0.3219  0.1442  0.4429
 5122TIP3    H115330   5.916   3.134   1.146  1.5000  0.0375  0.7951
 5122TIP3    H215331   5.832   3.156   1.270  0.0797 -0.1844 -0.1019
 5123TIP3   OH215332   2.150   4.149   4.789 -0.5571 -0.2448 -0.3260
 5123TIP3    H115333   2.125   4.199   4.867 -4.1390 -2.2173  0.0276
 5123TIP3    H215334   2.109   4.195   4.716  0.7475  0.2725 -0.7511
 5124TIP3   OH215335   5.603   0.511   4.929  0.2946  0.3013  0.1297
 5124TIP3    H115336   5.680   0.528   4.875  0.5831 -1.0236  0.1063
 5124TIP3    H215337   5.632   0.446   4.993 -1.6391 -2.9782 -2.0154
 5125TIP3   OH215338   3.164   1.847   0.866 -0.0875 -0.0014  0.6399
 5125TIP3    H115339   3.213   1.909   0.812 -1.5931 -0.0679 -0.9157
 5125TIP3    H215340   3.073   1.879   0.861 -0.2109  0.3642  3.7211
 5126TIP3   OH215341   1.919   6.660   0.913 -0.0252  0.1678 -0.4954
 5126TIP3    H115342   1.864   6.720   0.863 -0.9657 -1.7044 -1.8284
 5126TIP3    H215343   1.995   6.644   0.856  0.7635  0.8961  0.3203
 5127TIP3   OH215344   2.356   5.033   5.388 -0.2836 -0.0740  0.0700
 5127TIP3    H115345   2.381   5.005   5.299 -2.3620 -0.0141 -0.5694
 5127TIP3    H215346   2.420   4.990   5.445 -0.7932 -2.7370 -1.2200
 5128TIP3   OH215347   5.370   5.438   3.909  0.3672 -0.2103 -0.1831
 5128TIP3    H115348   5.329   5.411   3.826 -3.2476  0.6582  1.1193
 5128TIP3    H215349   5.393   5.530   3.896  0.1057 -0.1633 -0.3224
 5129TIP3   OH215350   5.946   4.007   5.078  0.1820 -0.0734 -0.0483
 5129TIP3    H115351   5.974   3.921   5.046 -0.8948 -0.1918 -0.7310
 5129TIP3    H215352   5.850   4.003   5.076  0.1184  1.2242 -0.3046
 5130TIP3   OH215353   2.638   5.369   1.907 -0.6583 -0.1715  0.1350
 5130TIP3    H115354   2.658   5.394   1.817  0.3118  0.8015  0.5972
 5130TIP3    H215355   2.622   5.274   1.903  2.0938 -0.6839 -0.6597
 5131TIP3   OH215356   2.885   1.061  -0.008  0.2990 -0.1864 -0.5210
 5131TIP3    H115357   2.933   1.140  -0.033 -3.1897  1.8550 -1.4267
 5131TIP3    H215358   2.904   1.050   0.085  2.1348  0.7068 -0.7315
 5132TIP3   OH215359   0.171   0.972   1.892  0.3418 -0.4771  0.1888
 5132TIP3    H115360   0.137   1.057   1.866  0.4922 -0.6964 -0.7677
 5132TIP3    H215361   0.266   0.985   1.898  0.2358 -0.1757  1.6614
 5133TIP3   OH215362   1.454   2.363   4.826 -0.0434 -0.1058 -0.1132
 5133TIP3    H115363   1.455   2.458   4.816  0.2547 -0.2797 -2.0580
 5133TIP3    H215364   1.420   2.348   4.914  1.5888  1.8384  0.9233
 5134TIP3   OH215365   0.754   6.377   2.584 -1.3145 -0.6517  1.0953
 5134TIP3    H115366   0.722   6.328   2.659  1.4785 -0.8279  2.2726
 5134TIP3    H215367   0.790   6.458   2.621  0.7128 -1.0354  0.0750
 5135TIP3   OH215368   2.411   5.139   1.646 -0.1676 -0.6742  0.0555
 5135TIP3    H115369   2.489   5.085   1.651  0.0398 -0.3020  0.9671
 5135TIP3    H215370   2.411   5.189   1.727  0.5271  1.9320 -1.4510
 5136TIP3   OH215371   6.840   5.958   2.058 -0.3200 -0.5419 -0.2184
 5136TIP3    H115372   6.895   5.962   2.136  0.5064  2.3703 -0.8083
 5136TIP3    H215373   6.901   5.945   1.985 -0.4663  1.2587 -0.7343
 5137TIP3   OH215374   6.357   3.859   4.160  0.6350 -0.0336  0.8467
 5137TIP3    H115375   6.339   3.938   4.110  1.3815 -0.3905 -0.0186
 5137TIP3    H215376   6.450   3.842   4.146  0.2876 -1.6100  0.1988
 5138TIP3   OH215377   3.499   5.715   1.731  0.0970  0.5549 -0.0864
 5138TIP3    H115378   3.463   5.788   1.779 -1.2940  0.4001 -0.8492
 5138TIP3    H215379   3.502   5.745   1.640  0.1491 -0.0900 -0.3053
 5139TIP3   OH215380   5.358   0.150   5.282 -0.1233 -0.1011  0.0357
 5139TIP3    H115381   5.358   0.066   5.235  0.4404  0.2655 -0.6349
 5139TIP3    H215382   5.336   0.215   5.215 -0.4213  0.3099  0.5228
 5140TIP3   OH215383   5.835   6.671   4.670  0.3012 -0.1935  0.0573
 5140TIP3    H115384   5.761   6.685   4.611 -0.3361 -1.4173  0.5455
 5140TIP3    H215385   5.912   6.693   4.616 -0.4155  2.8904  0.0837
 5141TIP3   OH215386   0.037   0.412   0.423  0.8092 -0.6498 -0.0082
 5141TIP3    H115387   0.132   0.407   0.433  0.8956  1.0156  0.3429
 5141TIP3    H215388   0.002   0.345   0.482  1.7405 -0.3894  0.8585
 5142TIP3   OH215389   2.767   4.316   4.424  0.5039 -0.1762 -0.3646
 5142TIP3    H115390   2.688   4.370   4.429 -1.2114 -2.4941 -0.5952
 5142TIP3    H215391   2.805   4.320   4.511 -0.5662  0.0344  0.1077
 5143TIP3   OH215392   7.170   2.395   2.136 -0.2108  0.4960 -0.1480
 5143TIP3    H115393   7.186   2.323   2.075 -1.7831  0.7382 -0.8916
 5143TIP3    H215394   7.223   2.467   2.103 -0.2726  0.3206 -0.6303
 5144TIP3   OH215395   1.312   3.676   1.601  0.7963  0.5929 -0.4492
 5144TIP3    H115396   1.391   3.722   1.573  1.6370 -0.9308 -0.7100
 5144TIP3    H215397   1.250   3.689   1.529  0.6418  2.1542 -0.0525
 5145TIP3   OH215398   5.987   5.717   4.687 -0.4685  0.1520  0.3020
 5145TIP3    H115399   6.029   5.637   4.655  0.9822  0.7023  0.7328
 5145TIP3    H215400   5.902   5.688   4.720 -0.8861 -0.8510 -1.5451
 5146TIP3   OH215401   5.337   1.289   0.590  0.3553 -0.5011  0.3843
 5146TIP3    H115402   5.394   1.218   0.619  0.0190 -0.8467  0.2106
 5146TIP3    H215403   5.396   1.362   0.573  0.7108 -0.7580  0.5092
 5147TIP3   OH215404   5.824   4.450   4.259  0.5144 -0.2133  0.4504
 5147TIP3    H115405   5.809   4.362   4.224 -0.4706  0.5855 -1.2840
 5147TIP3    H215406   5.752   4.502   4.223  0.4309  1.0843  2.3634
 5148TIP3   OH215407   2.529   4.790   5.110  0.2756  0.5946 -0.2270
 5148TIP3    H115408   2.583   4.867   5.132  0.1643  0.6663 -0.2023
 5148TIP3    H215409   2.520   4.743   5.193  0.0997  0.7103 -0.1796
 5149TIP3   OH215410   3.621   0.331   5.457 -0.2390  0.2591  0.5329
 5149TIP3    H115411   3.654   0.242   5.445  0.3861  0.4871  0.5105
 5149TIP3    H215412   3.692   0.387   5.425 -0.8927  0.7552 -0.0826
 5150TIP3   OH215413   3.448   2.837   5.222  0.0599  0.1309 -0.0557
 5150TIP3    H115414   3.515   2.785   5.177 -1.9905 -1.0439 -1.9253
 5150TIP3    H215415   3.369   2.825   5.170 -1.6342  1.5000  2.0367
 5151TIP3   OH215416   3.777   0.149   4.088 -0.2524  0.1739  0.0315
 5151TIP3    H115417   3.783   0.208   4.014 -1.5740  2.2361  1.4592
 5151TIP3    H215418   3.865   0.113   4.099  0.3686  1.1893 -1.4285
 5152TIP3   OH215419   4.366   3.743   1.785 -0.8695  0.4091 -0.6571
 5152TIP3    H115420   4.326   3.656   1.778  1.5272 -0.8377 -0.2806
 5152TIP3    H215421   4.327   3.781   1.863 -0.5655 -1.2127  0.3507
 5153TIP3   OH215422   3.751   1.221   2.516 -0.9574 -0.6727 -0.3038
 5153TIP3    H115423   3.684   1.278   2.479 -0.6019 -0.5895 -0.8465
 5153TIP3    H215424   3.817   1.214   2.446 -0.8290 -1.4581 -0.1137
 5154TIP3   OH215425   0.372   2.867   0.452 -0.0485 -0.2039 -0.1786
 5154TIP3    H115426   0.467   2.860   0.455 -0.0029  0.3306 -0.2649
 5154TIP3    H215427   0.348   2.835   0.365 -0.0422 -1.2661  0.1898
 5155TIP3   OH215428   6.846   5.189   2.732 -0.2408 -0.0210 -0.2025
 5155TIP3    H115429   6.828   5.257   2.667  0.2730  1.1654  0.8570
 5155TIP3    H215430   6.942   5.181   2.733 -0.2609 -0.2781  0.1562
 5156TIP3   OH215431   0.248   4.118   0.972  0.1268  0.0021  0.1361
 5156TIP3    H115432   0.215   4.056   1.038 -0.4827 -1.3250 -1.3538
 5156TIP3    H215433   0.171   4.170   0.948  0.1187 -0.1716 -0.2186
 5157TIP3   OH215434   4.361   0.448   2.761 -0.0147 -0.0652 -0.4778
 5157TIP3    H115435   4.269   0.471   2.770  0.1774  0.4333  0.3765
 5157TIP3    H215436   4.367   0.403   2.677 -1.1905 -0.9247 -0.1313
 5158TIP3   OH215437   1.450   4.809   5.578  0.2863  0.6684  0.6337
 5158TIP3    H115438   1.508   4.747   5.623  1.1435  1.2066  0.3038
 5158TIP3    H215439   1.397   4.754   5.520 -0.5407  0.0097  1.9587
 5159TIP3   OH215440   2.750   6.259   1.096  0.0545 -0.2992 -0.3921
 5159TIP3    H115441   2.813   6.331   1.085  0.1260 -0.1257  0.9998
 5159TIP3    H215442   2.674   6.286   1.044  0.3015  0.5027 -0.3549
 5160TIP3   OH215443   4.053   1.865   0.154 -0.0826 -0.8073  0.2887
 5160TIP3    H115444   4.127   1.914   0.116 -2.3841  1.9796 -1.0146
 5160TIP3    H215445   4.077   1.854   0.246  1.4057  1.2217  0.2343
 5161TIP3   OH215446   1.378   2.873   3.022 -0.3983  0.0847  0.5547
 5161TIP3    H115447   1.347   2.823   3.098 -0.8929 -0.2126  0.1622
 5161TIP3    H215448   1.473   2.862   3.023 -0.3604  0.4037  1.3543
 5162TIP3   OH215449   5.367   3.373   4.208  0.3351  0.3329 -0.2268
 5162TIP3    H115450   5.360   3.421   4.291  1.0397  0.2751 -0.1285
 5162TIP3    H215451   5.292   3.313   4.209 -0.3459  1.1552 -0.1783
 5163TIP3   OH215452   3.245   4.487   4.986  0.0700  0.4789 -0.1609
 5163TIP3    H115453   3.209   4.494   5.074 -0.5711 -0.2465 -0.3562
 5163TIP3    H215454   3.300   4.565   4.976 -1.0690  1.3625  0.3131
 5164TIP3   OH215455   4.705   6.234   5.360 -0.1685  0.5849 -0.6719
 5164TIP3    H115456   4.684   6.150   5.400  0.0172  0.9158  0.1418
 5164TIP3    H215457   4.735   6.289   5.433 -0.3320  1.3706 -1.1823
 5165TIP3   OH215458   1.747   4.643   2.346 -0.0597 -0.6784  0.3181
 5165TIP3    H115459   1.744   4.656   2.251 -1.0524  0.0926  0.4334
 5165TIP3    H215460   1.823   4.693   2.375 -0.6786  0.4176  0.1005
 5166TIP3   OH215461   4.212   3.776   2.843  0.0661 -0.1734 -0.5720
 5166TIP3    H115462   4.136   3.741   2.796 -0.9241  1.3407 -0.1980
 5166TIP3    H215463   4.179   3.793   2.931  0.4617  1.6215 -0.7334
 5167TIP3   OH215464   3.205   0.355   0.878  0.0505  0.0296  0.2663
 5167TIP3    H115465   3.154   0.281   0.911 -1.0076  0.2843 -0.7268
 5167TIP3    H215466   3.140   0.423   0.861  0.8141  0.6344 -0.3043
 5168TIP3   OH215467   3.343   5.081   1.080  0.4337  0.1477 -0.1447
 5168TIP3    H115468   3.378   5.073   1.169 -0.4240 -1.0983  0.1047
 5168TIP3    H215469   3.248   5.079   1.091  0.3236 -0.5596 -1.1335
 5169TIP3   OH215470   5.893   3.607   1.126  0.4465  0.6978  0.0815
 5169TIP3    H115471   5.981   3.612   1.087  0.3504  1.3052 -0.0731
 5169TIP3    H215472   5.836   3.645   1.059 -0.3135 -1.9009 -0.8608
 5170TIP3   OH215473   1.155   1.243   1.869 -0.3758  0.4230  0.0037
 5170TIP3    H115474   1.088   1.215   1.805  1.0696 -1.4771 -0.7778
 5170TIP3    H215475   1.160   1.170   1.931 -0.7125  1.6250  1.4988
 5171TIP3   OH215476   2.952   1.673   5.372 -0.1512 -0.6276  0.0557
 5171TIP3    H115477   3.009   1.691   5.298  0.9495 -0.2359  0.9565
 5171TIP3    H215478   2.975   1.741   5.436 -0.0140 -1.8127  1.3059
 5172TIP3   OH215479   6.959   4.936   4.874 -0.1686 -0.1496 -0.1986
 5172TIP3    H115480   6.953   5.004   4.942  0.4130 -0.9237  0.6426
 5172TIP3    H215481   7.024   4.970   4.812 -1.9018  1.3445 -1.3306
 5173TIP3   OH215482   4.988   5.244   2.035 -0.1577  0.9070  0.7190
 5173TIP3    H115483   4.977   5.339   2.029 -0.1402  0.9562  1.4285
 5173TIP3    H215484   4.995   5.227   2.129  1.9735  0.4502  0.5197
 5174TIP3   OH215485   2.070   6.172   2.207 -0.3801  0.3757  0.4481
 5174TIP3    H115486   2.023   6.227   2.270 -2.1708  0.3750 -0.7981
 5174TIP3    H215487   2.041   6.083   2.227  0.4167  0.1768  0.7374
 5175TIP3   OH215488   3.301   1.892   2.892  0.1041  0.4456 -0.1726
 5175TIP3    H115489   3.367   1.824   2.885  1.5755  1.8651 -0.7369
 5175TIP3    H215490   3.292   1.927   2.803 -1.0861  0.5855 -0.0227
 5176TIP3   OH215491   6.549   4.012   5.342  0.3370  0.4526 -0.4759
 5176TIP3    H115492   6.531   4.033   5.434  2.2939 -0.9543  0.3037
 5176TIP3    H215493   6.611   4.079   5.314 -1.0466  1.5081 -1.1624
 5177TIP3   OH215494   0.431   1.132   5.098 -0.1886  0.2505 -0.1865
 5177TIP3    H115495   0.508   1.171   5.058 -0.4511  0.7756 -0.1879
 5177TIP3    H215496   0.455   1.120   5.190  0.0608 -0.0221 -0.2901
 5178TIP3   OH215497   5.271   4.307   4.250 -0.4487 -0.0663 -0.4371
 5178TIP3    H115498   5.298   4.219   4.274 -1.9893 -0.1093  1.4137
 5178TIP3    H215499   5.324   4.365   4.304 -0.5628  0.0507 -0.4476
 5179TIP3   OH215500   3.327   3.413   1.527 -0.6223  0.2646  0.2212
 5179TIP3    H115501   3.264   3.473   1.485 -2.1175  0.3123  2.3542
 5179TIP3    H215502   3.323   3.334   1.474 -1.0253  0.9393 -0.7979
 5180TIP3   OH215503   3.172   5.612   0.299 -0.5192  0.0533 -0.2134
 5180TIP3    H115504   3.184   5.528   0.256  0.8957  0.5609 -0.8874
 5180TIP3    H215505   3.179   5.593   0.393 -1.0599 -0.6904 -0.3205
 5181TIP3   OH215506   4.284   5.437   3.152  0.1457  0.1897 -0.2217
 5181TIP3    H115507   4.336   5.443   3.073  0.7745  0.7740  0.2276
 5181TIP3    H215508   4.258   5.527   3.171  0.2157  0.0917  0.3682
 5182TIP3   OH215509   3.257   1.207   2.855  0.5151  0.9358 -0.7638
 5182TIP3    H115510   3.183   1.260   2.826 -2.0797 -1.3872  1.1422
 5182TIP3    H215511   3.259   1.219   2.950  1.5201 -0.3533 -0.5923
 5183TIP3   OH215512   3.833   6.608   4.822  0.0272  0.6365 -0.0338
 5183TIP3    H115513   3.864   6.519   4.805 -0.7045  0.4621 -0.5256
 5183TIP3    H215514   3.738   6.598   4.833  0.0176  1.2717  0.5291
 5184TIP3   OH215515   6.879   0.963   3.655  0.0798 -0.7576 -0.3660
 5184TIP3    H115516   6.886   0.914   3.737  0.9279  0.4603  0.3327
 5184TIP3    H215517   6.966   1.001   3.642  0.1169 -1.3903 -2.1507
 5185TIP3   OH215518   6.171   6.568   4.769  0.6621  0.1361 -0.5237
 5185TIP3    H115519   6.228   6.635   4.808 -0.8300  1.4670 -0.5273
 5185TIP3    H215520   6.133   6.610   4.692 -0.8896 -0.4182 -0.1014
 5186TIP3   OH215521   0.150   0.542   2.918  0.0125 -0.3051  0.3547
 5186TIP3    H115522   0.081   0.580   2.864  0.4275 -0.8727 -0.5988
 5186TIP3    H215523   0.106   0.512   2.997 -0.6831  0.1279  0.1362
 5187TIP3   OH215524   2.006   5.283   1.110  0.0432 -0.2818  0.3446
 5187TIP3    H115525   1.920   5.307   1.076  0.0351 -0.2728  0.3712
 5187TIP3    H215526   2.003   5.188   1.121 -0.3870 -0.1487  1.5062
 5188TIP3   OH215527   0.228   1.636   2.367  0.1406 -0.4667  0.4373
 5188TIP3    H115528   0.231   1.610   2.458  0.8103 -1.1082  0.2333
 5188TIP3    H215529   0.256   1.728   2.367  2.0689 -1.0260  0.6591
 5189TIP3   OH215530   0.203   0.123   0.837 -0.5816 -0.2975  0.4842
 5189TIP3    H115531   0.182   0.216   0.838 -1.2309 -0.4457  1.1093
 5189TIP3    H215532   0.130   0.081   0.883  0.3552 -0.9742  1.4048
 5190TIP3   OH215533   3.220   4.847   3.758 -0.0253 -0.6997 -0.6098
 5190TIP3    H115534   3.285   4.813   3.697  0.0290  1.5610 -1.9429
 5190TIP3    H215535   3.264   4.922   3.799 -1.8418  1.1292 -1.8326
 5191TIP3   OH215536   1.783   4.698   2.036 -0.1673  0.0241  0.2301
 5191TIP3    H115537   1.867   4.738   2.058 -1.3609  2.6323  0.4910
 5191TIP3    H215538   1.770   4.721   1.944 -0.8390  0.1491  0.3544
 5192TIP3   OH215539   2.240   0.045   5.439  0.0626  0.5666 -0.4537
 5192TIP3    H115540   2.266  -0.044   5.463 -0.4771  0.5025 -0.0845
 5192TIP3    H215541   2.145   0.047   5.452  0.1696  1.4268  0.3128
 5193TIP3   OH215542   3.780   6.107   1.676  0.3235 -0.3636  0.2943
 5193TIP3    H115543   3.858   6.066   1.713 -0.9819 -1.6421  1.8208
 5193TIP3    H215544   3.763   6.059   1.595  1.0851 -0.1184 -0.0103
 5194TIP3   OH215545   3.431   4.823   2.099 -0.4174  0.4410 -0.3022
 5194TIP3    H115546   3.382   4.770   2.161  0.1921 -1.1657 -1.1148
 5194TIP3    H215547   3.364   4.862   2.042 -0.8430 -0.6387 -0.5683
 5195TIP3   OH215548   2.570   6.749   4.466  0.2342 -0.2823 -0.0748
 5195TIP3    H115549   2.592   6.799   4.387 -2.9919  0.1136 -0.8849
 5195TIP3    H215550   2.624   6.786   4.535  0.7718  1.6471 -1.4686
 5196TIP3   OH215551   0.249   1.460   1.766  0.2849  0.1458 -0.8118
 5196TIP3    H115552   0.171   1.408   1.748  0.1777 -0.1432  0.3870
 5196TIP3    H215553   0.249   1.527   1.698 -1.6589  0.8569 -0.1820
 5197TIP3   OH215554   5.248   2.368   0.078  0.1928  0.0467 -0.1513
 5197TIP3    H115555   5.181   2.329   0.134 -0.3274  0.6706 -0.3183
 5197TIP3    H215556   5.330   2.354   0.125 -0.2050  0.3419  0.6569
 5198TIP3   OH215557   0.120   5.589   4.677  1.2213  0.2045 -0.5166
 5198TIP3    H115558   0.080   5.660   4.727 -0.2847  2.0154 -3.9142
 5198TIP3    H215559   0.049   5.525   4.665  1.6546 -0.3644 -0.0767
 5199TIP3   OH215560   2.637   4.643   4.537 -0.4671  0.7084 -0.1022
 5199TIP3    H115561   2.572   4.582   4.571  0.3079 -0.5560 -0.8013
 5199TIP3    H215562   2.697   4.658   4.610  0.1205 -0.4986 -0.3065
 5200TIP3   OH215563   6.385   5.806   2.569 -0.0035 -0.0720 -0.1568
 5200TIP3    H115564   6.389   5.852   2.653  0.4533  0.2714 -0.3639
 5200TIP3    H215565   6.291   5.792   2.554 -0.0755 -0.3484  0.5199
 5201TIP3   OH215566   5.042   4.739   1.930 -0.3418 -0.2339 -0.0635
 5201TIP3    H115567   4.986   4.735   1.852 -0.5421 -1.0293  0.1117
 5201TIP3    H215568   5.085   4.824   1.924 -0.5091 -0.1988 -0.9398
 5202TIP3   OH215569   5.849   3.740   1.386  0.6089  0.1670 -0.4286
 5202TIP3    H115570   5.943   3.752   1.372  0.4613  0.0288 -1.6434
 5202TIP3    H215571   5.821   3.683   1.314 -0.2122 -0.6975  0.5395
 5203TIP3   OH215572   1.717   0.599   2.671  0.3830 -0.4592 -0.0669
 5203TIP3    H115573   1.648   0.618   2.734  0.2465 -1.3088  0.0590
 5203TIP3    H215574   1.763   0.523   2.708  1.2628 -0.0216 -0.2443
 5204TIP3   OH215575   3.533   4.172   3.754 -0.2557 -0.7539 -0.5401
 5204TIP3    H115576   3.485   4.090   3.744 -0.9613 -0.3469 -0.5916
 5204TIP3    H215577   3.566   4.170   3.844  1.0985 -1.7935 -1.0188
 5205TIP3   OH215578   0.349   1.042   5.659  0.3190  0.2639 -0.1703
 5205TIP3    H115579   0.263   1.081   5.643 -0.3146 -0.3748  1.4467
 5205TIP3    H215580   0.337   0.988   5.737  1.4371 -2.2402 -1.5888
 5206TIP3   OH215581   2.320   2.686   3.938 -0.2958  0.1265  0.0055
 5206TIP3    H115582   2.367   2.647   4.012  0.4030  1.7394  0.4377
 5206TIP3    H215583   2.231   2.700   3.971 -0.4892 -0.8023 -0.0718
 5207TIP3   OH215584   1.794   1.701   4.893 -0.0033  0.2729 -0.0766
 5207TIP3    H115585   1.736   1.689   4.969 -0.7412  0.7655 -0.5470
 5207TIP3    H215586   1.743   1.666   4.819  1.3180 -1.6662 -0.1438
 5208TIP3   OH215587   5.501   4.405   2.404 -0.1040 -0.5481 -0.1005
 5208TIP3    H115588   5.438   4.466   2.443  0.7388 -0.4934  1.2418
 5208TIP3    H215589   5.522   4.344   2.475  2.2973  0.1987 -0.1035
 5209TIP3   OH215590   0.868   5.525   2.334 -0.2820  0.3586  0.0593
 5209TIP3    H115591   0.812   5.471   2.278 -0.1907  0.4643 -0.1353
 5209TIP3    H215592   0.932   5.464   2.370  0.6260  0.5475 -1.1737
 5210TIP3   OH215593   0.852   1.040   5.325  0.3712  0.0828 -0.5159
 5210TIP3    H115594   0.770   1.057   5.279  0.2553  2.6874  0.5260
 5210TIP3    H215595   0.920   1.060   5.261  0.2026  0.0748 -0.6981
 5211TIP3   OH215596   0.667   3.632   0.850 -0.3204  0.2145 -0.5355
 5211TIP3    H115597   0.738   3.604   0.908  0.0809 -1.3975 -1.7339
 5211TIP3    H215598   0.651   3.723   0.875  1.0383  0.1202  0.8791
 5212TIP3   OH215599   5.371   1.565   2.325  0.3501  0.3804  0.2480
 5212TIP3    H115600   5.302   1.627   2.305 -0.0760  0.4396  1.7338
 5212TIP3    H215601   5.451   1.619   2.329  0.1478  0.6647  0.5282
 5213TIP3   OH215602   2.778   2.916   1.615 -0.0472 -0.5459 -0.2013
 5213TIP3    H115603   2.698   2.877   1.581  0.5197 -1.2886 -0.7072
 5213TIP3    H215604   2.806   2.857   1.685  0.1849 -0.4254 -0.1893
 5214TIP3   OH215605   4.122   2.084   2.488 -0.5385  0.2369 -0.1552
 5214TIP3    H115606   4.126   2.091   2.584  3.5097 -0.3971 -0.1236
 5214TIP3    H215607   4.096   1.994   2.471 -0.6121  0.1652  0.3255
 5215TIP3   OH215608   1.556   3.222   0.539 -0.4077  0.4489  0.0610
 5215TIP3    H115609   1.644   3.221   0.577 -1.0959  1.9041  1.8783
 5215TIP3    H215610   1.541   3.132   0.511  1.0934 -0.1798  1.1070
 5216TIP3   OH215611   2.701   3.036   3.255  0.2813 -0.4114 -0.1926
 5216TIP3    H115612   2.658   3.079   3.182  0.2134 -1.3184 -0.7034
 5216TIP3    H215613   2.729   3.107   3.313  0.7243  0.3382 -1.3107
 5217TIP3   OH215614   3.882   1.047   5.841  0.0848  0.0857 -0.0877
 5217TIP3    H115615   3.823   0.973   5.856 -0.1665  0.4565  0.7759
 5217TIP3    H215616   3.826   1.124   5.843  0.4958  0.3886  0.0707
 5218TIP3   OH215617   0.412   1.435   3.901 -0.2991 -0.6533  0.3316
 5218TIP3    H115618   0.331   1.416   3.948 -1.2974 -0.3746 -1.2027
 5218TIP3    H215619   0.410   1.530   3.887  2.0680 -0.0114  3.3370
 5219TIP3   OH215620   2.778   5.637   1.900  0.0048  0.1034  0.1855
 5219TIP3    H115621   2.819   5.551   1.911 -2.0371 -1.0266 -0.4928
 5219TIP3    H215622   2.779   5.676   1.987  2.7154  0.3117  0.1673
 5220TIP3   OH215623   6.956   0.937   1.805  0.6731  0.3095 -0.2024
 5220TIP3    H115624   6.898   0.947   1.729  1.2727 -0.4587 -0.7674
 5220TIP3    H215625   7.038   0.978   1.778  0.7616  0.3821  0.1769
 5221TIP3   OH215626   5.958   3.422   3.289  0.7225 -0.0614 -0.4430
 5221TIP3    H115627   6.049   3.392   3.294  1.8303  2.5422 -2.3599
 5221TIP3    H215628   5.927   3.420   3.379  3.1332  0.1191  0.4774
 5222TIP3   OH215629   2.322   1.304   5.098 -0.4822 -0.0320 -0.1024
 5222TIP3    H115630   2.396   1.343   5.146 -1.3790  2.4852 -0.5889
 5222TIP3    H215631   2.246   1.351   5.131 -1.3851  0.2063 -2.4012
 5223TIP3   OH215632   2.809   2.380   0.511  0.1975 -0.2869  0.4135
 5223TIP3    H115633   2.895   2.349   0.485  0.1829 -0.5887  0.7348
 5223TIP3    H215634   2.776   2.426   0.433  0.6104 -0.2421  0.2647
 5224TIP3   OH215635   5.363   3.167   2.261 -0.3569 -0.6543 -0.1175
 5224TIP3    H115636   5.324   3.087   2.297  0.3620 -0.9445  0.0234
 5224TIP3    H215637   5.447   3.139   2.225 -0.1404  0.0231 -0.1592
 5225TIP3   OH215638   7.231   0.561   3.560 -0.2956 -0.2772 -0.6656
 5225TIP3    H115639   7.144   0.598   3.544 -0.2446  0.5597  0.7855
 5225TIP3    H215640   7.221   0.513   3.642  0.6203 -0.0989 -0.4388
 5226TIP3   OH215641   1.234   2.072   3.497  0.2966  0.2241 -0.0682
 5226TIP3    H115642   1.330   2.070   3.499  0.3023 -0.9195 -0.7507
 5226TIP3    H215643   1.213   2.162   3.470  1.1621  0.5552  0.3111
 5227TIP3   OH215644   5.301   3.434   0.665  0.2543 -0.3500 -0.3093
 5227TIP3    H115645   5.225   3.425   0.607  1.2242 -1.7746 -1.4170
 5227TIP3    H215646   5.291   3.364   0.729  0.1998  0.0008  0.0688
 5228TIP3   OH215647   1.869   3.277   4.923 -0.2795  0.2948 -0.0413
 5228TIP3    H115648   1.937   3.299   4.986  1.3211 -0.4987 -1.4031
 5228TIP3    H215649   1.868   3.351   4.862  0.8365 -0.5796 -1.1699
 5229TIP3   OH215650   4.634   6.056   3.262  0.2507 -0.3417  0.1266
 5229TIP3    H115651   4.564   6.120   3.271  0.2013 -0.3560 -0.1644
 5229TIP3    H215652   4.713   6.108   3.249  0.1162 -0.3549 -0.7538
 5230TIP3   OH215653   2.212   0.530   5.498  0.3864  0.3585 -0.4332
 5230TIP3    H115654   2.141   0.499   5.555 -0.4732  0.5356 -1.3823
 5230TIP3    H215655   2.259   0.450   5.473  1.4826  0.3721  1.3894
 5231TIP3   OH215656   0.450   5.592   1.496  0.1437 -0.2999  0.0451
 5231TIP3    H115657   0.488   5.678   1.483 -1.3776  0.5128  0.7311
 5231TIP3    H215658   0.524   5.532   1.489  1.0363  0.9191 -1.7274
 5232TIP3   OH215659   1.608   0.786   0.062 -0.4183  0.5870 -0.3186
 5232TIP3    H115660   1.575   0.872   0.034  0.5458  1.5039  1.2335
 5232TIP3    H215661   1.530   0.740   0.094 -0.6232  1.8381  1.1142
 5233TIP3   OH215662   4.780   1.791   5.863 -0.1750  0.0451 -0.0886
 5233TIP3    H115663   4.714   1.861   5.868 -0.9564 -0.5394 -1.6550
 5233TIP3    H215664   4.792   1.776   5.769  1.5868 -0.4620  0.1790
 5234TIP3   OH215665   6.736   1.875   3.456 -0.7776 -0.5498  0.0921
 5234TIP3    H115666   6.757   1.790   3.418  4.4867 -0.0742  1.2642
 5234TIP3    H215667   6.749   1.937   3.384  0.8160 -0.3605  0.5132
 5235TIP3   OH215668   0.347   2.025   2.152  0.0465  0.5525  0.2452
 5235TIP3    H115669   0.278   2.052   2.091 -1.1579  2.8670  2.4499
 5235TIP3    H215670   0.299   1.991   2.228  1.3310  1.3925  1.4746
 5236TIP3   OH215671   4.543   0.598   1.972  0.8035  0.1071  0.2053
 5236TIP3    H115672   4.557   0.531   2.039  3.2446 -1.0082 -1.2741
 5236TIP3    H215673   4.508   0.550   1.897 -2.6504  1.4580  0.7564
 5237TIP3   OH215674   6.044   4.617   0.619 -0.7241 -0.0443  0.5106
 5237TIP3    H115675   6.115   4.681   0.614  0.2355 -1.0979  0.0480
 5237TIP3    H215676   5.970   4.660   0.578  0.0840  0.5450 -0.3766
 5238TIP3   OH215677   4.847   0.396   2.181 -0.2552 -0.0783  0.3488
 5238TIP3    H115678   4.934   0.356   2.176 -0.8310 -1.2291 -2.0158
 5238TIP3    H215679   4.787   0.327   2.152 -1.8600  1.0162  0.9154
 5239TIP3   OH215680   0.419   4.671   4.146  0.1908 -0.3275 -0.1275
 5239TIP3    H115681   0.365   4.721   4.085  1.3589  0.2002 -0.7740
 5239TIP3    H215682   0.385   4.582   4.141 -0.1956 -0.1391 -1.0048
 5240TIP3   OH215683   5.598   2.788   2.358  0.3538  0.4531 -0.3464
 5240TIP3    H115684   5.647   2.856   2.403  0.5076  0.0902  0.0435
 5240TIP3    H215685   5.650   2.708   2.371 -0.7303 -0.0986  0.7670
 5241TIP3   OH215686   1.346   4.200   0.368  0.3092  0.1553  0.2933
 5241TIP3    H115687   1.395   4.160   0.440  2.2893  0.4039 -0.8534
 5241TIP3    H215688   1.275   4.138   0.351 -0.6443  0.4137  2.8569
 5242TIP3   OH215689   5.061   0.517   0.369 -0.2730 -0.7067  0.3886
 5242TIP3    H115690   5.127   0.499   0.302 -0.0849 -0.5616  0.5328
 5242TIP3    H215691   5.059   0.438   0.422 -1.2418 -1.2674 -0.4634
 5243TIP3   OH215692   6.448   1.411   5.488 -0.3707 -0.6652  0.6300
 5243TIP3    H115693   6.489   1.480   5.436 -0.0274 -0.0934  1.6267
 5243TIP3    H215694   6.386   1.370   5.429  0.7767 -0.7557 -0.5557
 5244TIP3   OH215695   4.068   1.396   2.070  0.1769  0.0293 -0.0231
 5244TIP3    H115696   3.975   1.381   2.052  0.4617  0.1379 -1.7245
 5244TIP3    H215697   4.095   1.318   2.118 -0.9046  0.2539  1.0163
 5245TIP3   OH215698   3.569   4.124   1.146 -0.1728 -0.2151  0.3957
 5245TIP3    H115699   3.586   4.146   1.238 -0.0651 -1.0075  0.5794
 5245TIP3    H215700   3.552   4.207   1.103  1.4349  0.3553  0.7905
 5246TIP3   OH215701   6.178   5.975   0.274 -0.0910  0.4952 -0.2274
 5246TIP3    H115702   6.141   6.017   0.196 -0.6266 -1.2082 -0.9220
 5246TIP3    H215703   6.271   5.963   0.252 -0.0266  0.8941 -0.1929
 5247TIP3   OH215704   4.348   6.232   5.155  0.3357  0.7435  0.2288
 5247TIP3    H115705   4.426   6.287   5.158  1.2673 -0.5869  1.8692
 5247TIP3    H215706   4.378   6.145   5.180 -1.4895 -0.0524 -0.1499
 5248TIP3   OH215707   4.815   3.005   1.621  0.2333 -0.3348 -0.6520
 5248TIP3    H115708   4.779   2.995   1.533  0.8612  1.0877 -1.1026
 5248TIP3    H215709   4.910   3.012   1.607  0.2202  1.4391 -0.0344
 5249TIP3   OH215710   5.942   5.372   1.865 -0.5164 -0.3189 -0.0825
 5249TIP3    H115711   6.017   5.402   1.917  1.2598 -0.0719 -2.5839
 5249TIP3    H215712   5.944   5.277   1.873  0.3040 -0.3394 -0.3542
 5250TIP3   OH215713   3.424   0.940   5.539 -0.0553 -0.3561  0.6883
 5250TIP3    H115714   3.334   0.908   5.530  0.2452 -1.6759  2.0724
 5250TIP3    H215715   3.471   0.900   5.466 -0.8694  1.6365 -1.0372
 5251TIP3   OH215716   5.856   0.656   2.801  0.5097 -0.6234 -0.7371
 5251TIP3    H115717   5.878   0.671   2.709  0.7896  0.2556 -0.5434
 5251TIP3    H215718   5.847   0.745   2.838 -0.1840 -0.9669 -0.0608
 5252TIP3   OH215719   0.290   1.819   5.252 -0.4430  0.3718 -0.3267
 5252TIP3    H115720   0.385   1.825   5.264 -0.5011  0.7577 -0.0639
 5252TIP3    H215721   0.259   1.909   5.255 -0.5849  0.4443 -2.5232
 5253TIP3   OH215722   7.097   4.913   0.819 -0.1974 -0.5015 -0.0567
 5253TIP3    H115723   7.012   4.915   0.863 -0.1289 -2.1882  0.2103
 5253TIP3    H215724   7.109   4.822   0.793  1.2231 -0.1625 -0.7068
 5254TIP3   OH215725   6.473   1.191   4.107 -0.3573 -0.1585  0.0724
 5254TIP3    H115726   6.554   1.222   4.067 -0.2666 -1.0129 -0.4438
 5254TIP3    H215727   6.406   1.208   4.041 -0.5013  0.0252  0.2668
 5255TIP3   OH215728   3.119   4.327   2.126 -0.5258  0.1391  0.0612
 5255TIP3    H115729   3.197   4.307   2.075 -0.3439 -0.5271  0.5861
 5255TIP3    H215730   3.109   4.253   2.186 -1.3842  0.3615  0.2144
 5256TIP3   OH215731   0.123   1.315   1.389 -0.3484 -0.8688 -0.3296
 5256TIP3    H115732   0.096   1.339   1.478  0.9731  2.5299 -0.6933
 5256TIP3    H215733   0.045   1.334   1.336 -1.1248 -2.8607  0.0212
 5257TIP3   OH215734   0.195   1.625   1.521 -0.3869  0.1591 -0.1503
 5257TIP3    H115735   0.190   1.654   1.430 -2.4899  1.3603  0.2680
 5257TIP3    H215736   0.228   1.701   1.569  0.3099 -0.3256  0.1509
 5258TIP3   OH215737   3.452   5.049   2.243 -0.0594 -0.1826  0.7627
 5258TIP3    H115738   3.490   4.993   2.175 -0.3037  0.7719 -0.1892
 5258TIP3    H215739   3.384   4.995   2.283  0.9268 -1.1908  1.0977
 5259TIP3   OH215740   5.730   4.580   4.879  0.1529 -0.0596 -0.2193
 5259TIP3    H115741   5.642   4.541   4.874 -0.2032  0.5296  0.9462
 5259TIP3    H215742   5.764   4.549   4.963  0.1806  1.4598  0.3576
 5260TIP3   OH215743   7.018   1.584   1.072  0.6969  0.1383  0.5154
 5260TIP3    H115744   7.029   1.564   0.979  0.2361 -3.8356  1.1700
 5260TIP3    H215745   6.923   1.579   1.086  0.8904 -1.2927  1.5012
 5261TIP3   OH215746   6.738   5.570   5.355 -0.8202 -0.2210  0.5617
 5261TIP3    H115747   6.700   5.491   5.318  1.0405 -0.4307 -1.0419
 5261TIP3    H215748   6.792   5.607   5.285  0.8643  0.7479  2.2632
 5262TIP3   OH215749   5.131   5.433   2.246 -0.1389 -0.2032 -0.4808
 5262TIP3    H115750   5.192   5.362   2.263  1.9318  1.5530 -0.1386
 5262TIP3    H215751   5.167   5.508   2.293 -1.5314  1.4060 -1.8296
 5263TIP3   OH215752   0.854   3.043   3.782  0.4453 -0.3773 -0.2217
 5263TIP3    H115753   0.945   3.062   3.805 -0.1847 -1.6898  4.4794
 5263TIP3    H215754   0.846   2.948   3.791 -1.7721 -0.1118  2.0505
 5264TIP3   OH215755   6.186   3.616   1.043  0.0371  0.2582 -0.4758
 5264TIP3    H115756   6.221   3.626   1.131  0.4301 -0.0762 -0.5907
 5264TIP3    H215757   6.225   3.689   0.993  2.6862 -1.5188 -1.2465
 5265TIP3   OH215758   1.938   3.944  -0.005  0.1880 -0.2964  0.7341
 5265TIP3    H115759   1.926   3.849   0.000  0.4935 -0.3719  0.1831
 5265TIP3    H215760   1.923   3.975   0.084 -1.7215 -0.6452  0.5949
 5266TIP3   OH215761   0.982   4.256   3.336  0.4268  0.4897  0.0273
 5266TIP3    H115762   0.887   4.247   3.330  0.6148 -2.1538 -0.0926
 5266TIP3    H215763   1.002   4.233   3.427  1.0666 -0.8009 -0.4153
 5267TIP3   OH215764   1.352   4.278   1.157  0.0099 -0.1984 -0.4886
 5267TIP3    H115765   1.316   4.338   1.091  0.1141  1.2275  0.6875
 5267TIP3    H215766   1.441   4.261   1.127  0.1497  0.6500 -0.5974
 5268TIP3   OH215767   3.661   4.895   1.733 -0.4789  0.3400 -0.3165
 5268TIP3    H115768   3.737   4.926   1.683 -0.7708  2.0061  0.2155
 5268TIP3    H215769   3.655   4.955   1.807 -0.8284 -1.3039  1.0552
 5269TIP3   OH215770   5.955   6.141   0.662  0.1378  0.0510 -0.1499
 5269TIP3    H115771   5.956   6.108   0.572  0.0866 -0.6246  0.0882
 5269TIP3    H215772   5.920   6.068   0.713  2.9946 -0.7380  0.8609
 5270TIP3   OH215773   7.163   3.872   0.891  0.3162 -0.8412 -0.2227
 5270TIP3    H115774   7.155   3.955   0.845 -2.3771 -0.1610  1.2431
 5270TIP3    H215775   7.251   3.841   0.870  0.9163  1.6870 -1.9060
 5271TIP3   OH215776   5.838   1.682   4.099 -0.1514  0.1948 -0.0107
 5271TIP3    H115777   5.848   1.597   4.141  0.3008  0.0395 -0.4307
 5271TIP3    H215778   5.774   1.668   4.030 -1.2638  0.5597  0.9051
 5272TIP3   OH215779   5.112   2.602   5.079 -0.0218  0.1658 -0.2438
 5272TIP3    H115780   5.084   2.554   5.001  1.4888 -1.7177  0.2827
 5272TIP3    H215781   5.200   2.634   5.057 -0.3574  1.3100  0.0162
 5273TIP3   OH215782   3.572   2.479   4.891  0.2159 -0.2473  0.3023
 5273TIP3    H115783   3.622   2.422   4.949  1.3970  1.2542  0.7972
 5273TIP3    H215784   3.486   2.486   4.932  0.9196  0.4995  1.6814
 5274TIP3   OH215785   6.313   0.964   5.843  0.5455  0.2359 -0.0194
 5274TIP3    H115786   6.254   1.026   5.886 -0.1820 -0.9313  0.7139
 5274TIP3    H215787   6.292   0.970   5.750 -1.7932 -1.2093  0.3604
 5275TIP3   OH215788   0.843   3.335   1.370 -0.0959 -0.5339 -0.5998
 5275TIP3    H115789   0.753   3.364   1.354  0.1248 -0.2543 -1.3759
 5275TIP3    H215790   0.879   3.400   1.432 -0.8449 -1.4208  0.8159
 5276TIP3   OH215791   2.918   3.340   1.025  0.4400  0.1509 -0.8645
 5276TIP3    H115792   2.987   3.390   0.980  1.7117 -1.1375 -0.4368
 5276TIP3    H215793   2.956   3.319   1.111 -0.9299  0.3346 -0.1886
 5277TIP3   OH215794   4.479   4.548   5.630 -0.3697 -0.4412  0.1619
 5277TIP3    H115795   4.397   4.527   5.675  0.3554 -2.7112  0.5521
 5277TIP3    H215796   4.452   4.598   5.554 -1.8198  1.6111  1.9207
 5278TIP3   OH215797   2.952   1.042   4.151 -0.0509 -0.2875 -0.4466
 5278TIP3    H115798   3.013   1.061   4.222  0.6893 -0.6396 -0.9703
 5278TIP3    H215799   2.876   1.097   4.169  1.0791  1.4202 -0.6824
 5279TIP3   OH215800   2.503   2.905   3.036  0.4021  0.2243  0.3389
 5279TIP3    H115801   2.437   2.965   3.070  1.2236  1.0668  0.4985
 5279TIP3    H215802   2.563   2.961   2.986  0.2617 -0.7156 -0.9377
 5280TIP3   OH215803   6.234   1.268   3.722 -0.0072 -0.6330 -0.3897
 5280TIP3    H115804   6.209   1.192   3.670 -0.4092 -1.3002  0.7477
 5280TIP3    H215805   6.324   1.251   3.748 -0.3635 -1.1404  0.5598
 5281TIP3   OH215806   4.814   3.039   5.646  0.1240 -0.3713  0.0909
 5281TIP3    H115807   4.730   2.995   5.655 -0.0258 -0.5310 -1.6559
 5281TIP3    H215808   4.814   3.107   5.712 -1.1170 -0.7609  0.5120
 5282TIP3   OH215809   2.255   5.422   5.513  0.5442  0.1641 -0.0799
 5282TIP3    H115810   2.239   5.335   5.550  1.3865 -0.1837 -0.5088
 5282TIP3    H215811   2.194   5.429   5.440 -0.3851  0.4343  0.7048
 5283TIP3   OH215812   6.120   0.933   2.631 -1.1591  0.5398 -0.6454
 5283TIP3    H115813   6.059   0.955   2.701 -0.5967  1.3767 -0.3999
 5283TIP3    H215814   6.152   1.018   2.600 -0.8042  0.1483 -1.3815
 5284TIP3   OH215815   6.371   4.176   4.643 -0.7299 -0.2982 -0.4150
 5284TIP3    H115816   6.341   4.193   4.554 -1.2348 -3.2970 -0.9257
 5284TIP3    H215817   6.291   4.175   4.696 -0.9378 -2.3587 -0.6936
 5285TIP3   OH215818   6.019   1.452   2.595  0.5859  0.3182 -0.0960
 5285TIP3    H115819   6.005   1.436   2.501 -0.4096 -1.2631  0.2754
 5285TIP3    H215820   5.974   1.379   2.638  1.1383  0.9470  1.6156
 5286TIP3   OH215821   0.620   3.768   1.946 -0.6702  0.2820  0.0257
 5286TIP3    H115822   0.656   3.737   1.863 -0.9281  1.0071 -0.3663
 5286TIP3    H215823   0.544   3.821   1.921 -2.6027 -1.9272  0.8519
 5287TIP3   OH215824   0.028   1.230   5.757  0.1260 -0.0433 -0.1401
 5287TIP3    H115825   0.032   1.187   5.672 -0.5860 -1.4292  0.4866
 5287TIP3    H215826  -0.041   1.296   5.747 -0.7823 -0.9883 -0.3293
 5288TIP3   OH215827   2.921   4.438   5.345 -0.2908  0.0154  1.1387
 5288TIP3    H115828   2.898   4.380   5.272 -0.6008  0.3150  0.9922
 5288TIP3    H215829   3.008   4.410   5.372  0.7987  1.3276 -0.7958
 5289TIP3   OH215830   6.372   4.857   0.287 -0.3791  0.0132  0.5458
 5289TIP3    H115831   6.383   4.925   0.353  0.2110  1.7754 -1.2709
 5289TIP3    H215832   6.333   4.901   0.212  1.5830 -1.2227 -1.3304
 5290TIP3   OH215833   6.388   5.976   2.785 -0.1097 -0.5582 -0.0751
 5290TIP3    H115834   6.447   5.942   2.853 -0.1430 -0.1501  0.1612
 5290TIP3    H215835   6.311   6.006   2.833  0.8571  2.0645  0.0516
 5291TIP3   OH215836   4.259   5.849   4.937  0.3142 -0.8161 -0.1125
 5291TIP3    H115837   4.244   5.933   4.893  1.7450 -0.7871 -0.5860
 5291TIP3    H215838   4.352   5.848   4.956  0.0025 -1.5015  1.5827
 5292TIP3   OH215839   5.706   2.438   2.177 -0.1879 -0.0541  0.9910
 5292TIP3    H115840   5.713   2.496   2.253 -2.0541  0.3893  0.8852
 5292TIP3    H215841   5.678   2.354   2.214  0.1857 -0.2181  0.9084
 5293TIP3   OH215842   2.942   5.972   3.370  0.0279 -0.8030  0.4429
 5293TIP3    H115843   3.000   5.920   3.315 -1.0332 -2.6932  1.0393
 5293TIP3    H215844   2.967   5.950   3.460 -1.3537 -1.3565  0.7036
 5294TIP3   OH215845   4.770   0.732   2.777 -0.0974  0.1859 -0.7274
 5294TIP3    H115846   4.760   0.637   2.768  0.5574  0.2249 -1.9416
 5294TIP3    H215847   4.765   0.747   2.872  1.5777 -1.2627 -0.3562
 5295TIP3   OH215848   0.946   6.066   5.371  0.0690 -0.2676  0.3900
 5295TIP3    H115849   0.907   5.991   5.327 -0.0329  0.0466 -0.0708
 5295TIP3    H215850   1.018   6.093   5.314 -0.6362  0.7106 -0.0825
 5296TIP3   OH215851   6.745   0.063   1.341 -0.0059 -0.1884 -0.2618
 5296TIP3    H115852   6.667   0.029   1.297 -0.5195  1.6960 -0.8930
 5296TIP3    H215853   6.719   0.070   1.433 -0.4244 -0.0214 -0.3897
 5297TIP3   OH215854   7.152   4.224   1.607 -0.0713  0.7244  0.0542
 5297TIP3    H115855   7.143   4.300   1.664 -1.5050  1.2075 -0.7718
 5297TIP3    H215856   7.068   4.218   1.561  0.4727 -0.6010 -0.8302
 5298TIP3   OH215857   1.558   6.330   2.612 -0.1504 -0.0276  0.0098
 5298TIP3    H115858   1.468   6.356   2.633 -0.3496 -1.1195  0.6129
 5298TIP3    H215859   1.613   6.388   2.664 -0.5487 -0.1138  0.5337
 5299TIP3   OH215860   4.013   4.047   4.477  0.0589 -0.1134  0.6443
 5299TIP3    H115861   3.934   4.094   4.452  0.3412 -0.0654 -0.1645
 5299TIP3    H215862   4.057   4.106   4.539 -0.1506  0.1896  0.5069
 5300TIP3   OH215863   3.335   6.074   3.500  0.2259 -0.2381  0.4159
 5300TIP3    H115864   3.387   6.154   3.499 -1.0335  0.6132 -0.9772
 5300TIP3    H215865   3.367   6.025   3.424 -1.1911  0.4481 -0.6539
 5301TIP3   OH215866   0.649   3.735   1.290 -0.0923  0.1798 -0.5199
 5301TIP3    H115867   0.612   3.807   1.239 -0.4222 -0.0090 -0.5491
 5301TIP3    H215868   0.592   3.728   1.366 -0.7933 -0.8322 -1.1048
 5302TIP3   OH215869   0.624   4.339   4.899  0.2324  0.3293  0.0789
 5302TIP3    H115870   0.620   4.356   4.805  0.8951 -1.3542 -0.2854
 5302TIP3    H215871   0.658   4.250   4.906  0.9209  0.6915  1.9441
 5303TIP3   OH215872   1.488   5.661   0.599  0.0299 -0.3813  0.4215
 5303TIP3    H115873   1.446   5.710   0.669  0.0211 -0.0834  0.2086
 5303TIP3    H215874   1.544   5.725   0.555 -0.8041 -0.2831 -0.5413
 5304TIP3   OH215875   1.893   2.705   4.660  0.3999 -1.1014  0.1176
 5304TIP3    H115876   1.895   2.612   4.639  0.6360 -1.1447  0.3267
 5304TIP3    H215877   1.905   2.749   4.576  0.5998 -1.2635  0.0603
 5305TIP3   OH215878   4.405   5.722   2.469 -0.4493  0.4801 -0.6079
 5305TIP3    H115879   4.498   5.745   2.472  0.1208 -1.1594 -2.9842
 5305TIP3    H215880   4.383   5.721   2.376 -2.3571 -0.9583 -0.2026
 5306TIP3   OH215881   6.001   4.889   0.899  0.0149 -0.2868 -0.3199
 5306TIP3    H115882   5.948   4.961   0.932 -0.7934 -0.6046 -0.8928
 5306TIP3    H215883   6.079   4.889   0.954  0.8738  2.1378 -1.3921
 5307TIP3   OH215884   6.799   1.778   2.392 -0.0670  0.5142  0.1516
 5307TIP3    H115885   6.858   1.706   2.369 -1.5141 -0.6889  0.0329
 5307TIP3    H215886   6.807   1.839   2.318  1.6971  0.8688  0.5762
 5308TIP3   OH215887   3.896   4.968   1.641 -0.3183  0.1722 -0.2750
 5308TIP3    H115888   3.925   5.037   1.582 -1.2836  0.5991 -0.2709
 5308TIP3    H215889   3.965   4.963   1.708 -0.0169  0.8100 -0.5325
 5309TIP3   OH215890   1.104   2.202   2.975  0.3619  0.8230 -0.2773
 5309TIP3    H115891   1.108   2.293   2.944  0.7238  0.6526 -0.7515
 5309TIP3    H215892   1.029   2.200   3.034 -1.8411  0.6422 -2.8858
 5310TIP3   OH215893   3.679   1.573   5.139 -0.2760 -0.9653  0.3697
 5310TIP3    H115894   3.773   1.573   5.155 -0.3199 -1.5510  0.6606
 5310TIP3    H215895   3.669   1.537   5.051 -0.2265 -0.9679  0.3651
 5311TIP3   OH215896   2.380   3.375   1.824  0.5050  0.2338 -0.0889
 5311TIP3    H115897   2.460   3.335   1.787 -1.2284 -2.1493 -1.5930
 5311TIP3    H215898   2.343   3.307   1.880 -0.0454  1.6536  1.3545
 5312TIP3   OH215899   2.955   2.756   4.566 -0.5307  0.2459  0.5175
 5312TIP3    H115900   2.971   2.754   4.660 -2.5344 -0.7535  0.8939
 5312TIP3    H215901   2.864   2.727   4.556 -0.4354  0.4990 -1.7177
 5313TIP3   OH215902   0.542   1.129   0.985 -0.3027 -0.0963  0.0264
 5313TIP3    H115903   0.633   1.105   0.966 -0.3988 -0.5266  0.0910
 5313TIP3    H215904   0.510   1.057   1.039 -0.3348  0.6120  0.9790
 5314TIP3   OH215905   0.362   1.114   2.060  0.3250 -0.7396  0.0031
 5314TIP3    H115906   0.457   1.117   2.060  0.4933 -3.3018 -0.5770
 5314TIP3    H215907   0.341   1.041   2.119 -1.4119  0.9994  1.7042
 5315TIP3   OH215908   1.986   3.411   5.728 -0.1975 -0.2296 -0.3719
 5315TIP3    H115909   2.037   3.462   5.791 -1.8096 -0.0814  0.8689
 5315TIP3    H215910   2.047   3.345   5.695  1.1136  0.6768  0.1488
 5316TIP3   OH215911   7.137   4.005   3.866 -0.4775 -0.3026 -0.5398
 5316TIP3    H115912   7.054   3.960   3.848 -0.8919  0.4579 -0.5616
 5316TIP3    H215913   7.197   3.969   3.800 -0.7179 -1.0393 -0.3677
 5317TIP3   OH215914   3.970   0.390   2.383  0.2163  0.2074  0.2253
 5317TIP3    H115915   3.988   0.484   2.384 -1.0284  0.5040 -1.2089
 5317TIP3    H215916   4.013   0.356   2.462 -1.0469  2.3051  1.9259
 5318TIP3   OH215917   3.962   6.002   4.383 -0.2647 -0.0574 -0.3595
 5318TIP3    H115918   3.948   5.924   4.330 -0.0560 -0.2442 -0.1409
 5318TIP3    H215919   3.995   6.067   4.321  0.8551 -0.5469 -0.2997
 5319TIP3   OH215920   4.914   3.265   2.030  0.1806  0.4758 -0.0033
 5319TIP3    H115921   4.934   3.263   1.937  3.7405  1.5404  0.5916
 5319TIP3    H215922   4.930   3.176   2.060  0.9828  0.5919 -0.0838
 5320TIP3   OH215923   5.112   5.585   3.766 -0.6719  0.0882  0.2394
 5320TIP3    H115924   5.141   5.654   3.825  1.3717  0.8587 -1.4985
 5320TIP3    H215925   5.023   5.609   3.741 -0.4162  1.4577  0.5871
 5321TIP3   OH215926   3.744   6.583   3.940  0.0041 -0.7271  0.0987
 5321TIP3    H115927   3.758   6.496   3.901  2.2790 -0.7498  0.8221
 5321TIP3    H215928   3.748   6.643   3.866  2.4544 -0.9311 -0.0239
 5322TIP3   OH215929   3.389   1.720   4.007  0.3772 -0.0548  0.2442
 5322TIP3    H115930   3.323   1.776   4.048 -0.3941 -0.9778  0.2894
 5322TIP3    H215931   3.455   1.781   3.974 -2.2863  1.3243 -3.1989
 5323TIP3   OH215932   3.845   0.841   3.206 -0.1422  0.4532 -0.0327
 5323TIP3    H115933   3.856   0.863   3.114  2.3870 -2.2367 -0.5318
 5323TIP3    H215934   3.896   0.906   3.253  0.5158  0.4738 -0.7591
 5324TIP3   OH215935   1.840   3.503   3.600 -0.2333 -0.1269 -0.3102
 5324TIP3    H115936   1.863   3.530   3.511  0.1532  0.6834  0.0225
 5324TIP3    H215937   1.813   3.584   3.644 -0.2882 -0.4909  0.3522
 5325TIP3   OH215938   0.276   3.192   4.733 -0.0008 -0.0163 -0.0390
 5325TIP3    H115939   0.326   3.173   4.653 -0.5618 -0.9133 -0.1984
 5325TIP3    H215940   0.234   3.276   4.716  1.1394  0.5700 -0.0484
 5326TIP3   OH215941   3.662   3.162   2.925 -0.2462  0.3402  0.0913
 5326TIP3    H115942   3.686   3.083   2.877  1.2017  0.6451  0.2537
 5326TIP3    H215943   3.684   3.233   2.866  1.8235  0.7352  1.2367
 5327TIP3   OH215944   4.990   0.166   3.831  0.1340 -0.2983 -0.4737
 5327TIP3    H115945   4.927   0.100   3.858 -2.4570  2.2181  0.1400
 5327TIP3    H215946   4.983   0.168   3.735  1.0962 -1.6351 -0.5947
 5328TIP3   OH215947   4.525   3.749   2.247 -0.1194 -0.2807 -0.2862
 5328TIP3    H115948   4.539   3.685   2.317  0.6560 -1.3774 -1.4116
 5328TIP3    H215949   4.610   3.760   2.207 -0.8554 -0.9485 -2.1269
 5329TIP3   OH215950   0.240   6.308   5.478  0.2429  0.1791 -0.1248
 5329TIP3    H115951   0.269   6.217   5.473 -2.1220 -0.7235  1.0345
 5329TIP3    H215952   0.299   6.348   5.542 -0.0545 -1.1680  1.0353
 5330TIP3   OH215953   4.686   0.822   4.889  0.1233 -0.2933  0.6909
 5330TIP3    H115954   4.776   0.824   4.921  0.3260  2.4313  0.1548
 5330TIP3    H215955   4.694   0.827   4.794 -0.6001 -2.5864  0.4450
 5331TIP3   OH215956   6.442   3.093   2.258  0.4019  0.0083 -0.0291
 5331TIP3    H115957   6.502   3.090   2.332 -0.4282 -0.4127  0.6441
 5331TIP3    H215958   6.355   3.089   2.298 -0.1604  2.3289 -0.8580
 5332TIP3   OH215959   2.577   5.658   5.184  0.4335  0.0404 -0.4641
 5332TIP3    H115960   2.493   5.614   5.168  0.1862  0.7546 -1.2367
 5332TIP3    H215961   2.623   5.652   5.101  1.2105 -0.4560 -0.0048
 5333TIP3   OH215962   1.177   4.158   3.110  0.3007 -0.1990  0.8936
 5333TIP3    H115963   1.129   4.223   3.161  1.6612  0.9999  0.7046
 5333TIP3    H215964   1.147   4.073   3.143 -2.8523  0.4242 -0.0571
 5334TIP3   OH215965   6.175   0.060   0.678  0.3872 -0.0428 -0.1871
 5334TIP3    H115966   6.115  -0.014   0.691 -0.9646  0.6772 -1.9857
 5334TIP3    H215967   6.150   0.124   0.744  0.8377 -0.7254  0.6632
 5335TIP3   OH215968   6.700   3.092   4.856  0.1621 -0.2004  0.1933
 5335TIP3    H115969   6.739   3.091   4.769  0.5581  1.4554  0.3261
 5335TIP3    H215970   6.629   3.156   4.850 -0.2202 -0.5357  0.9332
 5336TIP3   OH215971   7.004   1.676   4.462  0.2664 -0.1129  0.1329
 5336TIP3    H115972   7.055   1.719   4.394  0.3826  0.9191  0.8600
 5336TIP3    H215973   7.031   1.718   4.544 -1.6832  0.4283  0.5560
 5337TIP3   OH215974   2.452   5.617   1.542 -0.1845 -0.7273  0.0611
 5337TIP3    H115975   2.478   5.546   1.484  0.5316 -0.6915  0.3282
 5337TIP3    H215976   2.449   5.694   1.485  1.4834 -0.4987  0.2335
 5338TIP3   OH215977   5.917   5.332   3.983  0.2870 -0.0001 -0.3769
 5338TIP3    H115978   5.904   5.240   4.006  0.9066 -0.0142 -0.0904
 5338TIP3    H215979   5.833   5.373   4.003  0.2320 -0.3639  0.1708
 5339TIP3   OH215980   7.125   1.468   3.640 -0.0684  1.0338 -0.4755
 5339TIP3    H115981   7.162   1.380   3.643 -3.2625 -0.4582 -0.0918
 5339TIP3    H215982   7.086   1.475   3.553  0.4491  2.2356 -0.6337
 5340TIP3   OH215983   5.851   6.399   3.474 -0.2497  0.2570 -0.9182
 5340TIP3    H115984   5.843   6.306   3.497 -1.1597 -0.1632 -2.7363
 5340TIP3    H215985   5.863   6.443   3.558 -1.5064 -1.3232  0.1651
 5341TIP3   OH215986   0.293   6.360   1.696  0.1454 -0.3816 -0.2678
 5341TIP3    H115987   0.211   6.312   1.691  1.3821 -2.5249 -1.6457
 5341TIP3    H215988   0.329   6.356   1.608  1.1643  1.6459 -0.0103
 5342TIP3   OH215989   0.552   1.799   5.323 -0.6675 -0.0540  0.5731
 5342TIP3    H115990   0.547   1.707   5.350 -2.5608 -0.8481 -2.0449
 5342TIP3    H215991   0.643   1.823   5.336  0.4704 -3.0766 -0.8501
 5343TIP3   OH215992   3.827   0.336   0.639 -0.3898 -0.1156  0.5098
 5343TIP3    H115993   3.914   0.352   0.676 -0.5714  1.3901  0.3713
 5343TIP3    H215994   3.843   0.309   0.549 -0.0733  1.3453  0.1028
 5344TIP3   OH215995   4.459   4.483   4.711  0.4359 -0.3386 -0.1084
 5344TIP3    H115996   4.411   4.566   4.709  1.5664  0.4014  1.3263
 5344TIP3    H215997   4.524   4.491   4.641 -0.0248 -0.3980 -0.5511
 5345TIP3   OH215998   6.491   5.025   2.531  0.1007  0.3951  0.2247
 5345TIP3    H115999   6.489   5.088   2.459  2.0851 -0.8208 -1.0005
 5345TIP3    H216000   6.461   4.943   2.490  0.5173 -0.1416  0.9863
 5346TIP3   OH216001   0.855   6.329   4.194  0.1693 -0.7586  0.5139
 5346TIP3    H116002   0.831   6.321   4.286 -1.7571  0.7764  0.2181
 5346TIP3    H216003   0.809   6.407   4.164  1.6224 -0.5917 -1.4974
 5347TIP3   OH216004   2.350   3.531   0.482 -0.2647  0.3397 -0.3458
 5347TIP3    H116005   2.363   3.608   0.427 -1.7836  0.5558 -0.4438
 5347TIP3    H216006   2.374   3.457   0.426 -0.1606  0.6657 -0.7293
 5348TIP3   OH216007  -0.013   4.296   0.272  0.2945  0.1209 -0.1062
 5348TIP3    H116008  -0.003   4.305   0.177 -0.4672  2.5533 -0.0061
 5348TIP3    H216009   0.075   4.310   0.307  0.4536 -0.1047 -0.4123
 5349TIP3   OH216010   3.620   3.762   3.824  0.0684 -0.1945 -0.0912
 5349TIP3    H116011   3.632   3.739   3.732  0.5290  0.3811 -0.1831
 5349TIP3    H216012   3.538   3.812   3.825  1.2151  1.7916 -0.5786
 5350TIP3   OH216013   1.176   1.713   5.828  0.1024 -0.4022 -0.2050
 5350TIP3    H116014   1.254   1.686   5.876  0.3524  2.7254  1.3582
 5350TIP3    H216015   1.202   1.794   5.783 -1.3979 -0.9566 -2.2488
 5351TIP3   OH216016   5.648   2.566   4.978 -0.1358 -0.2230 -0.7454
 5351TIP3    H116017   5.670   2.624   4.905  0.0906 -0.9883 -1.2996
 5351TIP3    H216018   5.717   2.582   5.043 -1.0143  1.3648 -0.1413
 5352TIP3   OH216019   6.830   1.372   5.423  0.0364 -0.2929 -0.6206
 5352TIP3    H116020   6.799   1.360   5.333 -0.3444  1.2407 -0.7149
 5352TIP3    H216021   6.924   1.354   5.417  0.3019  1.2153 -1.6627
 5353TIP3   OH216022   4.089   6.367   5.189  0.0226  0.3083  0.0127
 5353TIP3    H116023   4.164   6.309   5.191  0.6405  1.0152 -1.3299
 5353TIP3    H216024   4.121   6.447   5.148 -0.9943  1.3302  1.1277
 5354TIP3   OH216025   5.574   3.554   0.290  0.2614 -0.0423 -0.4991
 5354TIP3    H116026   5.620   3.599   0.219  0.2330 -0.6593 -0.9149
 5354TIP3    H216027   5.630   3.480   0.312  1.4066  1.3553  1.6727
 5355TIP3   OH216028   0.992   0.268   1.882 -0.1444 -0.4870  0.1554
 5355TIP3    H116029   0.988   0.180   1.844  2.3572 -1.4959  1.9415
 5355TIP3    H216030   0.918   0.271   1.943 -2.0083 -0.1689 -2.0015
 5356TIP3   OH216031   1.051   0.259   4.263  0.4944  0.3971  0.7476
 5356TIP3    H116032   0.962   0.286   4.288  0.6522  1.5828  0.1226
 5356TIP3    H216033   1.096   0.342   4.244  1.4088 -0.2538  0.0036
 5357TIP3   OH216034   3.230   3.515   3.833 -0.2240  0.7423  0.6036
 5357TIP3    H116035   3.308   3.493   3.782  0.0186 -0.0230  1.2816
 5357TIP3    H216036   3.158   3.471   3.789 -0.0301  0.1626  0.8619
 5358TIP3   OH216037   5.059   3.462   2.121  0.1023 -0.4045  0.8147
 5358TIP3    H116038   4.982   3.411   2.094  1.7332 -2.2385 -0.6986
 5358TIP3    H216039   5.068   3.529   2.054  0.7489 -1.2333  0.0582
 5359TIP3   OH216040   1.506   0.296   2.044  0.0411 -0.4816  0.6176
 5359TIP3    H116041   1.438   0.312   2.110 -0.4599 -0.9070  0.2163
 5359TIP3    H216042   1.552   0.379   2.036 -0.1874 -0.2949  1.1714
 5360TIP3   OH216043   2.971   5.184   5.027 -0.1902  0.1694  0.2291
 5360TIP3    H116044   2.925   5.108   5.062 -0.4920 -0.1435 -0.7889
 5360TIP3    H216045   3.049   5.193   5.082 -0.2652 -0.7462  0.4991
 5361TIP3   OH216046   7.050   1.006   3.391 -0.1034  0.1603 -0.3697
 5361TIP3    H116047   7.069   0.956   3.312 -0.1486  0.8090 -0.7962
 5361TIP3    H216048   7.125   0.989   3.448 -0.4833 -1.0124 -0.1846
 5362TIP3   OH216049   1.476   6.766   4.904 -0.2808  0.6229 -0.3942
 5362TIP3    H116050   1.485   6.861   4.913  0.3461  0.4332  1.2680
 5362TIP3    H216051   1.476   6.751   4.809  0.6499  2.1793 -0.6758
 5363TIP3   OH216052   5.527   0.912   0.097  0.1106 -0.1280 -0.7157
 5363TIP3    H116053   5.575   0.987   0.061  0.5656  0.4757  1.0388
 5363TIP3    H216054   5.487   0.870   0.021  0.6003  1.3619 -1.8400
 5364TIP3   OH216055   0.175   5.492   3.058  0.3343  0.3528  0.1399
 5364TIP3    H116056   0.127   5.516   2.979  0.0028  0.3397  0.3373
 5364TIP3    H216057   0.267   5.487   3.030  0.2029  0.2236 -0.2719
 5365TIP3   OH216058   0.851   2.049   4.145 -0.2202  0.2034  0.3819
 5365TIP3    H116059   0.834   2.143   4.150  0.3070  0.3308 -0.0956
 5365TIP3    H216060   0.873   2.023   4.234  2.7136  1.1439  0.0209
 5366TIP3   OH216061   7.185   4.784   5.827 -0.1787  0.0318 -0.2814
 5366TIP3    H116062   7.129   4.842   5.878  1.4366  1.0658  0.3853
 5366TIP3    H216063   7.207   4.713   5.888 -1.0249 -0.5763 -0.6610
 5367TIP3   OH216064   0.286   4.807   1.949 -0.5435  0.1335 -0.1476
 5367TIP3    H116065   0.294   4.771   1.861 -1.8587  0.9140 -0.6146
 5367TIP3    H216066   0.290   4.730   2.006 -2.2887 -0.7032 -1.0611
 5368TIP3   OH216067   2.212   3.995   3.063  0.7174 -0.1002  0.0796
 5368TIP3    H116068   2.215   3.902   3.086 -1.7554 -0.2821 -0.0917
 5368TIP3    H216069   2.119   4.015   3.058  1.1561  1.7754 -2.3715
 5369TIP3   OH216070   5.952   5.674   1.518  0.2231 -0.2157  0.6308
 5369TIP3    H116071   5.952   5.738   1.589 -0.0018 -0.7632  1.1264
 5369TIP3    H216072   5.943   5.727   1.439 -2.5635  0.2273  1.1580
 5370TIP3   OH216073   1.157   5.053   0.389 -0.3320 -0.3085 -0.4753
 5370TIP3    H116074   1.130   4.969   0.352  1.2365 -0.5920 -1.0754
 5370TIP3    H216075   1.204   5.096   0.317  0.3608  0.3416  0.3470
 5371TIP3   OH216076   6.625   5.538   2.853 -0.0042  0.1417 -0.0759
 5371TIP3    H116077   6.576   5.581   2.923 -1.8515 -1.4209 -0.3318
 5371TIP3    H216078   6.647   5.610   2.793 -3.0138  0.8441 -0.5155
 5372TIP3   OH216079   5.889   3.978   3.619 -0.0037  0.5159 -0.5679
 5372TIP3    H116080   5.859   3.888   3.626 -0.2727  0.6714  0.3127
 5372TIP3    H216081   5.973   3.972   3.573  0.3163 -0.2428  0.1093
 5373TIP3   OH216082   3.172   1.807   1.159 -0.3012  0.3922  0.3670
 5373TIP3    H116083   3.259   1.769   1.176 -0.8061 -0.8022  0.4028
 5373TIP3    H216084   3.142   1.762   1.080 -0.6025  1.3088 -0.0490
 5374TIP3   OH216085   5.650   3.333   1.928 -0.3353 -0.1744  0.3297
 5374TIP3    H116086   5.721   3.393   1.906 -0.3503  0.0423  0.8558
 5374TIP3    H216087   5.694   3.252   1.952 -0.2921 -0.2114  0.1304
 5375TIP3   OH216088   0.360   1.357   4.677  0.1562 -1.0102 -0.0003
 5375TIP3    H116089   0.402   1.271   4.673 -0.1529 -1.1829  0.3985
 5375TIP3    H216090   0.275   1.341   4.719  0.2537 -0.4533  0.4204
 5376TIP3   OH216091   4.222   5.028   0.945 -0.5859 -0.3539  0.1985
 5376TIP3    H116092   4.149   5.051   0.888  0.1341  0.1816 -0.5304
 5376TIP3    H216093   4.260   4.950   0.904 -0.4428 -0.3370  0.2994
 5377TIP3   OH216094   0.023   0.874   5.003 -0.3887  0.0436 -0.2841
 5377TIP3    H116095   0.000   0.836   5.088  0.4991  1.3356  0.5653
 5377TIP3    H216096   0.083   0.946   5.024  0.7793 -0.3385 -2.0921
 5378TIP3   OH216097   6.168   5.680   1.824 -0.6537  0.1358  0.3300
 5378TIP3    H116098   6.166   5.675   1.728  0.6081 -0.9962  0.3282
 5378TIP3    H216099   6.077   5.668   1.851 -0.7631 -1.5933 -0.6795
 5379TIP3   OH216100   2.218   4.204   2.362 -0.0823 -0.3704 -0.5137
 5379TIP3    H116101   2.126   4.194   2.389 -0.9530  0.7564 -2.7581
 5379TIP3    H216102   2.237   4.125   2.313  0.5951 -1.1461  0.9240
 5380TIP3   OH216103   1.063   4.376   0.985  0.1471  0.0327  0.6803
 5380TIP3    H116104   0.999   4.413   0.924 -0.3718  0.1026  1.2525
 5380TIP3    H216105   1.119   4.321   0.931 -1.4567 -1.4426  0.4150
 5381TIP3   OH216106   2.531   2.414   1.031  0.2999 -0.1865  0.2814
 5381TIP3    H116107   2.455   2.356   1.036  0.5829 -0.5074  3.9922
 5381TIP3    H216108   2.494   2.502   1.033  0.0035 -0.2828 -0.4650
 5382TIP3   OH216109   0.847   1.193   3.602  0.1805 -0.0545 -0.2423
 5382TIP3    H116110   0.935   1.167   3.629  0.1726  0.6537  0.5222
 5382TIP3    H216111   0.804   1.112   3.575  2.3024 -0.0051 -4.4836
 5383TIP3   OH216112   2.384   3.385   2.855 -0.6151  0.2063 -0.0707
 5383TIP3    H116113   2.351   3.345   2.774 -1.2837 -0.3404  0.4615
 5383TIP3    H216114   2.471   3.417   2.832  0.6640 -2.9554 -0.1374
 5384TIP3   OH216115   5.355   6.284   0.975  0.0738 -0.3971  0.2568
 5384TIP3    H116116   5.374   6.212   1.035  0.8589 -0.9163 -0.5852
 5384TIP3    H216117   5.379   6.362   1.024 -1.1094 -0.6616  1.3082
 5385TIP3   OH216118   2.556   0.575   1.918  0.1211  0.3562 -0.5782
 5385TIP3    H116119   2.552   0.671   1.920  1.0056  0.3955  1.0772
 5385TIP3    H216120   2.471   0.547   1.952  0.6313  0.6124  0.9680
 5386TIP3   OH216121   2.071   5.548   1.396 -0.4270  0.4059 -0.0565
 5386TIP3    H116122   2.132   5.479   1.422 -0.9654 -0.5917 -1.3867
 5386TIP3    H216123   2.127   5.617   1.360 -0.0968 -1.0124 -2.4222
 5387TIP3   OH216124   4.095   2.911   5.541 -0.0247  0.3556  0.2136
 5387TIP3    H116125   4.081   2.952   5.456 -0.1734 -0.7719 -0.3288
 5387TIP3    H216126   4.120   2.983   5.599 -2.0597  1.4912 -0.2424
 5388TIP3   OH216127   1.123   6.188   1.391  0.4155  0.8245 -0.3578
 5388TIP3    H116128   1.076   6.123   1.339  0.4612  0.5074 -0.0097
 5388TIP3    H216129   1.133   6.263   1.333  1.5461  0.0346 -1.2261
 5389TIP3   OH216130   3.541   4.430   0.307  0.2874 -0.3352  0.8667
 5389TIP3    H116131   3.518   4.473   0.389 -1.4355  0.4567  0.0163
 5389TIP3    H216132   3.585   4.498   0.256  0.1140 -0.4059  0.6186
 5390TIP3   OH216133   6.490   2.345   1.740 -0.3540  0.4150  0.0472
 5390TIP3    H116134   6.467   2.262   1.699  0.4764 -0.5598  1.4618
 5390TIP3    H216135   6.490   2.327   1.834 -0.9303  2.2334  0.4464
 5391TIP3   OH216136   6.255   0.415   0.640 -0.5989  0.1990 -0.2039
 5391TIP3    H116137   6.250   0.390   0.547 -1.5158  0.7435 -0.3156
 5391TIP3    H216138   6.247   0.510   0.640 -1.9948  0.1163  0.4963
 5392TIP3   OH216139   4.797   2.765   1.805  0.6721 -0.1718 -0.5967
 5392TIP3    H116140   4.891   2.755   1.797  0.6800 -0.2511 -0.4215
 5392TIP3    H216141   4.775   2.838   1.747  0.8413 -0.1455 -0.6288
 5393TIP3   OH216142   1.266   5.528   1.974  0.3663  0.2730 -0.4578
 5393TIP3    H116143   1.190   5.561   1.925  1.1872  1.1770 -1.1755
 5393TIP3    H216144   1.287   5.599   2.035  0.7478  0.1124 -0.4026
 5394TIP3   OH216145   3.304   3.824   0.231 -0.1325  0.2016  0.6609
 5394TIP3    H116146   3.387   3.819   0.279 -0.7500  0.6761  1.8234
 5394TIP3    H216147   3.277   3.732   0.221  1.6462 -0.1379 -1.8182
 5395TIP3   OH216148   0.794   5.321   3.886 -0.6719 -0.4479  0.2328
 5395TIP3    H116149   0.823   5.285   3.802  0.2651  1.5524 -0.3522
 5395TIP3    H216150   0.783   5.244   3.943 -0.6107 -1.7737 -1.4839
 5396TIP3   OH216151   1.903   3.451   0.601  0.5878 -0.1944 -0.6272
 5396TIP3    H116152   1.966   3.468   0.671  0.8551 -0.6641 -0.7521
 5396TIP3    H216153   1.869   3.364   0.620 -1.8013  0.9452  0.7945
 5397TIP3   OH216154   2.984   6.438   1.945 -0.1681 -0.6592 -0.3215
 5397TIP3    H116155   3.015   6.522   1.979  0.9336 -1.0406 -0.3483
 5397TIP3    H216156   2.950   6.392   2.022  0.6336 -0.7860 -0.0303
 5398TIP3   OH216157   0.207   6.684   2.305  0.5151 -0.0161  0.6081
 5398TIP3    H116158   0.271   6.653   2.369  1.6199 -0.2777 -0.5751
 5398TIP3    H216159   0.146   6.611   2.295 -0.5506  0.5629  2.4026
 5399TIP3   OH216160   2.811   0.827   3.347 -0.2117 -0.1654  0.0792
 5399TIP3    H116161   2.858   0.746   3.329 -0.9260  0.1199 -3.9800
 5399TIP3    H216162   2.870   0.896   3.315  0.1812  1.0027  3.0112
 5400TIP3   OH216163   1.033   3.213   0.831  0.0808  0.5470 -0.4126
 5400TIP3    H116164   0.993   3.126   0.830  1.3857 -0.1274  1.2165
 5400TIP3    H216165   0.994   3.257   0.906 -0.0987  1.1357 -0.8445
 5401TIP3   OH216166   1.678   1.616   1.999 -0.8693  0.5125 -0.4812
 5401TIP3    H116167   1.601   1.606   1.944 -0.0631 -0.0444 -1.5518
 5401TIP3    H216168   1.706   1.707   1.986 -1.2739  0.6873 -0.1618
 5402TIP3   OH216169   6.376   0.478   3.515 -0.0252 -0.0102  0.0025
 5402TIP3    H116170   6.447   0.539   3.497  0.5059 -1.2581 -2.6815
 5402TIP3    H216171   6.297   0.524   3.488  0.2324 -0.0006 -0.7650
 5403TIP3   OH216172   4.122   5.472   1.170 -0.1000  0.0686  0.1425
 5403TIP3    H116173   4.120   5.568   1.171  1.9540  0.2179 -1.7660
 5403TIP3    H216174   4.144   5.448   1.260  1.0900  1.5185  0.2858
 5404TIP3   OH216175   3.844   4.297   5.613  0.3916  0.1810 -0.3152
 5404TIP3    H116176   3.785   4.372   5.603  0.6691  0.4592  0.0894
 5404TIP3    H216177   3.841   4.253   5.529  0.1457  0.5960 -0.5271
 5405TIP3   OH216178   4.508   3.413   4.814  0.3041  0.1446  0.2387
 5405TIP3    H116179   4.591   3.444   4.778  0.5584 -0.3966  0.3589
 5405TIP3    H216180   4.506   3.450   4.903 -1.3776  3.4473 -0.9979
 5406TIP3   OH216181   0.844   2.549   0.851  0.0468  0.8491  0.2339
 5406TIP3    H116182   0.848   2.627   0.796  1.2969  1.0037  0.5281
 5406TIP3    H216183   0.751   2.526   0.853 -0.3565  2.3672  0.1988
 5407TIP3   OH216184   4.816   4.474   2.498 -0.2149  0.3425 -0.3360
 5407TIP3    H116185   4.887   4.415   2.471 -0.8643 -1.4301  1.5614
 5407TIP3    H216186   4.796   4.448   2.588 -1.1392  2.9570  0.2871
 5408TIP3   OH216187   6.580   1.088   0.093 -0.2334  0.5456  0.3188
 5408TIP3    H116188   6.534   1.055   0.170 -0.1166 -0.3265  0.0270
 5408TIP3    H216189   6.646   1.148   0.128 -0.0507  0.0069  0.9165
 5409TIP3   OH216190   3.643   2.162   3.911  0.1623 -0.1668  0.6445
 5409TIP3    H116191   3.673   2.247   3.877  1.2468 -0.4602  0.8270
 5409TIP3    H216192   3.717   2.129   3.961 -0.4616 -0.9676  1.0630
 5410TIP3   OH216193   6.764   6.478   4.188 -0.2715  0.5453  0.5194
 5410TIP3    H116194   6.729   6.447   4.271 -1.4998  1.4264  0.3426
 5410TIP3    H216195   6.786   6.570   4.202  0.8873  0.3349  0.2689
 5411TIP3   OH216196   2.396   2.023   4.425 -0.0180  0.1071 -0.0554
 5411TIP3    H116197   2.484   1.995   4.400  0.0386  1.9505 -2.2650
 5411TIP3    H216198   2.338   1.979   4.363 -1.1018 -3.1708  2.9503
 5412TIP3   OH216199   4.565   1.966   4.377  0.3581 -0.4834  0.2454
 5412TIP3    H116200   4.610   1.899   4.430  1.8525  0.8093  0.6819
 5412TIP3    H216201   4.572   1.934   4.287  1.5790 -0.6441  0.3802
 5413TIP3   OH216202   2.526   5.365   1.101 -0.3256 -0.2053  0.2660
 5413TIP3    H116203   2.561   5.276   1.091 -1.3552 -0.4734 -1.5244
 5413TIP3    H216204   2.436   5.352   1.131 -0.3909  0.2510  0.2787
 5414TIP3   OH216205   4.079   1.097   0.440 -0.2153 -0.4881  0.0955
 5414TIP3    H116206   4.084   1.008   0.476 -0.5107 -0.6273 -0.2050
 5414TIP3    H216207   4.049   1.151   0.513  2.4966 -0.1515  1.0760
 5415TIP3   OH216208   4.952   3.779   3.679  0.1036 -0.1354 -0.6670
 5415TIP3    H116209   4.912   3.863   3.703  3.4422  1.4651 -0.0774
 5415TIP3    H216210   4.947   3.727   3.759 -0.0069  0.3739 -0.3348
 5416TIP3   OH216211   4.550   1.904   4.680 -0.1795 -0.3318 -0.3942
 5416TIP3    H116212   4.633   1.947   4.702 -1.5497  1.8310  0.9639
 5416TIP3    H216213   4.562   1.813   4.706  1.6325  0.0192  0.1411
 5417TIP3   OH216214   6.101   3.650   1.527  0.3420  0.5844  0.0282
 5417TIP3    H116215   6.030   3.606   1.573 -0.0417  2.1927  1.0465
 5417TIP3    H216216   6.179   3.630   1.580  0.2236  0.8593  0.3091
 5418TIP3   OH216217   1.590   6.628   0.399 -0.2771 -0.4776  0.3630
 5418TIP3    H116218   1.498   6.622   0.374 -0.0244 -1.2689 -0.4252
 5418TIP3    H216219   1.635   6.566   0.342  0.9546  0.9462 -0.3082
 5419TIP3   OH216220   3.987   2.847   1.119 -0.7789  0.2449  0.4533
 5419TIP3    H116221   3.980   2.766   1.070  0.9007 -0.8996  1.9500
 5419TIP3    H216222   4.059   2.895   1.077  0.3399 -0.5205  1.4167
 5420TIP3   OH216223   3.478   4.689   3.331 -0.2422  0.4831  0.1227
 5420TIP3    H116224   3.556   4.635   3.345 -1.5427 -1.3383  0.6826
 5420TIP3    H216225   3.436   4.651   3.255  0.5895  2.9729 -1.6977
 5421TIP3   OH216226   0.603   1.159   5.686 -0.1143  0.2131 -0.6998
 5421TIP3    H116227   0.526   1.110   5.655  0.4562 -0.7813 -0.5756
 5421TIP3    H216228   0.677   1.100   5.670  0.5151  0.7863  0.0529
 5422TIP3   OH216229   2.262   4.007   4.586  0.0089 -0.2273  0.1481
 5422TIP3    H116230   2.215   4.053   4.655  1.0311 -0.6332  1.1438
 5422TIP3    H216231   2.199   4.000   4.515 -0.5929  1.5163  0.4629
 5423TIP3   OH216232   4.449   2.969   4.926 -0.0415 -0.2782  0.3762
 5423TIP3    H116233   4.385   3.035   4.897  0.7203  0.8426  1.1497
 5423TIP3    H216234   4.525   2.983   4.871  0.7543  0.6763  1.6486
 5424TIP3   OH216235   2.880   1.491   3.959 -0.4931 -0.0358 -0.1958
 5424TIP3    H116236   2.886   1.396   3.947 -2.5925 -0.2215 -0.1226
 5424TIP3    H216237   2.901   1.527   3.873 -0.7163 -0.6121 -0.4996
 5425TIP3   OH216238   6.486   3.836   2.482 -0.3990 -0.5035 -0.5851
 5425TIP3    H116239   6.544   3.800   2.415 -0.6491  0.3486 -1.2797
 5425TIP3    H216240   6.528   3.814   2.565  0.9494  0.1106 -1.0735
 5426TIP3   OH216241   3.849   4.383   2.290 -0.5696  0.2311  0.5566
 5426TIP3    H116242   3.862   4.401   2.383  2.5222  1.9329 -0.0809
 5426TIP3    H216243   3.924   4.330   2.264 -0.0210  1.8291 -1.4085
 5427TIP3   OH216244   6.713   6.613   2.108 -0.7171  0.4936 -0.3156
 5427TIP3    H116245   6.669   6.618   2.192 -0.5559  0.3754 -0.2240
 5427TIP3    H216246   6.739   6.703   2.088  0.0704  0.3901  0.2016
 5428TIP3   OH216247   5.412   3.778   2.665 -0.2271  0.4540 -0.3523
 5428TIP3    H116248   5.450   3.859   2.697 -0.0672  0.6468 -1.0193
 5428TIP3    H216249   5.375   3.800   2.580  0.3918 -0.3167 -0.8387
 5429TIP3   OH216250   3.963   4.095   1.125 -0.8696 -0.1511  0.3046
 5429TIP3    H116251   4.012   4.140   1.193 -0.3391  0.2559 -0.3279
 5429TIP3    H216252   3.927   4.017   1.167  1.9938 -1.5567  0.3456
 5430TIP3   OH216253   4.834   4.125   1.080  0.0460 -0.4590  0.5273
 5430TIP3    H116254   4.847   4.154   1.170 -3.5655 -0.1677  1.0762
 5430TIP3    H216255   4.780   4.046   1.087  1.0610 -1.4241 -1.3837
 5431TIP3   OH216256   6.813   4.528   5.465 -0.3922 -0.6677 -0.2619
 5431TIP3    H116257   6.719   4.534   5.447 -0.4878 -1.5011 -0.0900
 5431TIP3    H216258   6.854   4.538   5.379 -0.6723 -0.9308 -0.4300
 5432TIP3   OH216259   1.292   4.841   4.861 -0.6511 -0.0347  0.6228
 5432TIP3    H116260   1.242   4.898   4.919 -0.6926  3.0540 -2.1139
 5432TIP3    H216261   1.245   4.844   4.777  1.2927 -1.2794 -0.6003
 5433TIP3   OH216262   2.290   2.978   2.268 -0.2616  0.2122  0.1849
 5433TIP3    H116263   2.255   2.890   2.257  0.7203 -0.3928  1.5731
 5433TIP3    H216264   2.260   3.005   2.355 -0.3726  1.1721 -0.1377
 5434TIP3   OH216265   3.832   0.660   0.553  0.5331 -0.1068 -0.2413
 5434TIP3    H116266   3.908   0.603   0.546  0.0422 -0.8679  0.4529
 5434TIP3    H216267   3.772   0.629   0.485  0.7297  0.3301 -0.6214
 5435TIP3   OH216268   0.455   1.008   4.396 -0.4898  0.3409 -0.6863
 5435TIP3    H116269   0.448   0.985   4.303  0.4756  0.8081 -0.8874
 5435TIP3    H216270   0.457   0.924   4.442 -1.7646  0.1206 -1.0184
 5436TIP3   OH216271   5.146   2.442   3.634 -0.1995  0.3509 -0.0050
 5436TIP3    H116272   5.090   2.520   3.634  0.7581  1.1146  2.0778
 5436TIP3    H216273   5.228   2.471   3.594  0.1239  0.3954  0.6799
 5437TIP3   OH216274   3.585   1.969   3.548 -0.4643 -0.5601 -0.1212
 5437TIP3    H116275   3.623   1.910   3.482  0.9726  0.7538 -0.5107
 5437TIP3    H216276   3.659   2.020   3.580 -1.5361  0.4161  0.8714
 5438TIP3   OH216277   1.132   6.729   3.015  0.2630 -0.4053  0.3968
 5438TIP3    H116278   1.054   6.743   3.069 -1.9834 -1.9597 -2.1406
 5438TIP3    H216279   1.106   6.660   2.954  3.3672 -0.3436 -1.1906
 5439TIP3   OH216280   7.191   0.980   2.114 -0.0408 -0.1014  0.1492
 5439TIP3    H116281   7.273   0.981   2.066 -0.1939  1.1897 -0.1191
 5439TIP3    H216282   7.137   1.047   2.072 -0.4082  0.6363  1.7263
 5440TIP3   OH216283   3.101   4.149   4.448 -1.4314 -0.2251  0.5514
 5440TIP3    H116284   3.112   4.238   4.482  0.2726 -0.9755  2.1495
 5440TIP3    H216285   3.012   4.125   4.472 -1.4343  0.5480  1.3797
 5441TIP3   OH216286   1.625   1.300   1.070  0.1045 -0.2557 -0.3295
 5441TIP3    H116287   1.588   1.267   0.988 -1.2807 -1.2244  0.6427
 5441TIP3    H216288   1.575   1.256   1.138 -0.8888  2.7770  1.0716
 5442TIP3   OH216289   2.785   6.464   2.372 -0.0323  0.3169 -0.5869
 5442TIP3    H116290   2.845   6.391   2.359 -1.0149 -0.3792 -1.3571
 5442TIP3    H216291   2.796   6.518   2.293 -0.6020  0.0371 -0.8658
 5443TIP3   OH216292   2.958   4.997   0.745 -0.2515  0.0271  0.0920
 5443TIP3    H116293   2.876   5.025   0.704 -0.4208 -0.0782  0.3580
 5443TIP3    H216294   2.953   5.030   0.835  0.1082  0.2348  0.0398
 5444TIP3   OH216295   2.787   1.879   1.028  0.0969  0.7214  0.3231
 5444TIP3    H116296   2.831   1.940   0.967 -1.8994  0.4025 -1.5600
 5444TIP3    H216297   2.808   1.792   0.993 -1.9625  0.5660 -0.6491
 5445TIP3   OH216298   4.198   0.900   0.993  0.4580 -0.1906  0.1760
 5445TIP3    H116299   4.194   0.902   1.089  0.2579 -0.2408  0.1691
 5445TIP3    H216300   4.238   0.984   0.969 -0.4316  0.2748  0.2593
 5446TIP3   OH216301   1.315   0.612   5.678  0.0278 -0.1028 -0.2767
 5446TIP3    H116302   1.409   0.633   5.683 -0.0004 -0.1424  0.5937
 5446TIP3    H216303   1.271   0.694   5.702 -0.2140  0.3999 -2.3034
 5447TIP3   OH216304   0.171   3.173   0.987  0.4013 -0.0136 -0.4653
 5447TIP3    H116305   0.086   3.195   1.026 -0.7078  0.1403 -2.7961
 5447TIP3    H216306   0.235   3.202   1.051 -1.2806  0.6887  0.9802
 5448TIP3   OH216307   4.781   0.949   0.978 -0.0287 -0.2287 -0.0224
 5448TIP3    H116308   4.740   0.943   1.064  0.6692 -0.0850  0.3253
 5448TIP3    H216309   4.742   0.877   0.928 -0.3094 -0.4210  0.4636
 5449TIP3   OH216310   2.233   5.820   0.172  0.3592 -0.9907 -0.2358
 5449TIP3    H116311   2.152   5.788   0.131 -0.6347  2.4518 -1.3055
 5449TIP3    H216312   2.290   5.840   0.098 -0.0386  1.7967  0.0795
 5450TIP3   OH216313   5.162   4.232   1.260 -0.0889  0.0357  0.4366
 5450TIP3    H116314   5.071   4.207   1.272  0.6085 -1.8339  2.5428
 5450TIP3    H216315   5.207   4.149   1.243  1.3897  0.7396  0.7459
 5451TIP3   OH216316   2.380   2.782   0.044 -0.2953 -0.2107 -0.0887
 5451TIP3    H116317   2.379   2.844  -0.029 -0.5603 -2.3806 -2.0412
 5451TIP3    H216318   2.298   2.799   0.090 -0.3882  0.8305 -0.5920
 5452TIP3   OH216319   2.347   4.156   1.649 -0.1405  0.1008 -0.1212
 5452TIP3    H116320   2.332   4.141   1.743  1.6875 -0.1221  0.1697
 5452TIP3    H216321   2.304   4.240   1.631 -0.3990  0.2166  0.9531
 5453TIP3   OH216322   0.168   3.986   1.348  0.1118  0.1411  0.4522
 5453TIP3    H116323   0.220   4.064   1.325  0.0765  0.1571  0.4270
 5453TIP3    H216324   0.175   3.929   1.272  0.1977  0.0879  0.4993
 5454TIP3   OH216325   0.142   0.882   3.005  0.1373 -0.0926  0.2997
 5454TIP3    H116326   0.182   0.801   2.974 -0.2649 -0.0815 -0.2637
 5454TIP3    H216327   0.062   0.890   2.953  0.3036  0.7969  0.1789
 5455TIP3   OH216328   3.204   2.030   5.177 -0.1405 -0.5824  0.3340
 5455TIP3    H116329   3.232   1.949   5.135  1.4770 -1.3479  2.7003
 5455TIP3    H216330   3.284   2.067   5.214 -1.1775  1.0040  1.1012
 5456TIP3   OH216331   4.083   0.881   1.887  0.4446 -0.3137 -0.1160
 5456TIP3    H116332   4.098   0.972   1.911 -1.1368 -0.7289  2.8644
 5456TIP3    H216333   4.170   0.841   1.887  0.9941  0.8369  0.1258
 5457TIP3   OH216334   1.987   1.369   3.057 -0.0877  0.3360 -0.0331
 5457TIP3    H116335   1.999   1.464   3.067 -0.1562  0.2488  0.9606
 5457TIP3    H216336   1.927   1.345   3.127  0.0588 -0.4704 -0.1785
 5458TIP3   OH216337   1.273   3.766   3.914  0.3779 -0.5162  0.2083
 5458TIP3    H116338   1.301   3.831   3.978 -1.5965  0.6839 -0.0943
 5458TIP3    H216339   1.302   3.800   3.830 -0.3108 -0.2295  0.0878
 5459TIP3   OH216340   4.276   4.560   3.039 -0.2750 -0.7012 -0.1171
 5459TIP3    H116341   4.278   4.642   2.989 -1.2135 -0.0399  0.8866
 5459TIP3    H216342   4.356   4.562   3.091 -0.1172 -0.5957 -0.3594
 5460TIP3   OH216343   6.129   1.063   3.555  0.1112  0.0006 -0.3362
 5460TIP3    H116344   6.192   1.099   3.493  0.5731  0.2863  0.2852
 5460TIP3    H216345   6.054   1.037   3.501  2.0066 -3.5163 -1.5935
 5461TIP3   OH216346   4.567   4.886   2.136 -0.2984  0.0034  0.3698
 5461TIP3    H116347   4.651   4.884   2.091 -0.7296  0.5025 -0.4836
 5461TIP3    H216348   4.542   4.794   2.144 -0.0608 -0.1066 -0.1120
 5462TIP3   OH216349   5.231   3.220   0.049  0.0689  0.2225 -0.4529
 5462TIP3    H116350   5.252   3.259  -0.036 -0.1433 -0.6454 -0.9126
 5462TIP3    H216351   5.207   3.295   0.104  0.9493  0.8738 -0.9246
 5463TIP3   OH216352   1.209   0.898   1.138 -0.3198  0.2611 -0.0888
 5463TIP3    H116353   1.122   0.907   1.099 -0.5790 -0.2326  0.3615
 5463TIP3    H216354   1.213   0.967   1.204  0.4632  1.6927 -1.5592
 5464TIP3   OH216355   3.724   5.938   2.008  0.0177 -0.0166  0.4973
 5464TIP3    H116356   3.630   5.919   2.018  0.3928 -2.3531  0.2838
 5464TIP3    H216357   3.735   5.955   1.914 -0.1596 -0.0440  0.4706
 5465TIP3   OH216358   4.372   0.743   2.592 -0.3428  0.6233  0.6036
 5465TIP3    H116359   4.280   0.764   2.610 -0.8367  1.0469 -2.0365
 5465TIP3    H216360   4.371   0.650   2.570 -0.2819  0.8047 -0.1841
 5466TIP3   OH216361   2.354   2.077   5.269 -0.0246 -0.1549 -0.0860
 5466TIP3    H116362   2.323   2.038   5.187  0.7141  1.0659 -0.9757
 5466TIP3    H216363   2.449   2.085   5.257 -0.1354  1.8947  0.0509
 5467TIP3   OH216364   4.988   5.384   3.508 -0.1131 -0.2485  0.5208
 5467TIP3    H116365   4.962   5.461   3.559  1.2676 -0.6334  1.8738
 5467TIP3    H216366   4.951   5.310   3.556  1.3032 -0.6260  1.0696
 5468TIP3   OH216367   3.275   4.093   2.498 -0.0258  0.6677  0.0875
 5468TIP3    H116368   3.354   4.101   2.444  0.3694 -0.6135  0.4487
 5468TIP3    H216369   3.202   4.105   2.437  0.4181 -0.4405 -0.6869
 5469TIP3   OH216370   7.008   1.568   5.197  0.0570  0.7001 -0.1040
 5469TIP3    H116371   7.079   1.534   5.251  0.4270 -1.6413 -1.8754
 5469TIP3    H216372   7.033   1.658   5.177  0.6279  1.1318  2.3264
 5470TIP3   OH216373   1.821   1.703   3.423  0.3713 -0.4205 -0.3295
 5470TIP3    H116374   1.856   1.774   3.477 -2.6212  0.6988  0.3024
 5470TIP3    H216375   1.871   1.626   3.451  3.0494  1.1782 -0.3531
 5471TIP3   OH216376   0.908   6.806   3.731 -0.7476 -0.2754  0.6447
 5471TIP3    H116377   0.927   6.713   3.719 -2.1569 -0.5046  0.0012
 5471TIP3    H216378   0.909   6.818   3.826 -0.2302 -0.8727  0.7243
 5472TIP3   OH216379   2.138   2.766   4.118  0.4192  0.2638 -0.2561
 5472TIP3    H116380   2.100   2.688   4.158  0.2937  0.4190 -0.0657
 5472TIP3    H216381   2.069   2.832   4.126  0.1040  0.0914 -1.4210
 5473TIP3   OH216382   2.875   6.499   1.079  0.3665  0.4012  0.3424
 5473TIP3    H116383   2.861   6.500   1.174  0.4340  0.7513  0.3509
 5473TIP3    H216384   2.798   6.544   1.043  0.6695  0.8748  0.2789
 5474TIP3   OH216385   3.086   3.105   0.832  0.2269  0.0421  0.3114
 5474TIP3    H116386   3.018   3.046   0.798 -0.0438  0.7689 -0.4452
 5474TIP3    H216387   3.131   3.054   0.899 -0.3974 -0.8133  0.0932
 5475TIP3   OH216388   2.202   4.842   4.655  0.0240 -0.0027 -0.0490
 5475TIP3    H116389   2.158   4.899   4.718 -1.5539  1.7511 -2.5237
 5475TIP3    H216390   2.150   4.762   4.654  0.2044 -0.1457  1.0014
 5476TIP3   OH216391   4.619   1.544   0.476 -0.1134  0.1906 -0.1435
 5476TIP3    H116392   4.596   1.452   0.463 -0.5136  0.4414 -1.3707
 5476TIP3    H216393   4.589   1.564   0.564 -0.4533 -0.7247 -0.0364
 5477TIP3   OH216394   5.102   6.635   4.309 -0.5823 -0.4912 -0.1509
 5477TIP3    H116395   5.021   6.600   4.346 -1.6259  0.9095 -0.9760
 5477TIP3    H216396   5.072   6.702   4.247  1.2094 -0.2278 -0.7781
 5478TIP3   OH216397   3.101   1.083   1.276  0.3911  0.3857  0.0612
 5478TIP3    H116398   3.140   1.127   1.201  0.4631  0.1792 -0.0206
 5478TIP3    H216399   3.007   1.080   1.256  0.0197  2.6658  1.1333
 5479TIP3   OH216400   2.894   3.661   2.899 -0.1997 -0.6932 -0.1711
 5479TIP3    H116401   2.898   3.749   2.935  1.2689 -0.7177 -0.2383
 5479TIP3    H216402   2.849   3.671   2.816 -3.1935 -0.5614  1.3309
 5480TIP3   OH216403   5.002   3.905   0.983 -0.5517 -0.6743 -0.1957
 5480TIP3    H116404   4.986   3.970   0.914 -0.1403 -0.8915 -0.5025
 5480TIP3    H216405   4.976   3.949   1.064  0.6140  0.2419 -0.2861
 5481TIP3   OH216406   4.115   1.614   0.621 -0.5169  0.1519  0.1798
 5481TIP3    H116407   4.161   1.541   0.580  0.8093  0.9623  0.1518
 5481TIP3    H216408   4.024   1.604   0.593 -0.3572 -1.4457  0.1450
 5482TIP3   OH216409   3.646   5.051   2.766  0.0311 -0.4084  0.1558
 5482TIP3    H116410   3.591   5.012   2.698  0.0096 -3.0022  1.5553
 5482TIP3    H216411   3.585   5.070   2.837  0.4518 -0.1653  0.4561
 5483TIP3   OH216412   0.384   0.019   5.458 -0.0710  0.6067 -0.0519
 5483TIP3    H116413   0.309   0.031   5.516 -2.7794  1.3767 -3.3902
 5483TIP3    H216414   0.451   0.078   5.494 -1.5295  1.0177  2.2393
 5484TIP3   OH216415   5.884   1.626   2.868  0.1565  0.4344  0.1971
 5484TIP3    H116416   5.956   1.619   2.930 -0.0682 -0.8431  0.3429
 5484TIP3    H216417   5.920   1.595   2.785  0.6596  2.8011 -0.5367
 5485TIP3   OH216418   6.215   1.070   5.003  0.1954 -0.5455  0.4314
 5485TIP3    H116419   6.259   1.070   5.089  0.7846  1.1995  0.1645
 5485TIP3    H216420   6.284   1.048   4.941  0.0099 -0.7741  0.3074
 5486TIP3   OH216421   5.601   6.743   0.371 -0.2085 -0.2566  0.0180
 5486TIP3    H116422   5.541   6.812   0.342  0.4233  0.4496  0.3321
 5486TIP3    H216423   5.579   6.667   0.318  0.5491  0.8137 -1.9450
 5487TIP3   OH216424   6.159   1.236   5.672 -0.3770 -0.0895  0.7482
 5487TIP3    H116425   6.192   1.326   5.663  0.8946 -0.7353 -2.3689
 5487TIP3    H216426   6.128   1.231   5.762  0.3586  3.1845  1.3182
 5488TIP3   OH216427   3.951   1.895   5.729 -0.0351  0.1094  0.1302
 5488TIP3    H116428   3.936   1.958   5.658  2.3773  2.6341  1.6766
 5488TIP3    H216429   4.024   1.932   5.779 -1.0285 -2.0009  3.4359
 5489TIP3   OH216430   1.309   1.993   3.233 -0.7362 -0.2678  0.9462
 5489TIP3    H116431   1.301   1.912   3.183  0.4616  0.0313  0.2372
 5489TIP3    H216432   1.354   1.967   3.314  0.4951 -0.1798  0.3134
 5490TIP3   OH216433   0.155   2.421   0.403 -0.0157 -0.7042  0.1267
 5490TIP3    H116434   0.222   2.469   0.452 -1.1589  0.5220  0.5408
 5490TIP3    H216435   0.204   2.358   0.350  1.3501 -0.9417  1.6211
 5491TIP3   OH216436   6.894   0.664   5.457  0.3127 -0.6587 -0.1000
 5491TIP3    H116437   6.821   0.656   5.520 -0.1806  0.4801 -0.5008
 5491TIP3    H216438   6.864   0.730   5.395  1.2553 -0.9771 -0.9048
 5492TIP3   OH216439   3.941   3.779   4.039 -0.2668 -0.2741  0.1372
 5492TIP3    H116440   3.964   3.719   3.968 -0.1043 -1.1710  0.9257
 5492TIP3    H216441   4.018   3.780   4.095 -0.4075  0.4027  0.3269
 5493TIP3   OH216442   5.723   2.256   2.946  0.4733  0.4531  0.1033
 5493TIP3    H116443   5.712   2.350   2.962 -2.3545  0.3216 -0.4436
 5493TIP3    H216444   5.731   2.249   2.851 -0.5951  0.0948  0.0257
 5494TIP3   OH216445   1.436   1.361   4.252  0.3307  0.3195 -0.2895
 5494TIP3    H116446   1.404   1.451   4.261  0.8530  0.3586  1.6838
 5494TIP3    H216447   1.530   1.368   4.266  0.1267 -0.7316  2.0947
 5495TIP3   OH216448   3.949   2.812   4.978  0.5796 -0.2195 -0.5857
 5495TIP3    H116449   4.033   2.791   4.937  0.1223 -3.0619 -0.2697
 5495TIP3    H216450   3.899   2.854   4.909  2.0696  1.1217 -0.9176
 5496TIP3   OH216451   1.098   6.168   0.633  0.6038  0.1341 -0.2279
 5496TIP3    H116452   1.021   6.208   0.592  1.9874  2.1206 -1.0629
 5496TIP3    H216453   1.085   6.179   0.727  0.2740  1.2700 -0.4019
 5497TIP3   OH216454   1.545   4.603   3.017  0.8449 -0.0058  0.6165
 5497TIP3    H116455   1.626   4.629   2.973  0.7600 -0.6597  0.0423
 5497TIP3    H216456   1.475   4.634   2.958  0.6928  0.1423  0.8740
 5498TIP3   OH216457   3.808   5.513   0.896  0.2183 -0.0298 -0.1193
 5498TIP3    H116458   3.714   5.519   0.881  0.1992 -1.5372 -0.7284
 5498TIP3    H216459   3.816   5.495   0.990 -0.0905  0.0569 -0.0748
 5499TIP3   OH216460   1.195   3.021   4.416 -0.1907  0.0645  0.1361
 5499TIP3    H116461   1.220   2.986   4.331 -0.0024  2.4829 -0.8997
 5499TIP3    H216462   1.216   3.115   4.410 -0.2800  0.3266  2.8118
 5500TIP3   OH216463   4.978   2.285   1.379 -0.1913  0.2909 -0.3807
 5500TIP3    H116464   4.916   2.345   1.420 -1.0782 -0.6552 -0.2920
 5500TIP3    H216465   4.940   2.265   1.294 -0.0462 -0.3343 -0.3054
 5501TIP3   OH216466   3.490   3.973   0.446 -0.6323  0.3634 -0.2400
 5501TIP3    H116467   3.395   3.982   0.439 -0.6102  0.4637 -0.4186
 5501TIP3    H216468   3.503   3.900   0.507 -0.8168  1.0397  0.6277
 5502TIP3   OH216469   0.961   4.458   3.109 -0.6141 -0.4618 -0.2873
 5502TIP3    H116470   0.966   4.407   3.190 -0.8444 -1.8986 -1.1290
 5502TIP3    H216471   0.868   4.465   3.090 -0.5356 -2.2698 -1.6511
 5503TIP3   OH216472   5.417   1.365   1.881  0.2750 -0.5961  0.0552
 5503TIP3    H116473   5.507   1.335   1.890  0.2764 -0.4828  0.4047
 5503TIP3    H216474   5.421   1.432   1.813  0.6139  0.0996  0.7537
 5504TIP3   OH216475   5.377   3.743   2.182  0.4167  0.3332  0.5445
 5504TIP3    H116476   5.403   3.655   2.154  1.5361  0.7802  0.1436
 5504TIP3    H216477   5.354   3.788   2.101  0.8818  0.7422  0.6397
 5505TIP3   OH216478   2.847   1.312   3.400  0.0984 -0.4058  0.5865
 5505TIP3    H116479   2.938   1.286   3.415  0.4476  0.1760 -0.4594
 5505TIP3    H216480   2.796   1.254   3.457  1.0262 -1.6800  0.1462
 5506TIP3   OH216481   4.163   1.984   2.082  0.1576  0.0328 -0.0608
 5506TIP3    H116482   4.231   2.012   2.143 -1.2114  2.1603  0.6018
 5506TIP3    H216483   4.143   1.894   2.108  1.9957 -0.3041  0.3398
 5507TIP3   OH216484   1.134   0.908   5.340 -0.2819 -0.7957 -0.5196
 5507TIP3    H116485   1.139   0.964   5.263 -1.3100  0.0830  0.0192
 5507TIP3    H216486   1.042   0.909   5.365 -0.0252 -1.3285  0.5348
 5508TIP3   OH216487   4.805   0.223   5.819  0.5071  0.2823 -0.1255
 5508TIP3    H116488   4.713   0.205   5.837 -0.3160  2.1967 -1.9872
 5508TIP3    H216489   4.853   0.169   5.882 -1.8736 -0.4576  1.1738
 5509TIP3   OH216490   1.790   0.492   3.294  0.3848  0.4063  0.1674
 5509TIP3    H116491   1.793   0.544   3.214 -1.3138  0.6708  0.2332
 5509TIP3    H216492   1.786   0.402   3.264  1.1076  0.4267 -0.0025
 5510TIP3   OH216493   3.973   2.346   4.749 -0.3459 -0.3359 -0.2326
 5510TIP3    H116494   4.013   2.393   4.822 -3.4868  1.7245  0.3665
 5510TIP3    H216495   3.978   2.408   4.676  1.1036 -1.6711 -1.3442
 5511TIP3   OH216496   3.274   6.347   0.218  0.0620  0.6771 -0.1930
 5511TIP3    H116497   3.299   6.377   0.130 -1.0464 -1.0554 -1.1850
 5511TIP3    H216498   3.336   6.277   0.238 -1.2073 -0.6841 -0.7795
 5512TIP3   OH216499   5.514   5.279   2.862  0.4635  0.7694 -0.2474
 5512TIP3    H116500   5.458   5.273   2.784 -1.0484 -0.4042  0.8527
 5512TIP3    H216501   5.532   5.372   2.871  1.4454  0.8627 -2.4818
 5513TIP3   OH216502   1.314   2.350   0.189 -0.2181 -0.3982 -0.2935
 5513TIP3    H116503   1.274   2.334   0.275 -0.5180 -0.9979 -0.5421
 5513TIP3    H216504   1.341   2.264   0.159  0.9301 -0.0583 -0.3029
 5514TIP3   OH216505   0.204   6.556   3.043 -0.0551 -0.1068  0.0185
 5514TIP3    H116506   0.139   6.504   3.090 -1.8932  1.3029 -0.8057
 5514TIP3    H216507   0.287   6.513   3.060 -1.0548 -1.3881  2.0066
 5515TIP3   OH216508   6.008   2.465   4.476 -0.3386  0.0661 -0.0565
 5515TIP3    H116509   5.927   2.425   4.508 -0.7490  2.6746  2.4947
 5515TIP3    H216510   6.020   2.543   4.529  2.8420  0.8855 -1.7015
 5516TIP3   OH216511   2.406   1.190   0.896  0.6283 -0.0845 -0.5216
 5516TIP3    H116512   2.322   1.145   0.883  0.0432  0.9096 -0.3003
 5516TIP3    H216513   2.393   1.276   0.856  1.7269 -0.0928 -0.9385
 5517TIP3   OH216514   0.144   2.713   4.907  0.3558  0.2413 -0.1511
 5517TIP3    H116515   0.060   2.752   4.928 -0.5644 -1.6625 -0.0965
 5517TIP3    H216516   0.138   2.689   4.815  1.9918  2.7394 -1.0128
 5518TIP3   OH216517   4.622   4.564   5.318  0.0442 -0.0224  0.2515
 5518TIP3    H116518   4.662   4.649   5.297 -1.4645  0.7249  0.2551
 5518TIP3    H216519   4.684   4.523   5.378  0.3744  1.5279  1.0404
 5519TIP3   OH216520   1.185   5.951   3.675  0.2704 -0.3200 -0.4501
 5519TIP3    H116521   1.246   5.889   3.634  0.9988 -0.4450  0.7726
 5519TIP3    H216522   1.242   6.022   3.706 -0.0823 -0.7877  1.3724
 5520TIP3   OH216523   0.304   6.510   4.662  0.0363  0.3556  0.7210
 5520TIP3    H116524   0.294   6.584   4.602  2.0290 -1.2986 -1.8820
 5520TIP3    H216525   0.215   6.483   4.683 -0.8486  0.2356 -2.6360
 5521TIP3   OH216526   0.798   0.458   1.250 -0.0276 -0.3162 -0.3827
 5521TIP3    H116527   0.855   0.532   1.228  0.7273 -0.4873  0.8811
 5521TIP3    H216528   0.802   0.452   1.346  0.8897 -2.7019 -0.4859
 5522TIP3   OH216529   2.768   0.166   2.431 -0.5740 -0.1988  0.3163
 5522TIP3    H116530   2.714   0.161   2.352 -2.1518 -1.3624  1.4113
 5522TIP3    H216531   2.711   0.137   2.501  0.7888  0.7971  1.9218
 5523TIP3   OH216532   2.592   5.293   3.189  0.3217 -0.2733  0.3050
 5523TIP3    H116533   2.537   5.371   3.182  1.3655  0.4575 -0.0962
 5523TIP3    H216534   2.563   5.237   3.116 -0.1941 -0.1023  0.3773
 5524TIP3   OH216535   3.268   1.625   1.775  0.8383  0.0954 -0.1620
 5524TIP3    H116536   3.181   1.587   1.768  0.8714 -0.1823  0.7503
 5524TIP3    H216537   3.258   1.700   1.834  1.1266  0.3670 -0.4506
 5525TIP3   OH216538   0.789   0.384   0.355 -0.0826  0.2829  0.7052
 5525TIP3    H116539   0.783   0.288   0.360 -0.2747  0.3435  1.8057
 5525TIP3    H216540   0.880   0.403   0.374 -0.0999  0.3295  0.7413
 5526TIP3   OH216541   6.815   6.531   5.781  0.2364  0.6090  0.2741
 5526TIP3    H116542   6.800   6.532   5.876  0.8323  1.5707  0.3694
 5526TIP3    H216543   6.865   6.451   5.766  0.2782  0.5274  0.7998
 5527TIP3   OH216544   3.816   1.570   0.124 -0.3556  0.2513 -0.5662
 5527TIP3    H116545   3.751   1.531   0.183 -0.2805 -1.0202 -1.2957
 5527TIP3    H216546   3.815   1.664   0.146 -2.0824  0.1912 -0.2326
 5528TIP3   OH216547   4.306   0.883   4.514 -0.2564 -0.3874  0.1265
 5528TIP3    H116548   4.241   0.849   4.576  0.7839 -0.5652  1.1556
 5528TIP3    H216549   4.368   0.931   4.569 -0.4237  1.2111 -1.0369
 5529TIP3   OH216550   3.844   4.745   2.615 -0.1039  0.0186 -0.1302
 5529TIP3    H116551   3.813   4.683   2.681 -0.1242 -0.4911 -0.6123
 5529TIP3    H216552   3.765   4.790   2.585 -0.0805  0.3354  0.2690
 5530TIP3   OH216553   1.927   4.853   5.523  0.2491 -0.2209  0.0313
 5530TIP3    H116554   2.019   4.852   5.496  0.7012  1.0412  1.4334
 5530TIP3    H216555   1.914   4.769   5.567  0.2137 -1.1569 -1.6606
 5531TIP3   OH216556   2.463   3.293   4.320 -0.2674  0.1126  0.0353
 5531TIP3    H116557   2.395   3.232   4.293  1.0761 -0.4995 -2.3037
 5531TIP3    H216558   2.531   3.238   4.359  0.2434  0.3075 -0.5659
 5532TIP3   OH216559   1.631   2.133   0.160 -0.7774 -0.3809 -0.2627
 5532TIP3    H116560   1.548   2.089   0.144 -1.2245 -0.7344  2.5359
 5532TIP3    H216561   1.626   2.213   0.108 -2.9069 -0.3631 -0.1211
 5533TIP3   OH216562   0.718   5.068   5.339  0.2077 -0.3714 -0.5004
 5533TIP3    H116563   0.636   5.030   5.371  0.0995  0.2907  0.0359
 5533TIP3    H216564   0.693   5.156   5.310  0.5896 -0.4400 -1.0348
 5534TIP3   OH216565   5.469   4.284   0.629 -0.7565  0.0355 -0.0174
 5534TIP3    H116566   5.535   4.335   0.676 -1.2318 -0.8537  1.6732
 5534TIP3    H216567   5.386   4.312   0.668 -1.1227 -1.0544 -0.0025
 5535TIP3   OH216568   3.627   6.195   0.807  0.9836 -0.1130  0.3312
 5535TIP3    H116569   3.696   6.258   0.827 -0.0924  1.1893  0.0900
 5535TIP3    H216570   3.546   6.245   0.814  0.0660 -1.5409  0.3631
 5536TIP3   OH216571   2.920   3.175   2.993  0.0046  1.1371 -0.0998
 5536TIP3    H116572   2.937   3.094   3.040 -0.0375  0.2632 -1.5208
 5536TIP3    H216573   3.001   3.226   3.000  0.4051  0.5013 -0.0891
 5537TIP3   OH216574   0.099   3.710   3.342 -0.4694 -1.1588 -0.3746
 5537TIP3    H116575   0.060   3.780   3.291 -1.0276 -0.0757  1.4334
 5537TIP3    H216576   0.029   3.680   3.400  1.0769  0.4625  2.5830
 5538TIP3   OH216577   5.351   5.470   4.354 -0.0988 -1.0157 -0.7757
 5538TIP3    H116578   5.447   5.463   4.361 -0.1112 -0.6390 -0.2044
 5538TIP3    H216579   5.337   5.550   4.304 -0.1088 -1.3737 -1.3566
 5539TIP3   OH216580   2.100   4.313   4.018  0.2502  0.0514  0.0441
 5539TIP3    H116581   2.006   4.323   4.004 -0.1010  0.9580  2.4651
 5539TIP3    H216582   2.134   4.402   4.017  0.6706 -0.0655  1.3873
 5540TIP3   OH216583   5.226   4.871   5.027  0.0185  0.4248 -0.0200
 5540TIP3    H116584   5.172   4.904   5.100  0.2750  2.0659 -0.5193
 5540TIP3    H216585   5.316   4.893   5.053  0.0952  1.1739 -0.8888
 5541TIP3   OH216586   5.672   0.054   4.024 -0.4937 -0.0608  0.0545
 5541TIP3    H116587   5.603   0.073   3.960 -1.6884  0.1375  1.3638
 5541TIP3    H216588   5.720   0.136   4.033 -0.0272 -0.2108 -0.8949
 5542TIP3   OH216589   1.945   4.010   3.036  0.3604 -0.1183  1.0429
 5542TIP3    H116590   1.904   4.079   2.982  1.0194 -1.0756 -0.7535
 5542TIP3    H216591   1.879   3.941   3.041  0.1315  0.1479  1.8826
 5543TIP3   OH216592   5.955   0.248   0.268 -0.5883 -0.3281 -0.2559
 5543TIP3    H116593   5.861   0.265   0.261 -0.3265  0.4948 -2.5972
 5543TIP3    H216594   5.990   0.327   0.310 -1.1068 -1.5429  2.7596
 5544TIP3   OH216595   2.054   5.370   0.613  0.0992 -0.1136  0.4387
 5544TIP3    H116596   2.068   5.347   0.705  0.7663  0.2494  0.4352
 5544TIP3    H216597   1.996   5.302   0.580 -0.5181  0.0066  1.2437
 5545TIP3   OH216598   1.714   3.899   5.144  0.1580 -0.0165  0.0443
 5545TIP3    H116599   1.798   3.862   5.118  0.5845  0.3890  0.8085
 5545TIP3    H216600   1.731   3.992   5.157 -0.3015 -0.0022  0.6223
 5546TIP3   OH216601   6.256   3.023   1.251  0.0927 -0.0589  0.8766
 5546TIP3    H116602   6.294   3.109   1.231 -1.1724  0.2348 -0.4654
 5546TIP3    H216603   6.311   2.988   1.321  2.2386  0.7030 -0.3364
 5547TIP3   OH216604   3.995   5.765   2.484  0.2976  0.0274  0.6902
 5547TIP3    H116605   4.037   5.773   2.398  1.1796  2.2060  1.2646
 5547TIP3    H216606   4.054   5.709   2.534  0.6563  0.1221  0.3814
 5548TIP3   OH216607   3.849   5.748   2.742 -0.3897 -0.0668 -0.2189
 5548TIP3    H116608   3.891   5.689   2.805 -0.5007  0.1330  0.0439
 5548TIP3    H216609   3.890   5.727   2.658  0.9149  0.7633  0.1815
 5549TIP3   OH216610   1.409   1.704   2.895  0.2913 -0.6945 -0.3631
 5549TIP3    H116611   1.369   1.694   2.982  1.3614 -0.9669  0.1061
 5549TIP3    H216612   1.475   1.635   2.891  1.7309  0.6642 -0.5474
 5550TIP3   OH216613   3.227   0.823   1.275  0.5085  0.3749 -0.5536
 5550TIP3    H116614   3.231   0.769   1.354  0.5141 -0.4141 -1.0889
 5550TIP3    H216615   3.174   0.899   1.301  1.4515  0.7003  0.5353
 5551TIP3   OH216616   0.924   1.537   2.937  0.5525  0.3256  0.1583
 5551TIP3    H116617   0.955   1.473   3.002  1.5428 -0.5870 -1.1548
 5551TIP3    H216618   0.990   1.607   2.939  0.4629  0.4070  0.2861
 5552TIP3   OH216619   2.863   3.928   2.988  0.1031  0.0732  0.5386
 5552TIP3    H116620   2.806   3.951   2.914 -0.0466 -1.0840  0.2823
 5552TIP3    H216621   2.853   4.001   3.050  0.2089  1.0487 -0.5540
 5553TIP3   OH216622   3.598   5.545   2.874 -0.6077 -0.2204  0.1421
 5553TIP3    H116623   3.590   5.620   2.933  1.8483  1.6693 -1.7126
 5553TIP3    H216624   3.682   5.504   2.898 -0.6444 -0.7563 -0.6083
 5554TIP3   OH216625   2.331   3.616   3.957 -0.1116 -0.1434 -0.1329
 5554TIP3    H116626   2.371   3.697   3.990  0.6973 -0.7939  0.4981
 5554TIP3    H216627   2.286   3.579   4.033 -0.3474 -0.3808 -0.3857
 5555TIP3   OH216628   3.482   0.667   5.769 -0.1811 -0.1422  0.9079
 5555TIP3    H116629   3.399   0.714   5.757 -0.2290 -0.6478 -1.0229
 5555TIP3    H216630   3.469   0.616   5.848 -1.3048  0.6279  1.2567
 5556TIP3   OH216631   2.948   0.204   3.947  0.3391 -0.3868 -0.1223
 5556TIP3    H116632   2.854   0.195   3.958  0.5754 -1.9426  0.8188
 5556TIP3    H216633   2.967   0.294   3.975 -0.9917  0.3963 -1.5582
 5557TIP3   OH216634   3.899   5.969   0.609 -0.0137 -0.1333 -0.0315
 5557TIP3    H116635   3.824   5.985   0.551  0.7400  1.1345 -0.6857
 5557TIP3    H216636   3.899   5.874   0.620 -1.2526 -0.2396 -0.6522
 5558TIP3   OH216637   5.141   1.784   2.450 -0.2805 -0.5484 -0.1732
 5558TIP3    H116638   5.219   1.816   2.405  1.0880 -0.0948  2.3387
 5558TIP3    H216639   5.081   1.860   2.451  1.3732  0.8725  2.3051
 5559TIP3   OH216640   2.921   2.435   3.730 -0.5180 -0.0206  0.1798
 5559TIP3    H116641   2.852   2.489   3.768 -0.8684 -0.9314  0.8810
 5559TIP3    H216642   2.998   2.451   3.785 -1.5370 -2.8829  2.7508
 5560TIP3   OH216643   4.141   5.216   0.633 -0.1183  0.3882  0.0193
 5560TIP3    H116644   4.090   5.255   0.562 -0.3524  1.2015  0.6316
 5560TIP3    H216645   4.086   5.225   0.711 -0.9879 -2.7716 -0.0891
 5561TIP3   OH216646   4.750   0.554   0.611 -0.0292  0.4847 -0.0452
 5561TIP3    H116647   4.682   0.577   0.547  0.5247 -1.3035 -1.3497
 5561TIP3    H216648   4.763   0.460   0.600  0.6404  0.2527  2.2125
 5562TIP3   OH216649   5.798   3.102   5.557 -0.0304  0.2580 -0.1532
 5562TIP3    H116650   5.731   3.106   5.625 -0.6820  0.8075 -0.8124
 5562TIP3    H216651   5.835   3.191   5.555 -0.1753  0.3121 -0.6668
 5563TIP3   OH216652   0.468   1.453   2.315  0.0873 -0.0565  0.1556
 5563TIP3    H116653   0.504   1.536   2.282  0.2735 -0.5229 -0.8597
 5563TIP3    H216654   0.373   1.468   2.314  0.0954 -0.0200 -0.4993
 5564TIP3   OH216655   3.651   5.093   3.751  0.3941 -0.0626  0.2322
 5564TIP3    H116656   3.642   5.016   3.808  0.6484 -0.0728  0.2589
 5564TIP3    H216657   3.632   5.167   3.808  1.1315 -0.0424  0.4478
 5565TIP3   OH216658   6.310   5.956   4.981  0.0048 -0.7053  0.0391
 5565TIP3    H116659   6.391   5.983   4.938 -0.7368 -1.7765 -2.1801
 5565TIP3    H216660   6.249   5.937   4.910 -2.6319  1.1313  1.6040
 5566TIP3   OH216661   3.409   1.994   2.150  0.1271  0.0251  0.4934
 5566TIP3    H116662   3.435   2.018   2.239 -0.7233 -0.7106  0.9600
 5566TIP3    H216663   3.330   2.045   2.133  0.0723 -0.1191  0.3085
 5567TIP3   OH216664   3.105   5.286   5.470 -0.4414 -0.6343  0.2548
 5567TIP3    H116665   3.123   5.371   5.431 -0.1884 -0.6624  0.3088
 5567TIP3    H216666   3.112   5.224   5.397 -0.6950 -0.6018  0.2017
 5568TIP3   OH216667   4.438   0.148   3.158  0.3587  0.2891  0.5070
 5568TIP3    H116668   4.437   0.183   3.247 -0.8533 -1.0331  1.0522
 5568TIP3    H216669   4.480   0.062   3.167  2.0214  0.9450 -0.5614
 5569TIP3   OH216670   1.930   3.488   1.232  0.2206 -0.3857 -0.3734
 5569TIP3    H116671   1.983   3.555   1.275 -1.1219 -0.0154  0.7963
 5569TIP3    H216672   1.981   3.462   1.156  1.3778  1.0212 -0.1246
 5570TIP3   OH216673   6.333   3.315   4.745  0.2931 -0.3299 -0.4802
 5570TIP3    H116674   6.420   3.309   4.705 -0.8666 -0.1139 -3.3195
 5570TIP3    H216675   6.321   3.231   4.789  2.0131 -0.2629  0.1881
 5571TIP3   OH216676   4.265   0.163   2.784  0.0410  0.2800  0.3841
 5571TIP3    H116677   4.329   0.225   2.818 -0.3989  1.1795 -0.3912
 5571TIP3    H216678   4.193   0.165   2.847  0.1551  0.3254  0.5124
 5572TIP3   OH216679   2.632   3.755   1.935 -0.7762 -0.5636 -0.3187
 5572TIP3    H116680   2.696   3.732   2.002 -1.7859 -0.8635  0.5781
 5572TIP3    H216681   2.627   3.851   1.939 -0.3576 -0.5378 -0.4141
 5573TIP3   OH216682   6.332   3.581   3.337 -0.0634 -0.3811  0.0429
 5573TIP3    H116683   6.413   3.611   3.296  0.2741 -1.4747 -0.1150
 5573TIP3    H216684   6.333   3.621   3.424 -0.3913  1.3034 -0.6797
 5574TIP3   OH216685   5.885   0.586   0.057  0.8628  0.1988  0.5108
 5574TIP3    H116686   5.941   0.546  -0.010 -0.4044  1.9484 -1.7327
 5574TIP3    H216687   5.826   0.516   0.083 -0.3102  0.0422 -2.2016
 5575TIP3   OH216688   7.025   0.789   2.562 -0.6053  0.9830 -0.0310
 5575TIP3    H116689   6.976   0.831   2.492  0.1904  0.9763 -0.6052
 5575TIP3    H216690   6.967   0.719   2.592 -0.7499  0.6487 -1.0377
 5576TIP3   OH216691   6.248   1.536   1.570  0.0122 -0.0509 -0.1847
 5576TIP3    H116692   6.293   1.491   1.498  0.5352 -0.6592  0.5140
 5576TIP3    H216693   6.241   1.470   1.639 -1.0421  0.3422  0.0991
 5577TIP3   OH216694   0.407   0.521   2.563 -0.0899 -0.8234 -0.0308
 5577TIP3    H116695   0.408   0.512   2.658 -1.2332 -0.0277  0.0831
 5577TIP3    H216696   0.331   0.470   2.535  0.0463 -0.7824 -0.4855
 5578TIP3   OH216697   5.718   5.080   2.476  0.3896  0.1905  0.3065
 5578TIP3    H116698   5.790   5.068   2.538  1.1062 -0.5436 -0.6334
 5578TIP3    H216699   5.743   5.027   2.401 -0.7762  0.5494 -0.3492
 5579TIP3   OH216700   4.575   0.193   3.544  0.7149  0.2334 -0.1576
 5579TIP3    H116701   4.548   0.169   3.633 -0.7055  1.4550 -0.2246
 5579TIP3    H216702   4.606   0.110   3.506 -1.7638 -1.0324  0.3813
 5580TIP3   OH216703   3.979   4.395   4.066 -0.1556 -0.1348 -0.1055
 5580TIP3    H116704   3.984   4.305   4.098 -2.1547 -0.0459  0.6042
 5580TIP3    H216705   3.910   4.393   4.000  1.3432  0.4690 -1.7740
 5581TIP3   OH216706   6.911   2.890   2.074 -0.2186 -0.1545 -0.4373
 5581TIP3    H116707   6.973   2.951   2.113 -0.4654 -1.0872  1.5138
 5581TIP3    H216708   6.961   2.809   2.061 -0.7895 -0.6555  0.3929
 5582TIP3   OH216709   7.022   1.379   5.653  0.0931 -0.3964 -0.3159
 5582TIP3    H116710   6.927   1.389   5.660  0.0754 -0.2655 -0.6997
 5582TIP3    H216711   7.050   1.456   5.603  0.2573 -1.0331 -1.2213
 5583TIP3   OH216712   6.998   1.168   1.191 -0.1318 -0.3635  0.0742
 5583TIP3    H116713   6.984   1.130   1.104  0.7723 -0.6157  0.0234
 5583TIP3    H216714   7.011   1.092   1.248  2.4590 -0.1716 -0.1631
 5584TIP3   OH216715   1.880   3.171   0.939 -0.0785  0.2500  0.6999
 5584TIP3    H116716   1.932   3.244   0.973 -1.2620  1.0141  0.9383
 5584TIP3    H216717   1.821   3.149   1.011 -1.2094  0.5121 -0.1332
 5585TIP3   OH216718   3.898   4.803   0.394 -0.0525 -0.6783 -0.0605
 5585TIP3    H116719   3.962   4.766   0.456 -0.1323  0.2766  0.6112
 5585TIP3    H216720   3.947   4.813   0.313  0.3665 -0.9133  0.1576
 5586TIP3   OH216721   0.911   6.553   1.886 -0.0165 -0.2461 -0.8028
 5586TIP3    H116722   0.857   6.618   1.841  0.6875  0.4717 -0.6258
 5586TIP3    H216723   0.867   6.541   1.970  1.2627  2.0094  0.2735
 5587TIP3   OH216724   1.304   3.345  -0.021  0.0573 -0.7333  0.2992
 5587TIP3    H116725   1.290   3.410   0.048 -0.8451 -0.7121  0.1015
 5587TIP3    H216726   1.279   3.262   0.018 -0.0371 -0.7835  0.1310
 5588TIP3   OH216727   4.546   4.053   4.448 -0.3192  0.8748 -0.0696
 5588TIP3    H116728   4.591   4.035   4.531  0.5721  3.5291  0.1319
 5588TIP3    H216729   4.514   4.143   4.458 -0.9440  0.9544 -2.2879
 5589TIP3   OH216730   0.923   1.994   5.788 -0.5811 -0.5427 -0.2454
 5589TIP3    H116731   0.990   1.987   5.855 -0.4000  0.2424 -0.3420
 5589TIP3    H216732   0.960   2.051   5.721 -1.2561 -0.2725 -0.4027
 5590TIP3   OH216733   1.131   4.258   5.305 -0.4401 -0.0341 -0.2397
 5590TIP3    H116734   1.204   4.317   5.290 -1.4234  1.2640 -0.1310
 5590TIP3    H216735   1.136   4.195   5.233  2.1181 -1.4411  1.0417
 5591TIP3   OH216736   2.266   3.716   3.140  0.1870  0.0538 -0.6217
 5591TIP3    H116737   2.335   3.695   3.203 -0.6752  0.5727  0.5391
 5591TIP3    H216738   2.261   3.638   3.084  1.8177  0.0776 -0.8652
 5592TIP3   OH216739   2.508   6.467   2.530  0.2854  0.0370 -0.1828
 5592TIP3    H116740   2.558   6.494   2.453  2.8618 -2.3704  0.4622
 5592TIP3    H216741   2.573   6.423   2.585 -1.6055  0.9790  3.0441
 5593TIP3   OH216742   0.689   0.504   5.826 -0.2460 -0.1684 -0.1311
 5593TIP3    H116743   0.638   0.472   5.901  2.2426 -1.6940  1.0480
 5593TIP3    H216744   0.755   0.437   5.812  1.7266  1.8710 -1.2615
 5594TIP3   OH216745   2.601   0.265   5.548 -0.4716 -0.3394  0.1049
 5594TIP3    H116746   2.577   0.209   5.621 -0.6281  1.9703  1.9484
 5594TIP3    H216747   2.695   0.281   5.559 -0.8236  1.4267  0.9266
 5595TIP3   OH216748   5.532   5.587   5.822  0.4561 -0.4482  0.3117
 5595TIP3    H116749   5.504   5.542   5.742  0.3333  1.1381 -0.5837
 5595TIP3    H216750   5.526   5.681   5.800  2.0863  0.0030  1.6136
 5596TIP3   OH216751   4.711   3.584   3.500 -0.0086 -0.4349  0.3096
 5596TIP3    H116752   4.750   3.665   3.467 -2.6721  0.1622 -1.7286
 5596TIP3    H216753   4.691   3.533   3.422 -0.4923 -2.0506  1.4290
 5597TIP3   OH216754   1.074   5.393   0.068  0.0398  0.3759  0.4133
 5597TIP3    H116755   1.026   5.346   0.136  1.4164 -0.9382  0.5170
 5597TIP3    H216756   1.007   5.444   0.023 -1.1316  0.1324  1.7919
 5598TIP3   OH216757   1.822   4.683   2.879  0.3901  0.4219 -0.0462
 5598TIP3    H116758   1.860   4.634   2.952 -0.3574 -1.2283 -0.7042
 5598TIP3    H216759   1.887   4.750   2.859  2.2882 -1.3205 -0.1358
 5599TIP3   OH216760   6.904   4.874   1.716  0.0295 -0.1576  0.1174
 5599TIP3    H116761   6.914   4.948   1.776 -0.3063  0.8977 -1.0965
 5599TIP3    H216762   6.909   4.797   1.773  0.1027  0.7927  1.4505
 5600TIP3   OH216763   1.974   6.143   3.110 -0.3644  0.4298 -0.0704
 5600TIP3    H116764   1.913   6.070   3.098 -0.8352  0.5296  1.4947
 5600TIP3    H216765   2.033   6.138   3.034 -1.2853 -0.6806 -0.7424
 5601TIP3   OH216766   2.455   6.270   4.156 -0.4238 -0.2719 -0.1382
 5601TIP3    H116767   2.393   6.251   4.226  0.0383  0.7749  0.5719
 5601TIP3    H216768   2.525   6.319   4.198  0.0991 -0.0363 -1.2418
 5602TIP3   OH216769   2.206   0.470   4.674  0.5277  0.1156  0.7489
 5602TIP3    H116770   2.195   0.422   4.757 -1.8669  0.3808  0.6627
 5602TIP3    H216771   2.204   0.562   4.699 -0.0868  0.1956  0.4176
 5603TIP3   OH216772   1.003   0.044   5.808  0.1764 -0.1953 -0.1041
 5603TIP3    H116773   1.025   0.016   5.897 -0.3919  1.3461  0.5674
 5603TIP3    H216774   1.082   0.089   5.777  0.3405 -0.6461 -0.3382
 5604TIP3   OH216775   6.079   1.866   2.206  0.0002 -0.1099  0.0724
 5604TIP3    H116776   6.166   1.877   2.243 -0.2924  1.5242  0.3648
 5604TIP3    H216777   6.085   1.905   2.119 -0.2763 -0.5744 -0.1563
 5605TIP3   OH216778   0.941   6.069   2.122 -0.2063  0.8190 -0.3890
 5605TIP3    H116779   0.905   6.156   2.104 -0.0240  0.8700 -0.5202
 5605TIP3    H216780   0.901   6.042   2.204 -0.5571  0.8657 -0.5436
 5606TIP3   OH216781   1.030   6.560   3.679 -0.1766  0.0279  0.0977
 5606TIP3    H116782   1.111   6.554   3.730 -0.9723 -1.3592  1.2641
 5606TIP3    H216783   0.967   6.509   3.729 -2.1742  2.1756 -0.0463
 5607TIP3   OH216784   3.496   2.734   3.062  0.1528 -0.0978  0.0482
 5607TIP3    H116785   3.584   2.770   3.074 -0.2337  0.6077  0.8527
 5607TIP3    H216786   3.501   2.646   3.100 -0.3202  1.1122  3.2110
 5608TIP3   OH216787   3.125   0.121   1.001 -0.0989 -0.0069 -0.0046
 5608TIP3    H116788   3.191   0.124   1.071  0.3429 -1.4694 -0.3251
 5608TIP3    H216789   3.115   0.028   0.981 -1.8836  0.2276 -0.3454
 5609TIP3   OH216790   1.348   6.629   4.462 -0.3001 -0.2005 -0.1637
 5609TIP3    H116791   1.276   6.648   4.401  1.0103  1.1060 -1.3595
 5609TIP3    H216792   1.419   6.597   4.407 -0.2002 -2.3797  1.1096
 5610TIP3   OH216793   0.254   3.964   0.606  0.5685  0.3236  0.5883
 5610TIP3    H116794   0.320   4.016   0.651 -0.5119 -0.4326  3.2815
 5610TIP3    H216795   0.171   4.001   0.635 -0.2042 -0.2674 -0.7997
 5611TIP3   OH216796   0.504   5.425   0.061 -0.0427 -0.0694 -0.4115
 5611TIP3    H116797   0.438   5.456   0.123  0.7725 -0.0280  0.4460
 5611TIP3    H216798   0.515   5.498  -0.000  0.0576  0.3694  0.1271
 5612TIP3   OH216799   2.010   6.180   4.438 -0.4107  0.0461 -0.1828
 5612TIP3    H116800   2.075   6.111   4.453  0.0688  0.5825  0.2401
 5612TIP3    H216801   1.977   6.162   4.350 -0.4916 -0.8772  0.0210
 5613TIP3   OH216802   3.617   6.499   2.483  0.1397 -0.0529  0.3873
 5613TIP3    H116803   3.535   6.469   2.445  0.3252  0.9258 -0.8445
 5613TIP3    H216804   3.685   6.457   2.431  0.4023  2.0982 -1.1671
 5614TIP3   OH216805   3.339   4.321   4.719 -0.1273  0.2289  0.2352
 5614TIP3    H116806   3.411   4.344   4.778 -0.8136 -0.1230  1.2504
 5614TIP3    H216807   3.382   4.294   4.638  0.8962 -0.0248  0.8345
 5615TIP3   OH216808   5.759   0.195   5.866 -0.0207 -0.2149 -0.1973
 5615TIP3    H116809   5.842   0.235   5.839  0.0857 -1.0385 -1.1516
 5615TIP3    H216810   5.720   0.259   5.925  1.8891 -0.3481  1.3356
 5616TIP3   OH216811   0.564   4.562   3.599 -0.0547 -0.2133 -0.2786
 5616TIP3    H116812   0.576   4.634   3.536  0.2670  0.1881  0.2305
 5616TIP3    H216813   0.645   4.511   3.592 -0.0242 -0.1755 -0.2044
 5617TIP3   OH216814   2.660   1.522   3.569 -0.1945  0.2307 -0.7606
 5617TIP3    H116815   2.572   1.491   3.594 -0.3520  1.2110 -0.0378
 5617TIP3    H216816   2.709   1.442   3.551 -1.3567 -0.3299 -1.6403
 5618TIP3   OH216817   7.028   4.567   2.689  0.2752  0.5303 -0.0133
 5618TIP3    H116818   7.043   4.658   2.715  1.7476  0.3991 -0.3337
 5618TIP3    H216819   7.088   4.517   2.744 -1.0558 -0.3492  0.7023
 5619TIP3   OH216820   0.817   3.512   1.907 -0.1072 -0.0069  0.7724
 5619TIP3    H116821   0.865   3.441   1.864 -0.4809  0.4461 -0.4255
 5619TIP3    H216822   0.844   3.591   1.860 -2.3354  0.2062 -0.2344
 5620TIP3   OH216823   3.649   0.819   4.932  0.4281  0.6182 -0.4495
 5620TIP3    H116824   3.714   0.854   4.993  0.3874 -0.0484 -0.0096
 5620TIP3    H216825   3.592   0.893   4.912  0.5779  0.9043  0.1476
 5621TIP3   OH216826   1.482   6.407   5.321 -0.0771  0.1978 -0.7078
 5621TIP3    H116827   1.508   6.337   5.262 -0.2090  0.7381 -1.4143
 5621TIP3    H216828   1.470   6.484   5.265 -0.9634  0.5285 -0.0977
 5622TIP3   OH216829   0.681   6.332   1.547 -0.0809 -0.0396  0.1092
 5622TIP3    H116830   0.601   6.376   1.518 -0.0665  0.4161  0.7233
 5622TIP3    H216831   0.748   6.400   1.543  0.1672 -0.2876  0.0746
 5623TIP3   OH216832   6.420   1.099   0.336  0.3498 -0.1810  0.2453
 5623TIP3    H116833   6.347   1.143   0.293 -0.3366 -0.6442  0.9210
 5623TIP3    H216834   6.413   1.008   0.306  1.9963  0.1848 -1.4687
 5624TIP3   OH216835   6.806   4.765   3.595 -0.1485 -0.4010  0.6584
 5624TIP3    H116836   6.745   4.839   3.597 -1.8609 -1.7473  2.3477
 5624TIP3    H216837   6.892   4.805   3.583 -1.2288  1.6537 -0.8407
 5625TIP3   OH216838   3.712   3.224   1.623  0.4731  0.1210  0.1107
 5625TIP3    H116839   3.666   3.173   1.690  0.2545 -0.1201 -0.2235
 5625TIP3    H216840   3.720   3.311   1.661 -0.7080  0.3015 -0.0320
 5626TIP3   OH216841   6.417   3.813   5.658 -0.5438 -0.3097 -0.7691
 5626TIP3    H116842   6.454   3.785   5.742  1.1991  1.9935 -0.6503
 5626TIP3    H216843   6.331   3.849   5.681 -0.4838 -0.5676 -0.1110
 5627TIP3   OH216844   4.750   3.953   2.605  0.1322 -0.4300 -0.3352
 5627TIP3    H116845   4.723   3.864   2.584 -0.8179 -0.8867  2.4512
 5627TIP3    H216846   4.669   4.004   2.606  0.3330 -0.0984  0.4711
 5628TIP3   OH216847   2.519   0.860   1.921 -0.7168  0.0499  0.5081
 5628TIP3    H116848   2.577   0.903   1.859 -1.1931  0.1297  0.1111
 5628TIP3    H216849   2.559   0.876   2.007 -0.5823  0.7872  0.3169
 5629TIP3   OH216850   2.002   2.017   5.775  0.2242 -0.1870 -0.3517
 5629TIP3    H116851   2.028   1.932   5.740  2.0635  0.6281 -1.1359
 5629TIP3    H216852   2.018   2.010   5.869  1.4038 -0.4097 -0.5443
 5630TIP3   OH216853   7.117   0.137   2.569  0.3671 -0.2992  0.0153
 5630TIP3    H116854   7.182   0.114   2.635  0.4529  0.7996  0.3320
 5630TIP3    H216855   7.042   0.080   2.587  1.3799 -1.8883 -0.6260
 5631TIP3   OH216856   0.828   2.574   2.555 -0.0785  0.1584  0.5121
 5631TIP3    H116857   0.736   2.546   2.550 -0.4553  1.4700 -1.0820
 5631TIP3    H216858   0.877   2.494   2.568 -1.4010 -0.6857  0.4884
 5632TIP3   OH216859   3.909   4.089   3.109 -0.2408 -0.1696  0.0799
 5632TIP3    H116860   4.000   4.061   3.111  0.0811  0.7042 -1.2979
 5632TIP3    H216861   3.913   4.184   3.097 -1.3256 -0.1440 -0.2194
 5633TIP3   OH216862   4.162   1.199   1.399  0.0205  0.0988  0.0721
 5633TIP3    H116863   4.095   1.254   1.438 -0.0507  0.2977 -0.3175
 5633TIP3    H216864   4.168   1.123   1.456  1.2032  1.1867  1.5003
 5634TIP3   OH216865   4.325   1.999   0.747 -0.5199  0.5451 -0.4979
 5634TIP3    H116866   4.291   2.051   0.820  0.2299 -0.1257  0.3592
 5634TIP3    H216867   4.404   2.045   0.719  1.9979 -1.6198  2.3386
 5635TIP3   OH216868   6.172   2.267   5.330 -0.2678 -0.1193 -0.1850
 5635TIP3    H116869   6.101   2.315   5.373  1.0632  0.4207  1.5609
 5635TIP3    H216870   6.130   2.219   5.259 -1.9462  2.2388 -0.8982
 5636TIP3   OH216871   6.462   2.756   3.034 -0.3296  0.3920 -0.2282
 5636TIP3    H116872   6.416   2.825   3.081 -0.1418  0.8029 -0.6381
 5636TIP3    H216873   6.399   2.726   2.968 -1.2850 -1.4659  1.4351
 5637TIP3   OH216874   4.781   1.992   4.852  0.2330  0.4413 -0.5661
 5637TIP3    H116875   4.839   1.946   4.791 -1.4916 -1.9168 -0.5763
 5637TIP3    H216876   4.785   1.941   4.933 -2.2784 -0.2851 -0.7949
 5638TIP3   OH216877   1.420   0.614   2.109 -0.1779  0.2840 -0.1327
 5638TIP3    H116878   1.329   0.645   2.104  0.1193  1.4065  0.8844
 5638TIP3    H216879   1.438   0.609   2.203  0.6694 -0.4050 -0.3241
 5639TIP3   OH216880   5.047   2.103   2.863 -0.6647 -0.2891 -0.2192
 5639TIP3    H116881   5.121   2.049   2.891  1.1726  1.2419 -1.7441
 5639TIP3    H216882   4.971   2.046   2.869  0.5758 -1.8604  1.7035
 5640TIP3   OH216883   6.609   3.930   1.119 -0.6877  0.0703 -0.2430
 5640TIP3    H116884   6.668   3.996   1.083 -0.6430  0.8533  1.1957
 5640TIP3    H216885   6.569   3.972   1.194 -1.3069 -1.2612  0.2061
 5641TIP3   OH216886   7.148   0.802   4.762 -0.0626 -0.0061  0.2083
 5641TIP3    H116887   7.179   0.830   4.848 -0.4252 -0.3472  0.4560
 5641TIP3    H216888   7.084   0.869   4.736  1.7563  1.3889 -0.8708
 5642TIP3   OH216889   3.565   3.147   3.191 -0.0012  0.3672 -0.4604
 5642TIP3    H116890   3.586   3.059   3.220 -0.4697 -0.0962 -1.4746
 5642TIP3    H216891   3.576   3.145   3.096 -0.8161  1.1671 -0.5951
 5643TIP3   OH216892   6.970   1.041   0.964  0.0769  0.0097  0.1534
 5643TIP3    H116893   6.932   0.996   0.888 -0.9928  0.2477  0.5211
 5643TIP3    H216894   7.061   1.056   0.940 -0.2245  0.0231 -1.0680
 5644TIP3   OH216895   4.067   3.076   2.497 -0.1374  0.0326  0.0819
 5644TIP3    H116896   3.999   3.144   2.499  1.5103  1.7596  1.7191
 5644TIP3    H216897   4.060   3.034   2.583  0.4888 -0.1491  0.0425
 5645TIP3   OH216898   1.942   6.242   1.773  0.2282 -0.6553  0.1309
 5645TIP3    H116899   1.933   6.309   1.706  1.9716 -0.6296 -0.1108
 5645TIP3    H216900   2.017   6.269   1.825 -1.3574 -0.4032  2.4646
 5646TIP3   OH216901   0.829   6.461   1.080 -0.3984  0.3422 -0.6413
 5646TIP3    H116902   0.828   6.555   1.098  0.9744  0.0149  1.4180
 5646TIP3    H216903   0.918   6.443   1.050 -0.5075 -0.3715 -0.5464
 5647TIP3   OH216904   5.757   4.559   5.463  0.1020 -0.2264  0.2181
 5647TIP3    H116905   5.777   4.623   5.532  0.0797  0.6285 -0.5451
 5647TIP3    H216906   5.841   4.519   5.441  0.4832  1.0088 -0.7018
 5648TIP3   OH216907   0.437  -0.014   0.845 -0.7551  0.5257 -0.4894
 5648TIP3    H116908   0.361   0.042   0.864 -0.9657  0.0387  0.1387
 5648TIP3    H216909   0.513   0.038   0.873 -0.7930  1.2393 -1.6210
 5649TIP3   OH216910   4.323   0.760   2.130 -0.4789 -0.3560  0.3428
 5649TIP3    H116911   4.417   0.778   2.135 -0.8936  2.3866  0.1818
 5649TIP3    H216912   4.285   0.812   2.201 -1.9318 -1.0138  0.0928
 5650TIP3   OH216913   0.261   6.057   5.563 -0.2639 -0.3181  0.1699
 5650TIP3    H116914   0.218   5.987   5.513 -0.9426 -0.3110  0.7263
 5650TIP3    H216915   0.291   6.015   5.643  1.6195 -0.5236 -0.6062
 5651TIP3   OH216916   0.038   2.325   4.291 -0.3115 -0.1299 -0.4248
 5651TIP3    H116917  -0.020   2.388   4.249 -0.5608  1.1807  1.7322
 5651TIP3    H216918   0.094   2.293   4.220 -0.5372  2.0949 -1.7174
 5652TIP3   OH216919   4.094   4.566   4.913 -0.0976  0.4229  0.0268
 5652TIP3    H116920   4.169   4.624   4.929 -0.2219  0.5935 -0.0116
 5652TIP3    H216921   4.130   4.497   4.857 -0.1854  1.0074 -0.7814
 5653TIP3   OH216922   6.587   2.607   4.669  0.1817 -0.2805 -0.2827
 5653TIP3    H116923   6.639   2.616   4.590 -0.4179  0.8355 -0.5783
 5653TIP3    H216924   6.624   2.673   4.729 -0.9578  0.6413 -0.5553
 5654TIP3   OH216925   2.124   6.451   4.459  0.3913 -0.1155 -0.8372
 5654TIP3    H116926   2.133   6.364   4.498  0.0446  0.3975  0.4422
 5654TIP3    H216927   2.151   6.440   4.368  0.1945 -1.5883 -0.7319
 5655TIP3   OH216928   6.149   1.938   3.569  0.4156  0.2500 -0.1566
 5655TIP3    H116929   6.069   1.886   3.578 -0.9186  2.5335  3.6511
 5655TIP3    H216930   6.121   2.015   3.518  1.6406 -1.2059 -3.2456
 5656TIP3   OH216931   5.059   2.856   3.260  0.1582 -0.5909 -0.2077
 5656TIP3    H116932   5.045   2.945   3.228  2.2840  0.3839  1.3173
 5656TIP3    H216933   4.993   2.845   3.328 -0.5462 -0.4542 -0.8540
 5657TIP3   OH216934   3.795   4.114   0.088  0.1880  0.4981 -0.2465
 5657TIP3    H116935   3.873   4.112   0.143  0.3615  2.3623 -0.3403
 5657TIP3    H216936   3.724   4.082   0.144  0.9531 -0.9799 -0.0871
 5658TIP3   OH216937   1.534   3.323   4.994  0.1687 -0.0876  0.4385
 5658TIP3    H116938   1.594   3.332   5.068 -0.7809 -0.1978  1.2576
 5658TIP3    H216939   1.571   3.253   4.940  0.1770 -0.9480  1.5313
 5659TIP3   OH216940   5.248   4.387   0.803 -0.1312 -0.6867 -0.2604
 5659TIP3    H116941   5.239   4.382   0.898  0.4685 -0.4397 -0.1893
 5659TIP3    H216942   5.212   4.473   0.780  0.3386 -0.4663 -0.1799
 5660TIP3   OH216943   6.080   3.873   3.016  1.0290  0.1218 -0.1380
 5660TIP3    H116944   6.082   3.793   3.069  0.7710  0.7585  0.8826
 5660TIP3    H216945   5.989   3.880   2.988  1.1070 -0.0727 -0.4430
 5661TIP3   OH216946   7.122   5.136   2.759 -0.0312 -0.6686 -0.2246
 5661TIP3    H116947   7.216   5.127   2.776 -0.0696 -1.2441 -0.3055
 5661TIP3    H216948   7.095   5.211   2.813  0.1181 -1.6316  1.2437
 5662TIP3   OH216949   3.693   2.532   4.671 -0.3548  0.1285  0.1117
 5662TIP3    H116950   3.652   2.528   4.757  0.1875  1.0141  0.4324
 5662TIP3    H216951   3.780   2.494   4.685  0.1991  1.3868  0.2770
 5663TIP3   OH216952   0.270   5.233   4.646 -0.1931  0.2448 -0.2673
 5663TIP3    H116953   0.293   5.155   4.596  2.2310  0.9715 -0.4025
 5663TIP3    H216954   0.181   5.255   4.616 -1.1819 -2.7058  0.1824
 5664TIP3   OH216955   6.022   1.572   1.960  0.1797  0.1870 -0.4687
 5664TIP3    H116956   5.929   1.575   1.938  0.0604  1.8976  0.0928
 5664TIP3    H216957   6.038   1.483   1.990 -1.1911 -0.2297 -0.9458
 5665TIP3   OH216958   7.055   2.500   3.618  0.5948  0.0685  0.1950
 5665TIP3    H116959   7.136   2.451   3.628  0.5592 -0.0966 -0.2846
 5665TIP3    H216960   7.082   2.592   3.615  0.7176  0.0412  0.5066
 5666TIP3   OH216961   1.319   1.400   2.555  0.1413 -0.2164  0.3053
 5666TIP3    H116962   1.313   1.335   2.625  0.2248  0.2282  0.7255
 5666TIP3    H216963   1.384   1.363   2.495 -1.3022 -1.5231 -0.5416
 5667TIP3   OH216964   5.327   6.664   2.267  0.4229  0.1733  0.1863
 5667TIP3    H116965   5.263   6.644   2.198  0.5293  0.7255 -0.0820
 5667TIP3    H216966   5.297   6.614   2.343  0.6208 -0.8872 -0.4166
 5668TIP3   OH216967   4.013   6.148   4.651  0.4834  0.3221  0.0575
 5668TIP3    H116968   3.974   6.100   4.578  0.6577 -0.5290  0.5095
 5668TIP3    H216969   3.943   6.206   4.682  0.3438  0.5387 -0.6465
 5669TIP3   OH216970   6.987   2.366   1.270  0.2332  0.8608  0.0641
 5669TIP3    H116971   6.917   2.378   1.206 -0.2275  2.7725  0.8702
 5669TIP3    H216972   6.942   2.340   1.350  0.6984 -0.2708 -0.0162
 5670TIP3   OH216973   1.464   5.494   5.365 -0.0924 -0.2295 -0.1968
 5670TIP3    H116974   1.421   5.431   5.422  0.4114 -0.5632 -0.1736
 5670TIP3    H216975   1.546   5.451   5.340  0.0742  0.2551 -0.5001
 5671TIP3   OH216976   5.096   2.908   4.960 -0.1108 -0.2645 -0.7777
 5671TIP3    H116977   5.146   2.908   5.041  0.2164  0.7416 -0.9573
 5671TIP3    H216978   5.026   2.845   4.975  0.6563 -0.9964 -0.1745
 5672TIP3   OH216979   0.474   3.730   5.911 -0.1106 -0.3177 -0.3971
 5672TIP3    H116980   0.512   3.745   5.824  1.7606 -0.1050  0.3997
 5672TIP3    H216981   0.425   3.649   5.902 -2.0996  0.9734 -2.2608
 5673TIP3   OH216982   5.976   1.572   4.437 -0.1772  0.2573 -0.1727
 5673TIP3    H116983   6.046   1.637   4.444  0.9164 -0.8153 -0.5398
 5673TIP3    H216984   5.985   1.537   4.348 -0.4481 -0.6751  0.1513
 5674TIP3   OH216985   5.006   2.423   1.706  0.6740 -0.0697 -0.2584
 5674TIP3    H116986   5.011   2.484   1.779  1.0069 -0.8517  0.3893
 5674TIP3    H216987   5.026   2.338   1.744  1.1399 -0.4542 -1.3091
 5675TIP3   OH216988   0.671   4.458   0.375 -0.0187 -0.0033 -0.2845
 5675TIP3    H116989   0.597   4.415   0.333  0.9944  0.4248 -2.7254
 5675TIP3    H216990   0.745   4.400   0.358  0.4217  0.0633  1.2290
 5676TIP3   OH216991   1.213   6.324   5.385 -0.1929  0.2243  0.2562
 5676TIP3    H116992   1.215   6.257   5.317 -1.1909  1.6976 -1.3062
 5676TIP3    H216993   1.304   6.352   5.394  0.0610 -0.5290  0.1140
 5677TIP3   OH216994   1.566   3.624   3.798 -0.3931 -0.0055  0.3132
 5677TIP3    H116995   1.578   3.573   3.878 -0.6341  1.2710  1.1962
 5677TIP3    H216996   1.642   3.682   3.794  1.1007 -1.9253 -1.9143
 5678TIP3   OH216997   7.084   3.888   5.284  0.0892  0.5424  0.3397
 5678TIP3    H116998   7.006   3.913   5.234 -0.4511 -1.0590  0.3151
 5678TIP3    H216999   7.055   3.813   5.337  1.6110 -0.0635  0.3468
 5679TIP3   OH217000   5.741   4.866   0.032  0.3442 -0.1551 -0.6163
 5679TIP3    H117001   5.676   4.798   0.013  0.9889 -0.4120 -2.0902
 5679TIP3    H217002   5.819   4.817   0.059  1.0342 -0.1026 -2.3501
 5680TIP3   OH217003   1.246   5.264   4.195  0.2504  0.4037  0.0934
 5680TIP3    H117004   1.197   5.192   4.234  1.1026 -0.1070  0.2427
 5680TIP3    H217005   1.335   5.231   4.186  0.4211  1.0603 -0.8340
 5681TIP3   OH217006   1.666   4.164   1.753  0.6509 -0.7387 -0.0973
 5681TIP3    H117007   1.673   4.070   1.741 -0.6486 -0.9992  0.9355
 5681TIP3    H217008   1.639   4.174   1.844 -2.4611  0.4629 -1.0536
 5682TIP3   OH217009   2.537   4.340   5.411  0.0081  0.3462 -0.5924
 5682TIP3    H117010   2.566   4.355   5.321  1.5312  1.5073  0.0335
 5682TIP3    H217011   2.588   4.264   5.440  3.3071  2.8181  0.7429
 5683TIP3   OH217012   1.821   2.441   3.806 -0.3321  0.0837 -0.5225
 5683TIP3    H117013   1.757   2.381   3.844  0.4499  0.5365  1.6394
 5683TIP3    H217014   1.793   2.528   3.835  0.2873  0.4667 -1.0363
 5684TIP3   OH217015   5.668   0.818   0.308  0.5699  0.1488 -0.1800
 5684TIP3    H117016   5.607   0.841   0.238 -2.6012  0.5699  2.4951
 5684TIP3    H217017   5.725   0.894   0.316 -0.3510  0.9557 -0.9741
 5685TIP3   OH217018   3.901   3.438   4.279  0.6441  0.3300 -0.3595
 5685TIP3    H117019   3.987   3.417   4.315  0.0729 -0.8655  0.3477
 5685TIP3    H217020   3.914   3.434   4.184  1.2333 -0.4455 -0.2584
 5686TIP3   OH217021   3.209   3.967   1.678 -0.3659  0.3374 -0.7496
 5686TIP3    H117022   3.251   4.049   1.654  0.4925  0.2412  0.3227
 5686TIP3    H217023   3.268   3.899   1.646 -0.3708  0.1690 -0.4047
 5687TIP3   OH217024   5.043   1.259   1.780  0.2215  0.0868 -0.0055
 5687TIP3    H117025   5.039   1.341   1.731 -0.1933 -0.7579 -1.4400
 5687TIP3    H217026   5.087   1.198   1.720  0.7065 -0.6870  1.1135
 5688TIP3   OH217027   0.164   6.747   0.476  0.1712 -0.2875  0.0792
 5688TIP3    H117028   0.194   6.702   0.397  1.5145 -1.2028  1.0816
 5688TIP3    H217029   0.241   6.793   0.509 -0.1351 -0.6459  1.3404
 5689TIP3   OH217030   1.662   3.052   3.518 -0.1539  0.1042  0.0206
 5689TIP3    H117031   1.751   3.016   3.513 -0.2493 -0.1559  0.1942
 5689TIP3    H217032   1.654   3.083   3.608  0.4609  1.9533 -0.5025
 5690TIP3   OH217033   2.826   5.664   4.480  0.0435 -0.1316 -0.3442
 5690TIP3    H117034   2.806   5.693   4.569  0.8518  1.2614 -0.5881
 5690TIP3    H217035   2.803   5.738   4.424 -0.2494 -0.9106 -1.2827
 5691TIP3   OH217036   3.135   4.814   4.874  0.2970  0.5628  0.6534
 5691TIP3    H117037   3.229   4.808   4.888  0.1569  0.7812  1.7768
 5691TIP3    H217038   3.107   4.723   4.860  0.7243  0.5415 -0.1578
 5692TIP3   OH217039   3.784   2.781   0.448  0.0848  0.0894 -0.1624
 5692TIP3    H117040   3.752   2.871   0.436 -2.7023 -0.8690 -0.6563
 5692TIP3    H217041   3.767   2.762   0.541 -0.3771 -0.2862 -0.3222
 5693TIP3   OH217042   6.896   6.765   5.081 -0.3684 -0.2152 -0.3486
 5693TIP3    H117043   6.813   6.761   5.033 -1.4346  1.4636  1.2161
 5693TIP3    H217044   6.872   6.755   5.173  1.3816 -1.3144  0.0375
 5694TIP3   OH217045   3.979   1.230   3.065 -0.1398  0.1795  0.3881
 5694TIP3    H117046   3.946   1.318   3.084 -1.7107 -0.2740 -0.0602
 5694TIP3    H217047   3.985   1.227   2.969 -0.4066 -0.3010  0.3843
 5695TIP3   OH217048   1.102   1.126   3.708  0.1244  0.0107 -0.1647
 5695TIP3    H117049   1.146   1.048   3.675  0.7458  1.3489 -2.7715
 5695TIP3    H217050   1.162   1.163   3.773  1.1652 -0.1607 -1.0073
 5696TIP3   OH217051   1.035   1.721   0.484  0.0183 -0.8350 -0.0367
 5696TIP3    H117052   1.007   1.746   0.572  0.9374  1.0643 -0.2404
 5696TIP3    H217053   0.954   1.701   0.438 -0.6196 -0.1440  0.7522
 5697TIP3   OH217054   4.103   3.313   3.434 -0.3475  0.3447 -0.3998
 5697TIP3    H117055   4.048   3.313   3.356 -0.1149  1.4474 -0.5824
 5697TIP3    H217056   4.180   3.262   3.409 -2.3479 -3.6142  0.7146
 5698TIP3   OH217057   6.727   1.102   3.874  0.0838 -0.0567  0.1369
 5698TIP3    H117058   6.784   1.170   3.837 -0.0572  1.0449  1.8342
 5698TIP3    H217059   6.786   1.050   3.929 -0.0181 -0.6650 -0.3241
 5699TIP3   OH217060   4.651   1.580   0.118 -0.1239  0.0831 -0.3914
 5699TIP3    H117061   4.699   1.614   0.193  0.1058  1.7156 -1.2389
 5699TIP3    H217062   4.573   1.635   0.112  0.1230  0.3181 -1.6599
 5700TIP3   OH217063   4.127   6.331   5.481 -0.5950  0.3212 -0.2401
 5700TIP3    H117064   4.203   6.372   5.438 -0.1200  1.2526  1.3867
 5700TIP3    H217065   4.051   6.376   5.445 -0.1248  2.1051  0.8522
 5701TIP3   OH217066   6.928   0.564   4.838 -0.1656 -0.3263  0.2431
 5701TIP3    H117067   6.925   0.544   4.745 -3.3882 -0.9026  0.3716
 5701TIP3    H217068   6.992   0.635   4.845  1.8039 -1.7165 -2.0246
 5702TIP3   OH217069   5.363   0.491   1.735 -0.0549  0.1778 -0.2725
 5702TIP3    H117070   5.441   0.498   1.790 -0.3116  0.3550  0.0753
 5702TIP3    H217071   5.392   0.441   1.659  0.2333 -0.3065  0.1512
 5703TIP3   OH217072   2.466   6.047   4.683 -0.5431 -0.1658 -0.4579
 5703TIP3    H117073   2.546   6.054   4.631 -1.4139 -1.3111 -2.0015
 5703TIP3    H217074   2.452   5.953   4.694 -0.5551  0.0359  1.6218
 5704TIP3   OH217075   3.518   4.131   2.339  0.5541 -0.0370  0.0626
 5704TIP3    H117076   3.562   4.161   2.260 -2.5336 -0.5614 -1.9826
 5704TIP3    H217077   3.553   4.042   2.354 -0.4268 -0.8378 -2.0879
 5705TIP3   OH217078   2.114   1.003   1.338 -0.4025  0.1378  0.4855
 5705TIP3    H117079   2.101   0.913   1.307 -1.0885 -0.1669  1.5794
 5705TIP3    H217080   2.074   1.058   1.272  3.0001 -0.0726 -2.0161
 5706TIP3   OH217081   2.686   2.301   2.197 -0.0942  0.2572 -0.2988
 5706TIP3    H117082   2.647   2.377   2.239  2.2334  2.3477 -1.6353
 5706TIP3    H217083   2.627   2.280   2.125  0.0959  1.9926 -1.0076
 5707TIP3   OH217084   2.605   3.829   0.172 -0.5532  0.2540 -0.2000
 5707TIP3    H117085   2.638   3.786   0.093 -1.1148 -0.6543  0.0464
 5707TIP3    H217086   2.670   3.810   0.239  0.0482  1.2342 -0.4926
 5708TIP3   OH217087   2.238   5.440   4.446  0.3779 -0.1635 -0.2822
 5708TIP3    H117088   2.306   5.418   4.510  2.0982 -1.1429 -2.3164
 5708TIP3    H217089   2.281   5.499   4.384 -0.7250 -0.5298 -1.4465
 5709TIP3   OH217090   4.213   1.733   0.906  0.2744  0.4587 -0.6272
 5709TIP3    H117091   4.125   1.697   0.903  0.6753 -0.4818 -1.8601
 5709TIP3    H217092   4.206   1.818   0.861 -0.2158  0.9424  0.3219
 5710TIP3   OH217093   1.434   6.261   1.468 -0.0655  0.0664  0.1411
 5710TIP3    H117094   1.410   6.350   1.490 -2.0142 -0.5949  0.8786
 5710TIP3    H217095   1.519   6.248   1.512 -0.2813  1.1950  0.9452
 5711TIP3   OH217096   3.641   1.294   3.826  0.4599  1.0150  0.9236
 5711TIP3    H117097   3.568   1.251   3.871  0.6956  0.1532  0.5013
 5711TIP3    H217098   3.711   1.229   3.826  0.8678  1.4449  0.3675
 5712TIP3   OH217099   3.515   2.594   0.650 -0.3773 -0.3175  0.1425
 5712TIP3    H117100   3.569   2.663   0.688  0.4980 -1.2261  0.6210
 5712TIP3    H217101   3.489   2.627   0.564 -0.4986  0.8461  0.6141
 5713TIP3   OH217102   0.232   5.395   0.660 -0.0698  0.7384 -0.0807
 5713TIP3    H117103   0.284   5.315   0.666  0.0585  0.9100  1.5261
 5713TIP3    H217104   0.287   5.456   0.611  1.2142  0.8562  1.4355
 5714TIP3   OH217105   3.922   1.970   5.219 -0.1940 -0.5861  0.2093
 5714TIP3    H117106   3.988   1.915   5.177 -2.4991 -1.9312 -1.9316
 5714TIP3    H217107   3.912   2.044   5.160  0.3516  0.3551  1.2588
 5715TIP3   OH217108   1.721   2.731   1.291 -0.2224 -0.5282  0.3815
 5715TIP3    H117109   1.763   2.704   1.372  1.8371  2.9267  0.6559
 5715TIP3    H217110   1.632   2.754   1.317 -0.1049 -1.0630  1.3113
 5716TIP3   OH217111   0.085   5.822   5.240 -0.5303 -0.1079 -0.1152
 5716TIP3    H117112   0.099   5.766   5.164 -0.5478  0.9939 -0.9616
 5716TIP3    H217113   0.156   5.799   5.300 -0.0066 -0.3922 -0.8314
 5717TIP3   OH217114   4.488   1.047   3.033 -0.1786 -0.2844  0.6170
 5717TIP3    H117115   4.527   0.995   2.962  1.0769  0.1003  1.0031
 5717TIP3    H217116   4.448   1.122   2.989 -1.9354 -1.4763  0.0588
 5718TIP3   OH217117   3.340   4.038   3.111  0.0123 -0.1838  1.0876
 5718TIP3    H117118   3.310   3.955   3.073  0.3090  0.3411 -0.3720
 5718TIP3    H217119   3.278   4.056   3.182 -0.6382 -1.1669  0.7915
 5719TIP3   OH217120   5.470   0.889   1.453  0.0402  0.1034 -0.0271
 5719TIP3    H117121   5.549   0.936   1.426  0.3844 -0.0579  0.6707
 5719TIP3    H217122   5.398   0.945   1.424  0.4151  0.3828 -0.4346
 5720TIP3   OH217123   0.344   2.880   2.308 -0.0541 -0.1222 -0.6531
 5720TIP3    H117124   0.325   2.790   2.332 -0.4716 -0.1906 -1.2283
 5720TIP3    H217125   0.325   2.931   2.387  0.1856 -0.5314 -0.3256
 5721TIP3   OH217126   2.908   0.482   1.555 -0.3854 -0.2361 -0.4937
 5721TIP3    H117127   2.938   0.422   1.624  0.3802  0.1485 -0.4900
 5721TIP3    H217128   2.917   0.432   1.474 -2.1268 -1.0172 -0.2705
 5722TIP3   OH217129   0.067   5.072   2.292 -0.3555  0.3709 -0.0787
 5722TIP3    H117130   0.124   5.082   2.369  0.0199  0.5777 -0.3831
 5722TIP3    H217131  -0.012   5.121   2.315  0.2433  1.4778 -0.3164
 5723TIP3   OH217132   4.622   3.705   4.511 -0.1879 -0.2922  0.3151
 5723TIP3    H117133   4.587   3.663   4.432  0.0732 -1.1736  0.6524
 5723TIP3    H217134   4.548   3.754   4.547  0.3549  2.4476 -1.9399
 5724TIP3   OH217135   3.347   0.588   2.619  0.1799 -0.1160  0.0747
 5724TIP3    H117136   3.254   0.610   2.618  0.1210 -0.1859 -2.0001
 5724TIP3    H217137   3.349   0.494   2.638  0.0132  0.3216  2.4682
 5725TIP3   OH217138   3.476   1.525   0.835  0.6333 -0.0681 -0.3304
 5725TIP3    H117139   3.566   1.494   0.828  0.8459  0.6730 -0.9801
 5725TIP3    H217140   3.483   1.614   0.869  0.0305 -0.6488  1.4387
 5726TIP3   OH217141   5.358   3.746   4.952 -0.0283 -0.2156 -0.4505
 5726TIP3    H117142   5.287   3.804   4.978  0.8295  0.8957 -0.5006
 5726TIP3    H217143   5.431   3.769   5.010  0.2505 -1.4219 -0.3106
 5727TIP3   OH217144   2.446   4.771   3.629 -0.1947  0.2155  0.2865
 5727TIP3    H117145   2.356   4.753   3.605 -0.4941  1.8915  0.0280
 5727TIP3    H217146   2.454   4.866   3.623  2.2443 -0.0225 -2.1100
 5728TIP3   OH217147   3.126   5.826   3.225 -0.2117 -0.3473 -0.1703
 5728TIP3    H117148   3.101   5.773   3.150  1.4387 -1.9392  0.3346
 5728TIP3    H217149   3.162   5.764   3.288  0.2456  1.1765  1.1521
 5729TIP3   OH217150   3.604   6.037   5.329 -0.5050 -0.3868 -0.2736
 5729TIP3    H117151   3.585   6.115   5.381  1.0542 -1.2407  1.7110
 5729TIP3    H217152   3.646   6.071   5.249  0.4575  0.8233  0.6924
 5730TIP3   OH217153   6.617   0.041   4.648  0.1826  0.0524  0.2840
 5730TIP3    H117154   6.613   0.091   4.566  1.0981  1.1222  0.8674
 5730TIP3    H217155   6.549   0.080   4.703  0.1148 -0.1235  0.3243
 5731TIP3   OH217156   6.548   5.363   4.411 -0.3761 -0.3053 -0.5897
 5731TIP3    H117157   6.474   5.420   4.387  0.8931  1.4161 -0.5576
 5731TIP3    H217158   6.620   5.423   4.429  0.5985 -1.8711  1.0163
 5732TIP3   OH217159   6.609   1.035   4.820 -0.3738  0.0409 -0.1765
 5732TIP3    H117160   6.612   1.109   4.760  0.7202 -0.5319 -0.8740
 5732TIP3    H217161   6.688   0.985   4.799 -0.8517 -1.0716  0.5960
 5733TIP3   OH217162   1.716   5.400   2.686 -0.8967 -0.6771 -0.1398
 5733TIP3    H117163   1.765   5.421   2.607 -0.9266  0.1493  0.0549
 5733TIP3    H217164   1.782   5.385   2.753 -0.8839 -0.7007 -0.1580
 5734TIP3   OH217165   3.984   4.936   4.960  0.0757  0.0379 -0.4934
 5734TIP3    H117166   4.070   4.923   4.919  0.8496 -0.2284  1.1379
 5734TIP3    H217167   3.940   4.851   4.953  2.0480 -1.5324  3.2074
 5735TIP3   OH217168   3.498   5.609   4.010  0.0910  0.0710 -0.3900
 5735TIP3    H117169   3.467   5.527   3.972 -1.3317 -0.0210  0.8526
 5735TIP3    H217170   3.526   5.662   3.936 -2.4039 -0.1594 -1.5778
 5736TIP3   OH217171   3.614   3.586   2.732  0.4179 -0.6662  0.3955
 5736TIP3    H117172   3.558   3.602   2.808 -0.3976  0.3883 -0.3873
 5736TIP3    H217173   3.624   3.672   2.691 -0.8278 -1.4837 -1.8126
 5737TIP3   OH217174   6.191   3.907   1.454  0.1448 -0.0208  0.0890
 5737TIP3    H117175   6.165   3.822   1.491 -0.6590  0.2831  0.2496
 5737TIP3    H217176   6.128   3.969   1.491  0.4695  0.5830 -0.3588
 5738TIP3   OH217177   5.168   4.954   3.958  0.6179 -0.4686  0.2061
 5738TIP3    H117178   5.085   4.979   3.917  0.6418  1.4588  1.2532
 5738TIP3    H217179   5.229   5.023   3.935  1.2281 -0.5058  1.5914
 5739TIP3   OH217180   1.633   5.685   5.675  0.5034 -0.1925  0.1959
 5739TIP3    H117181   1.642   5.694   5.580 -1.6048 -2.4705 -0.3299
 5739TIP3    H217182   1.589   5.765   5.703  1.3469  0.6051 -0.6710
 5740TIP3   OH217183   1.758   3.558   0.407  0.4498  0.4225  0.1579
 5740TIP3    H117184   1.792   3.513   0.484  0.4665  0.6899  0.3095
 5740TIP3    H217185   1.679   3.511   0.383  1.1517 -0.4794 -0.4557
 5741TIP3   OH217186   1.745   2.053   3.524  0.4398  0.2642 -0.1161
 5741TIP3    H117187   1.780   2.066   3.436  1.7864 -1.1785  0.1607
 5741TIP3    H217188   1.790   1.975   3.556 -2.9655 -1.7339  0.3178
 5742TIP3   OH217189   1.870   1.261   1.195  0.1811 -0.4803 -0.7212
 5742TIP3    H117190   1.777   1.269   1.173 -0.0387 -1.2415 -0.1045
 5742TIP3    H217191   1.887   1.167   1.191  0.2678 -0.6328  1.7407
 5743TIP3   OH217192   3.700   0.363   1.369  0.0860  0.2394 -0.0788
 5743TIP3    H117193   3.773   0.302   1.370  1.1351  1.3719 -2.0080
 5743TIP3    H217194   3.634   0.323   1.425  2.5397 -0.3178  2.5976
 5744TIP3   OH217195   6.854   0.446   0.118 -0.0826  0.0479 -0.0613
 5744TIP3    H117196   6.935   0.411   0.155  0.1699 -1.1047 -1.5832
 5744TIP3    H217197   6.795   0.371   0.112 -0.0925  0.1422 -1.9535
 5745TIP3   OH217198   6.306   1.459   3.417  0.3953  0.3244 -0.0166
 5745TIP3    H117199   6.336   1.507   3.339  0.5060  0.7344  0.2745
 5745TIP3    H217200   6.213   1.446   3.403  0.3761  0.5730 -0.1285
 5746TIP3   OH217201   6.013   2.443   5.465  0.1404 -0.1470  0.1078
 5746TIP3    H117202   6.003   2.527   5.419  0.4042  0.1628  0.6003
 5746TIP3    H217203   6.044   2.468   5.552 -1.0819 -0.6562  0.7153
 5747TIP3   OH217204   5.101   4.456   4.596  0.3086 -0.1673  0.3368
 5747TIP3    H117205   5.146   4.540   4.586 -0.8569  0.6907  1.9227
 5747TIP3    H217206   5.080   4.451   4.689 -0.5743 -1.7440  0.0803
 5748TIP3   OH217207   4.019   3.732   0.831  0.1051  0.0114  0.0176
 5748TIP3    H117208   4.044   3.759   0.742  1.6303 -1.3498 -0.0063
 5748TIP3    H217209   4.033   3.810   0.884 -0.6805  0.8056 -0.8855
 5749TIP3   OH217210   3.962   3.858   4.788 -0.1651  0.1221 -0.0351
 5749TIP3    H117211   4.024   3.911   4.739 -1.1735  1.5220  0.1222
 5749TIP3    H217212   3.900   3.826   4.722  0.4284 -0.8691 -0.1258
 5750TIP3   OH217213   6.456   0.549   1.018 -0.2431 -0.1104  0.5222
 5750TIP3    H117214   6.467   0.623   1.078 -1.2680  0.5867 -0.1268
 5750TIP3    H217215   6.373   0.566   0.974  0.1060 -1.0259 -0.5282
 5751TIP3   OH217216   3.736   0.727   1.361 -0.1614  0.2449  0.4171
 5751TIP3    H117217   3.716   0.731   1.268  3.4366 -1.1546 -0.5990
 5751TIP3    H217218   3.774   0.812   1.382  0.3749  0.0654  0.1949
 5752TIP3   OH217219   0.704   5.163   0.744 -0.0489 -0.2859 -0.2990
 5752TIP3    H117220   0.653   5.195   0.670 -1.6704 -0.1564  0.8256
 5752TIP3    H217221   0.657   5.086   0.774 -0.6093  0.8138  1.8379
 5753TIP3   OH217222   2.602   3.920   5.752  0.2875  0.0486 -0.2746
 5753TIP3    H117223   2.660   3.851   5.720  3.1424  2.1802 -0.0882
 5753TIP3    H217224   2.605   3.912   5.847  2.6792  1.8417 -0.1213
 5754TIP3   OH217225   6.767   3.659   2.036  0.2632  0.5302  0.4586
 5754TIP3    H117226   6.808   3.652   1.949  1.6730  2.0381  0.9492
 5754TIP3    H217227   6.794   3.580   2.082  0.4872  0.2802 -0.0956
 5755TIP3   OH217228   0.045   6.554   2.583 -0.1661 -0.4958  0.5062
 5755TIP3    H117229   0.023   6.544   2.491  3.5562 -1.4836 -0.4198
 5755TIP3    H217230   0.006   6.478   2.626 -1.5713 -0.2431 -0.2864
 5756TIP3   OH217231   0.446   3.008   3.373 -0.2342  0.2048 -0.2531
 5756TIP3    H117232   0.504   3.042   3.304 -1.4072  2.8538 -0.0628
 5756TIP3    H217233   0.367   2.980   3.327 -0.4483  0.6018 -0.1313
 5757TIP3   OH217234   6.034   2.362   2.965 -0.6629 -0.4414  0.8411
 5757TIP3    H117235   6.007   2.427   2.899 -0.7748 -0.7685  0.5652
 5757TIP3    H217236   6.022   2.407   3.049  0.9890  0.5612  0.5888
 5758TIP3   OH217237   1.373   4.661   5.073 -0.1969 -0.1145 -0.1174
 5758TIP3    H117238   1.322   4.686   4.996 -1.6043 -0.6809  0.5952
 5758TIP3    H217239   1.386   4.744   5.120  0.0618  0.1236 -0.5932
 5759TIP3   OH217240   4.638   2.663   1.393 -1.0181 -0.1752 -0.5898
 5759TIP3    H117241   4.707   2.726   1.371 -1.1721  0.0238 -0.5010
 5759TIP3    H217242   4.654   2.589   1.334  0.4160 -0.9433  0.6976
 5760TIP3   OH217243   0.653   2.214   2.656  0.4553  0.0623  0.4850
 5760TIP3    H117244   0.587   2.169   2.708  0.0556 -1.6045 -1.3214
 5760TIP3    H217245   0.735   2.199   2.703 -0.0418 -0.4033  1.2288
 5761TIP3   OH217246   5.873   0.075   3.131  0.3052 -0.1453  0.5793
 5761TIP3    H117247   5.872   0.022   3.210  1.7313  0.3396  0.9428
 5761TIP3    H217248   5.801   0.040   3.078 -0.1496 -1.0005  1.7286
 5762TIP3   OH217249   4.813   1.139   4.116  0.0563 -0.2774  0.1244
 5762TIP3    H117250   4.832   1.052   4.081 -1.1609 -0.6696  0.3935
 5762TIP3    H217251   4.898   1.182   4.121  0.5259 -1.0126 -1.1750
 5763TIP3   OH217252   2.558   6.766   0.037  0.0169 -0.0155 -0.3664
 5763TIP3    H117253   2.486   6.811  -0.006 -0.4566  0.4647  0.8797
 5763TIP3    H217254   2.532   6.674   0.039 -0.2526  0.0586 -0.5184
 5764TIP3   OH217255   0.414   1.271   3.169 -0.0173  0.0828  0.3739
 5764TIP3    H117256   0.412   1.183   3.130 -0.2734 -0.1002  0.7923
 5764TIP3    H217257   0.504   1.283   3.196 -0.1439 -0.3601  1.0033
 5765TIP3   OH217258   2.493   0.746   4.184  0.8805 -0.1465 -0.1052
 5765TIP3    H117259   2.465   0.721   4.096  0.8294 -0.2686 -0.0556
 5765TIP3    H217260   2.573   0.696   4.199  0.6465 -0.4759  0.0880
 5766TIP3   OH217261   3.813   4.091   1.503  0.0255 -0.0090 -0.3158
 5766TIP3    H117262   3.901   4.114   1.535  0.8590 -0.8355 -1.9015
 5766TIP3    H217263   3.781   4.172   1.464 -0.0355  0.3593  0.4623
 5767TIP3   OH217264   6.077   5.324   1.063  0.3207 -0.5496  0.1192
 5767TIP3    H117265   6.091   5.254   1.000 -0.5716  1.6441 -2.7534
 5767TIP3    H217266   6.134   5.395   1.032 -1.3449  1.1672  0.7988
 5768TIP3   OH217267   6.080   1.362   2.125  0.1521 -0.4440  0.1139
 5768TIP3    H117268   6.163   1.366   2.173 -0.4046  0.7996  1.0116
 5768TIP3    H217269   6.013   1.357   2.194 -0.6395  0.8688 -0.5254
 5769TIP3   OH217270   6.216   2.215   5.018  0.0838  0.2867 -0.3938
 5769TIP3    H117271   6.242   2.147   5.080 -1.5416  0.5449  0.6351
 5769TIP3    H217272   6.247   2.184   4.934  2.0674 -0.2381  0.4865
 5770TIP3   OH217273   0.915   0.515   2.618 -0.3570 -0.5040 -0.6837
 5770TIP3    H117274   0.896   0.542   2.528 -0.4753 -1.7694 -1.0715
 5770TIP3    H217275   0.986   0.451   2.609 -0.2924 -0.5613  0.1371
 5771TIP3   OH217276   6.382   5.138   4.496 -0.2047  0.5052  0.4412
 5771TIP3    H117277   6.433   5.059   4.476 -0.7467  0.0376  0.8647
 5771TIP3    H217278   6.436   5.210   4.463 -0.3087 -0.1132 -1.2106
 5772TIP3   OH217279   5.333   2.725   2.375 -0.4643  0.2195  0.0697
 5772TIP3    H117280   5.426   2.741   2.358 -0.7132 -0.3411 -2.2928
 5772TIP3    H217281   5.294   2.812   2.376  0.2136  0.5746  2.5325
 5773TIP3   OH217282   4.618   5.219   3.842 -0.6763 -0.7154  0.5849
 5773TIP3    H117283   4.701   5.175   3.822 -0.3850  0.5000 -1.0107
 5773TIP3    H217284   4.568   5.215   3.761 -0.3918  2.3954  0.1452
 5774TIP3   OH217285   5.310   6.480   3.085  0.3984  0.0265 -0.0801
 5774TIP3    H117286   5.320   6.566   3.044 -0.0904 -0.3375 -0.9779
 5774TIP3    H217287   5.311   6.499   3.179 -1.4389  1.2399 -0.2438
 5775TIP3   OH217288   4.949   3.749   2.464  0.2581  0.0618 -0.2008
 5775TIP3    H117289   5.041   3.728   2.452 -0.2811 -2.0474 -1.0797
 5775TIP3    H217290   4.942   3.777   2.556  1.4703 -1.6552  0.4670
 5776TIP3   OH217291   4.140   6.694   3.617  0.1996 -0.1703 -0.6215
 5776TIP3    H117292   4.155   6.600   3.630 -1.2379 -0.2202  1.0197
 5776TIP3    H217293   4.153   6.732   3.704 -0.7246  0.9092 -0.9346
 5777TIP3   OH217294   0.454   0.936   4.099 -0.0382  0.0546  0.2956
 5777TIP3    H117295   0.547   0.914   4.094 -0.0288  0.3392 -1.3973
 5777TIP3    H217296   0.450   1.029   4.079 -0.8440 -0.4517 -2.3473
 5778TIP3   OH217297   4.536   5.085   5.729 -0.6604  0.3039 -0.2288
 5778TIP3    H117298   4.560   5.090   5.821  0.1394  0.4848 -0.4374
 5778TIP3    H217299   4.595   5.019   5.692 -0.5370  0.6877 -0.7375
 5779TIP3   OH217300   3.589   2.182   3.405  0.6827 -0.1743 -0.1768
 5779TIP3    H117301   3.593   2.259   3.463  1.1094  0.9597 -1.6538
 5779TIP3    H217302   3.568   2.110   3.464  2.2066  0.7156  1.5978
 5780TIP3   OH217303   5.565   1.922   5.655  0.1166  0.1343 -0.4373
 5780TIP3    H117304   5.495   1.875   5.700 -0.4796  1.4643  0.0951
 5780TIP3    H217305   5.619   1.854   5.616 -2.0719 -0.9371 -1.7954
 5781TIP3   OH217306   3.146   5.801   0.046 -0.2437  0.0954 -0.4638
 5781TIP3    H117307   3.170   5.732   0.108  0.6036  2.7128  2.3845
 5781TIP3    H217308   3.060   5.774   0.012 -2.3963 -0.1343  4.3637
 5782TIP3   OH217309   4.947   3.702   5.521 -0.2027 -0.4073 -0.4830
 5782TIP3    H117310   4.913   3.718   5.609  1.8646 -2.3344  0.7625
 5782TIP3    H217311   5.024   3.758   5.515  0.0675 -0.8156 -0.8166
 5783TIP3   OH217312   4.761   5.460   2.525 -0.4756  0.6174 -0.2201
 5783TIP3    H117313   4.685   5.403   2.540 -0.4110  0.3143 -0.9869
 5783TIP3    H217314   4.826   5.431   2.588 -1.1975  1.2799  0.8641
 5784TIP3   OH217315   0.490   3.957   5.337 -0.6698  0.8240  0.2212
 5784TIP3    H117316   0.401   3.944   5.367 -0.3021  1.2731  1.5760
 5784TIP3    H217317   0.517   3.871   5.304 -0.2672 -0.4738  3.5359
 5785TIP3   OH217318   6.878   0.610   0.677 -0.4823 -0.1047  0.7479
 5785TIP3    H117319   6.872   0.578   0.587  1.7320 -1.1068  0.8924
 5785TIP3    H217320   6.817   0.554   0.726  0.0370 -1.1419  0.2335
 5786TIP3   OH217321   2.354   5.894   0.633  0.3705  0.2907  0.3774
 5786TIP3    H117322   2.274   5.841   0.629 -1.1876  2.3839  1.5283
 5786TIP3    H217323   2.425   5.831   0.643 -1.3234 -1.5677  1.2305
 5787TIP3   OH217324   1.232   5.777   4.829  0.3702  0.3618 -0.3721
 5787TIP3    H117325   1.243   5.821   4.745  1.2748  0.6607 -0.1128
 5787TIP3    H217326   1.236   5.684   4.808 -1.2948  0.3800 -0.8916
 5788TIP3   OH217327   1.490   4.312   5.673 -0.1996  0.0201  0.4257
 5788TIP3    H117328   1.438   4.284   5.749 -0.5713  0.2321  0.2525
 5788TIP3    H217329   1.574   4.269   5.685 -0.4817 -0.4957  0.6003
 5789TIP3   OH217330   1.989   1.118   3.291  0.0257 -0.5264 -0.0469
 5789TIP3    H117331   1.991   1.069   3.209 -0.5162 -0.3832 -0.1491
 5789TIP3    H217332   2.021   1.206   3.267  0.2566 -0.6002 -0.0179
 5790TIP3   OH217333   0.038   4.097   5.280 -0.2399  0.1091  0.4746
 5790TIP3    H117334   0.034   4.141   5.195  1.6281 -1.0079 -0.2395
 5790TIP3    H217335  -0.026   4.026   5.273 -0.2756  0.1753  0.0994
 5791TIP3   OH217336   0.627   3.589   2.601  0.1439 -0.3702 -0.1455
 5791TIP3    H117337   0.686   3.588   2.677  1.0351  0.7835 -0.8103
 5791TIP3    H217338   0.667   3.528   2.539  0.9208  0.7713 -0.7887
 5792TIP3   OH217339   3.000   1.154   3.064  0.6073  0.2996 -0.4560
 5792TIP3    H117340   3.082   1.199   3.086  0.5320 -0.4722  1.5764
 5792TIP3    H217341   2.931   1.217   3.086  0.5430 -0.3700  1.3513
 5793TIP3   OH217342   3.403   3.244   5.549 -0.0382  0.0298 -0.4861
 5793TIP3    H117343   3.440   3.161   5.519  0.7508  0.9688 -2.2950
 5793TIP3    H217344   3.337   3.266   5.483 -0.4801  0.6751  0.1538
 5794TIP3   OH217345   5.120   0.066   4.704 -0.4078  0.9157 -0.1833
 5794TIP3    H117346   5.166   0.132   4.653  1.2990  0.5328  0.7724
 5794TIP3    H217347   5.070   0.116   4.769 -0.2102  1.3044 -0.3304
 5795TIP3   OH217348   0.584   5.642   3.150 -0.5145 -0.2885  0.4638
 5795TIP3    H117349   0.536   5.717   3.186 -1.0172 -0.8463  0.9793
 5795TIP3    H217350   0.523   5.604   3.087 -0.4685 -0.5789  0.5952
 5796TIP3   OH217351   5.585   1.329   2.101  0.5303  0.5396  0.0661
 5796TIP3    H117352   5.508   1.288   2.142 -0.6668  1.9980 -0.6442
 5796TIP3    H217353   5.657   1.270   2.122 -0.5358 -0.2021  1.8963
 5797TIP3   OH217354   4.619   6.603   3.929  0.4702  0.4908  0.0000
 5797TIP3    H117355   4.632   6.698   3.930  1.7999  0.3337  0.3065
 5797TIP3    H217356   4.538   6.590   3.881  0.5708  1.7582 -0.5546
 5798TIP3   OH217357   6.132   3.871   0.651 -0.0573 -0.0705  0.2864
 5798TIP3    H117358   6.070   3.922   0.599 -0.1277 -1.8898 -1.5669
 5798TIP3    H217359   6.077   3.820   0.710 -0.2360 -0.4064 -0.1595
 5799TIP3   OH217360   5.001   6.219   1.509 -0.7238  0.6517  0.0464
 5799TIP3    H117361   4.991   6.137   1.556 -0.9420 -0.7773 -2.3290
 5799TIP3    H217362   4.911   6.249   1.493 -0.7921 -0.3611 -1.7849
 5800TIP3   OH217363   0.742   1.339   0.674  0.4976 -0.2443 -0.4565
 5800TIP3    H117364   0.817   1.392   0.699  1.0028 -1.6529  1.2476
 5800TIP3    H217365   0.779   1.253   0.652 -0.5879 -1.1063  0.8679
 5801TIP3   OH217366   3.221   0.776   0.965 -0.6346 -0.1801 -0.4683
 5801TIP3    H117367   3.286   0.822   0.913 -0.2047 -0.4669 -0.1958
 5801TIP3    H217368   3.264   0.760   1.049 -2.0078  2.1381  0.8007
 5802TIP3   OH217369   4.612   1.326   4.195  0.1442  0.1967 -0.3683
 5802TIP3    H117370   4.551   1.253   4.205  0.5765 -0.3164 -1.3046
 5802TIP3    H217371   4.694   1.285   4.167  1.5243  0.6624  2.6273
 5803TIP3   OH217372   2.289   3.742   3.714  0.5463  0.3168  0.0896
 5803TIP3    H117373   2.288   3.695   3.798  1.5654  1.5263  0.8082
 5803TIP3    H217374   2.379   3.734   3.684 -0.0572 -1.1096 -1.5251
 5804TIP3   OH217375   5.549   1.268   4.666 -0.1400 -0.4048  0.5724
 5804TIP3    H117376   5.609   1.232   4.601  1.3649  2.4446  0.2218
 5804TIP3    H217377   5.497   1.332   4.618 -0.5724  0.1343  1.7191
 5805TIP3   OH217378   6.334   0.581   1.368 -0.0170 -0.5175 -0.0445
 5805TIP3    H117379   6.293   0.567   1.452 -0.5369 -3.8541 -0.6969
 5805TIP3    H217380   6.405   0.516   1.365  0.7215  0.2915 -1.7400
 5806TIP3   OH217381   5.588   6.497   2.749  0.0124 -0.3320 -0.0594
 5806TIP3    H117382   5.665   6.553   2.736  1.1644 -1.8828 -0.1715
 5806TIP3    H217383   5.518   6.543   2.704  1.3285  0.1784 -1.7008
 5807TIP3   OH217384   5.929   1.443   2.344  0.0486  0.1829  0.1014
 5807TIP3    H117385   5.934   1.538   2.359 -2.5142  0.9960 -3.0613
 5807TIP3    H217386   5.836   1.426   2.330  0.7166 -2.3332 -1.9295
 5808TIP3   OH217387   4.149   4.184   3.351  0.2284 -0.0402  0.0218
 5808TIP3    H117388   4.239   4.195   3.319 -1.0082  1.3688 -3.4631
 5808TIP3    H217389   4.111   4.117   3.293 -1.3826  0.5028  0.3905
 5809TIP3   OH217390   6.181   1.876   4.649  0.0110  0.2603 -0.1111
 5809TIP3    H117391   6.148   1.871   4.559 -0.4542  0.4957  0.0390
 5809TIP3    H217392   6.141   1.802   4.694  0.0851  0.2567 -0.0502
 5810TIP3   OH217393   0.140   3.379   2.366 -0.3884  0.1416  0.3419
 5810TIP3    H117394   0.235   3.392   2.369  0.2069 -3.2413  0.5775
 5810TIP3    H217395   0.106   3.435   2.435  1.3499  1.7693 -0.0437
 5811TIP3   OH217396   0.260   1.772   3.862 -0.3089  0.1793 -0.5711
 5811TIP3    H117397   0.280   1.735   3.948 -1.4713  0.2996 -0.2253
 5811TIP3    H217398   0.165   1.788   3.865  0.0643  2.8926 -0.8129
 5812TIP3   OH217399   1.500   1.722   1.671  0.1362  0.0904 -0.4704
 5812TIP3    H117400   1.408   1.741   1.653  0.0281  1.4564  1.2206
 5812TIP3    H217401   1.542   1.722   1.585 -1.3302  0.0488 -1.2158
 5813TIP3   OH217402   0.689   1.400   0.260 -0.1609  0.4773  0.0006
 5813TIP3    H117403   0.710   1.312   0.290 -0.3911  0.6508  0.6866
 5813TIP3    H217404   0.616   1.389   0.201 -0.2170  0.2095  0.1179
 5814TIP3   OH217405   2.279   0.544   0.450  0.5106  0.5376 -0.0322
 5814TIP3    H117406   2.268   0.602   0.375 -0.3516  0.9585  0.4130
 5814TIP3    H217407   2.191   0.514   0.472  0.7797  0.2225  0.6622
 5815TIP3   OH217408   4.695   4.210   1.916 -0.9235 -0.3079 -0.0685
 5815TIP3    H117409   4.668   4.195   2.006 -1.0641  0.1860 -0.0287
 5815TIP3    H217410   4.720   4.302   1.912 -1.7098 -0.1108 -0.7314
 5816TIP3   OH217411   0.559   6.750   4.696  0.8288  0.4070  0.1749
 5816TIP3    H117412   0.504   6.806   4.640 -0.9409 -0.5007  0.9432
 5816TIP3    H217413   0.499   6.715   4.762  1.4849 -3.4973 -1.0367
 5817TIP3   OH217414   4.136   1.296   1.140  0.5884  0.4646 -0.0480
 5817TIP3    H117415   4.083   1.372   1.164 -2.1240 -0.5518 -2.2440
 5817TIP3    H217416   4.170   1.263   1.223 -2.2029  1.2863  1.5569
 5818TIP3   OH217417   5.991   5.635   5.622  0.1900 -0.2503  0.5826
 5818TIP3    H117418   6.027   5.717   5.655 -1.0633  0.6941 -0.2835
 5818TIP3    H217419   5.918   5.662   5.565 -1.3733 -2.0145  1.6311
 5819TIP3   OH217420   4.022   6.709   0.393 -0.2685 -0.3636  0.6926
 5819TIP3    H117421   4.011   6.705   0.488 -0.5613  0.9503  0.7341
 5819TIP3    H217422   4.053   6.622   0.368 -1.3121 -1.0868  1.8374
 5820TIP3   OH217423   5.725   4.754   1.754  0.2037 -0.5913  0.4557
 5820TIP3    H117424   5.722   4.810   1.676 -0.6871 -0.8771  0.2785
 5820TIP3    H217425   5.734   4.665   1.719 -1.5384 -0.8587  0.6071
 5821TIP3   OH217426   6.718   4.162   0.229  0.4692 -0.1924 -0.2763
 5821TIP3    H117427   6.649   4.128   0.286  2.0074  0.3944  2.1182
 5821TIP3    H217428   6.736   4.249   0.264  1.0923  0.4540 -2.1055
 5822TIP3   OH217429   4.874   4.092   4.857  0.2938 -0.2746 -0.5874
 5822TIP3    H117430   4.839   4.097   4.946  0.5734 -0.9144 -0.4347
 5822TIP3    H217431   4.932   4.168   4.850  1.7976 -1.2525  0.4746
 5823TIP3   OH217432   5.825   1.533   1.198 -0.2926  0.3911 -0.3479
 5823TIP3    H117433   5.738   1.518   1.234 -0.1271  0.9915  0.3382
 5823TIP3    H217434   5.872   1.578   1.268  0.5661  0.0826 -0.7162
 5824TIP3   OH217435   1.746   2.390   4.859  0.6616  0.1598  0.2264
 5824TIP3    H117436   1.684   2.442   4.809 -2.1138 -2.7766  0.3528
 5824TIP3    H217437   1.734   2.419   4.950  0.7331  0.7459  0.0538
 5825TIP3   OH217438   5.638   2.399   4.607 -0.3359  0.1230 -0.4604
 5825TIP3    H117439   5.552   2.435   4.586  0.7094  1.4039 -2.9145
 5825TIP3    H217440   5.684   2.471   4.651 -0.5074 -0.5960  0.9558
 5826TIP3   OH217441   5.315   6.551   3.352  0.7209 -0.7621  0.1823
 5826TIP3    H117442   5.316   6.629   3.408 -1.4905 -0.4105 -0.1694
 5826TIP3    H217443   5.403   6.516   3.359  1.7465  1.6496  0.5206
 5827TIP3   OH217444   0.776   4.574   1.037  0.2657 -0.3957  0.4268
 5827TIP3    H117445   0.850   4.572   0.977 -0.2513  0.8814 -0.3089
 5827TIP3    H217446   0.809   4.620   1.114  0.5988 -0.9815  0.6351
 5828TIP3   OH217447   4.582   1.280   0.416 -0.3657 -0.4263 -0.2552
 5828TIP3    H117448   4.597   1.280   0.321  1.5304 -0.8949  0.0051
 5828TIP3    H217449   4.537   1.198   0.433  0.3677 -0.9117 -0.6157
 5829TIP3   OH217450   0.139   4.156   3.152  0.7533 -0.2685 -0.0505
 5829TIP3    H117451   0.220   4.146   3.102 -0.2484 -0.5153 -1.7205
 5829TIP3    H217452   0.097   4.233   3.113  0.1735 -0.1681  0.7698
 5830TIP3   OH217453   3.505   5.878   3.323  0.0812 -0.1800  0.2938
 5830TIP3    H117454   3.533   5.787   3.333  0.9694  0.2679  2.3443
 5830TIP3    H217455   3.569   5.928   3.373  0.2317  1.7117 -1.6415
 5831TIP3   OH217456   4.065   2.293   5.317 -0.9823  0.5328 -0.0849
 5831TIP3    H117457   4.038   2.278   5.227 -0.6153  0.3340 -0.1617
 5831TIP3    H217458   4.160   2.302   5.313 -0.9371  0.2705  0.3151
 5832TIP3   OH217459   3.449   0.655   0.217 -0.0336  0.3807 -0.5398
 5832TIP3    H117460   3.531   0.619   0.253 -0.3255 -0.3361 -0.5635
 5832TIP3    H217461   3.381   0.596   0.250 -0.6179  1.3645  0.0256
 5833TIP3   OH217462   3.945   1.587   5.724  0.0794  0.0568 -0.3462
 5833TIP3    H117463   4.006   1.612   5.793 -0.3983  0.2548  0.0052
 5833TIP3    H217464   3.956   1.655   5.657 -1.5320  1.5032  0.7914
 5834TIP3   OH217465   6.620   0.955   3.097  0.0028  0.2646  0.1913
 5834TIP3    H117466   6.528   0.956   3.125  0.1768 -1.4411  0.9031
 5834TIP3    H217467   6.652   0.869   3.122  1.5044  0.4207 -1.0686
 5835TIP3   OH217468   2.138   6.091   1.494 -0.5425 -0.0986 -0.1057
 5835TIP3    H117469   2.129   5.999   1.521 -1.4540 -0.1866 -0.6596
 5835TIP3    H217470   2.178   6.134   1.569  1.3206 -1.2320 -0.3687
 5836TIP3   OH217471   6.998   3.607   4.964 -0.1771  0.0714 -0.1934
 5836TIP3    H117472   7.051   3.685   4.951 -0.6360  0.5408  0.6164
 5836TIP3    H217473   6.988   3.569   4.877 -0.0885  1.0206 -0.6275
 5837TIP3   OH217474   3.942   3.524   0.428 -0.3216  0.6496  0.0151
 5837TIP3    H117475   3.996   3.467   0.481  0.4293  0.2176 -1.1852
 5837TIP3    H217476   3.947   3.488   0.340  0.7341  2.9220 -0.9418
 5838TIP3   OH217477   1.622   5.620   1.616 -0.3190 -0.0178  0.3346
 5838TIP3    H117478   1.699   5.584   1.660  1.0026 -0.6528 -2.2763
 5838TIP3    H217479   1.658   5.667   1.540 -2.3658  2.1900  0.6388
 5839TIP3   OH217480   5.508   5.326   1.479 -0.1277  0.4936  0.0793
 5839TIP3    H117481   5.600   5.301   1.487 -0.1968  0.6424  1.9967
 5839TIP3    H217482   5.509   5.422   1.481 -0.2921  0.5068 -0.4363
 5840TIP3   OH217483   4.448   5.211   1.656  0.8787  0.0059 -0.0273
 5840TIP3    H117484   4.379   5.164   1.610  0.5822  2.2092 -2.0471
 5840TIP3    H217485   4.529   5.166   1.631  0.3772 -1.6065  1.0708
 5841TIP3   OH217486   2.331   6.285   5.670  0.0835 -0.0766 -0.5668
 5841TIP3    H117487   2.367   6.199   5.691  1.4998  0.5736 -0.2016
 5841TIP3    H217488   2.379   6.346   5.727  0.0626  1.1009 -1.7445
 5842TIP3   OH217489   1.626   3.883   1.826  0.2346  0.4394  0.1328
 5842TIP3    H117490   1.544   3.870   1.780 -0.6441  0.8808  1.4993
 5842TIP3    H217491   1.600   3.911   1.914  1.8279 -0.1883  0.8517
 5843TIP3   OH217492   4.522   4.673   3.173 -0.0265 -0.4186 -0.3711
 5843TIP3    H117493   4.600   4.644   3.220  0.2600 -0.2573 -0.7329
 5843TIP3    H217494   4.518   4.767   3.189 -0.2282 -0.4497 -0.2369
 5844TIP3   OH217495   2.551   2.827   3.893 -0.0804  0.3741 -0.4614
 5844TIP3    H117496   2.467   2.781   3.890 -0.9714  1.8329  1.1169
 5844TIP3    H217497   2.530   2.918   3.875  1.1560  0.7681 -0.0118
 5845TIP3   OH217498   5.563   5.087   0.022  0.4056  0.2727  0.8318
 5845TIP3    H117499   5.487   5.078   0.079 -0.5480  0.3619 -0.3930
 5845TIP3    H217500   5.622   5.018   0.050 -1.5913 -2.1064 -0.4347
 5846TIP3   OH217501   0.298   0.529   1.618 -0.2702 -0.0529 -0.0474
 5846TIP3    H117502   0.338   0.531   1.531 -0.0793 -2.7602 -0.1258
 5846TIP3    H217503   0.247   0.609   1.623  1.4187  1.2337 -1.7837
 5847TIP3   OH217504   2.942   2.245   5.432  0.4133  0.3455  0.0683
 5847TIP3    H117505   3.013   2.254   5.495  1.1609  1.0367 -0.8388
 5847TIP3    H217506   2.911   2.334   5.418 -0.1851  0.1207 -0.0422
 5848TIP3   OH217507   3.989   5.511   2.596 -0.6113 -0.4120  0.1705
 5848TIP3    H117508   3.987   5.467   2.511 -2.0546 -0.5617  0.2565
 5848TIP3    H217509   3.932   5.458   2.652  0.7445 -0.6186  1.4117
 5849TIP3   OH217510   2.985   2.679   5.756  0.1585 -0.6171  0.0951
 5849TIP3    H117511   2.976   2.773   5.769  0.7027 -0.6033  0.4143
 5849TIP3    H217512   3.076   2.667   5.730  0.0279 -1.0312 -0.1787
 5850TIP3   OH217513   4.443   4.640   2.185 -0.1037  0.0903  0.2134
 5850TIP3    H117514   4.420   4.548   2.201  0.9406 -0.4317 -1.0630
 5850TIP3    H217515   4.394   4.689   2.250 -0.7240 -1.3763  0.8918
 5851TIP3   OH217516   2.900   5.541   2.384  0.3838  0.5613 -0.3806
 5851TIP3    H117517   2.928   5.480   2.452 -1.3874  0.4925  0.3315
 5851TIP3    H217518   2.861   5.485   2.317  1.4501  0.6949 -1.1474
 5852TIP3   OH217519   5.124   0.200   1.827  0.2316  0.0491 -0.2873
 5852TIP3    H117520   5.219   0.189   1.823  0.2323 -1.0469  1.7314
 5852TIP3    H217521   5.091   0.142   1.758  0.9661 -0.8815  0.1222
 5853TIP3   OH217522   3.541   5.532   5.336 -0.0781  0.2054  0.4862
 5853TIP3    H117523   3.516   5.496   5.421 -0.5961  2.8904  1.5607
 5853TIP3    H217524   3.637   5.536   5.338 -0.1315  1.9200  1.7653
 5854TIP3   OH217525   6.011   1.000   0.680 -0.1077 -0.0331  0.2870
 5854TIP3    H117526   6.106   0.996   0.676  0.1683  3.4625 -2.4845
 5854TIP3    H217527   5.982   0.917   0.642  2.0219  0.2814 -2.3555
 5855TIP3   OH217528   5.263   5.773   0.839  0.2558  0.4473  0.0685
 5855TIP3    H117529   5.279   5.834   0.767  0.8278  0.7880  0.4785
 5855TIP3    H217530   5.214   5.702   0.799 -0.1789  1.0384 -0.4794
 5856TIP3   OH217531   6.975   3.998   1.755  0.1686 -0.1527  0.2180
 5856TIP3    H117532   6.974   3.924   1.815  1.7518 -1.5749 -1.3781
 5856TIP3    H217533   6.960   3.959   1.669 -2.0591  1.8144 -0.3772
 5857TIP3   OH217534   6.634   1.029   0.679  0.1147  0.1777 -0.2053
 5857TIP3    H117535   6.666   1.070   0.599  0.6165  1.3391  0.5700
 5857TIP3    H217536   6.578   1.095   0.720  0.1084 -0.2841  0.5658
 5858TIP3   OH217537   5.143   1.490   1.575  0.3202  0.1906 -0.6239
 5858TIP3    H117538   5.189   1.440   1.508 -1.2470 -0.7851 -1.0301
 5858TIP3    H217539   5.109   1.567   1.528  0.8022  0.4730 -0.5149
 5859TIP3   OH217540   0.500  -0.024   3.548  0.0938  0.3801 -0.3869
 5859TIP3    H117541   0.437   0.044   3.524 -1.9362 -1.5899 -0.9345
 5859TIP3    H217542   0.538   0.006   3.631 -3.3614  0.5674  1.2746
 5860TIP3   OH217543   6.704   2.010   0.080  0.0721 -0.1197 -0.0214
 5860TIP3    H117544   6.772   2.008   0.012 -1.2609 -1.0159 -1.3957
 5860TIP3    H217545   6.749   2.044   0.158  1.8376  0.2415 -1.1361
 5861TIP3   OH217546   4.322   1.423   1.458  0.1323 -0.2795  0.0829
 5861TIP3    H117547   4.279   1.343   1.427 -1.4666  0.1067  1.1648
 5861TIP3    H217548   4.249   1.480   1.485  1.3043  0.9081  0.8409
 5862TIP3   OH217549   6.793   6.634   3.593 -0.3916  0.5679 -0.1494
 5862TIP3    H117550   6.702   6.609   3.609 -0.3926  0.4962 -0.2674
 5862TIP3    H217551   6.844   6.580   3.653 -0.5633  2.1376  1.5226
 5863TIP3   OH217552   1.204   4.798   5.800 -0.2229  0.1582 -0.2893
 5863TIP3    H117553   1.235   4.796   5.890  0.8214 -0.5404 -0.6446
 5863TIP3    H217554   1.277   4.763   5.749 -0.9801  0.0935 -1.3534
 5864TIP3   OH217555   1.122   6.642   2.086 -0.4266 -0.3339 -0.5654
 5864TIP3    H117556   1.161   6.730   2.089 -1.5181  0.1452  0.1474
 5864TIP3    H217557   1.066   6.644   2.008 -0.7254 -0.2692 -0.3512
 5865TIP3   OH217558   6.172   5.099   0.922 -0.3904  0.2819  0.3179
 5865TIP3    H117559   6.241   5.157   0.888 -1.1719  1.3877  0.5553
 5865TIP3    H217560   6.219   5.030   0.968  0.5677  0.9716  0.4045
 5866TIP3   OH217561   6.148   0.700   4.978 -0.2007 -0.0404  0.6539
 5866TIP3    H117562   6.068   0.739   5.011  0.2713  2.3026 -0.7221
 5866TIP3    H217563   6.119   0.625   4.926 -1.3817  0.0355  1.1862
 5867TIP3   OH217564   1.430   6.597   5.147 -0.4939  0.8218  0.2375
 5867TIP3    H117565   1.475   6.668   5.101  2.2020 -0.7033  0.3164
 5867TIP3    H217566   1.391   6.544   5.077 -1.0892  1.4558  0.0819
 5868TIP3   OH217567   6.736   0.701   4.510 -0.0394 -0.0304  0.2497
 5868TIP3    H117568   6.785   0.621   4.489  1.0887  1.2395 -2.3520
 5868TIP3    H217569   6.645   0.673   4.508  0.0906 -0.7821 -3.8269
 5869TIP3   OH217570   4.020   0.592   3.517  0.0009 -0.0259  0.0647
 5869TIP3    H117571   4.027   0.520   3.579  1.3576 -0.5464 -0.6626
 5869TIP3    H217572   4.029   0.551   3.431 -1.3443  0.7436 -0.4746
 5870TIP3   OH217573   0.498   3.179   0.292  0.4153  0.0592  0.0434
 5870TIP3    H117574   0.473   3.095   0.253  0.6608 -1.6111  3.1715
 5870TIP3    H217575   0.590   3.169   0.315 -0.2210  0.0273  2.9627
 5871TIP3   OH217576   3.189   5.561   3.375 -0.0237  0.0764  0.6097
 5871TIP3    H117577   3.104   5.572   3.416 -0.9353 -0.1727 -1.1433
 5871TIP3    H217578   3.251   5.592   3.440 -1.2388 -1.8997  2.8773
 5872TIP3   OH217579   1.445   0.840   1.486  0.0786  0.0005  0.2431
 5872TIP3    H117580   1.479   0.925   1.515 -0.0656  0.8143 -1.7510
 5872TIP3    H217581   1.447   0.785   1.564  1.7683  1.3321  1.2179
 5873TIP3   OH217582   2.726   5.452   2.178 -0.3355  0.3204 -0.3393
 5873TIP3    H117583   2.637   5.486   2.188  0.1362  1.5142 -0.0775
 5873TIP3    H217584   2.724   5.402   2.097 -0.9286  1.4056 -1.0129
 5874TIP3   OH217585   6.781   6.140   1.002  0.0041  0.6301  0.4263
 5874TIP3    H117586   6.774   6.133   1.097  0.1208  1.0060  0.4641
 5874TIP3    H217587   6.775   6.234   0.984  3.0516  0.9350  0.3479
 5875TIP3   OH217588   4.483   1.077   4.250  0.6681  0.0657 -0.3391
 5875TIP3    H117589   4.396   1.065   4.212  0.4683  2.2171 -0.6928
 5875TIP3    H217590   4.525   0.991   4.242 -1.0469 -0.7480 -1.1014
 5876TIP3   OH217591   5.543   1.480   0.618  0.2957 -0.0984  0.4108
 5876TIP3    H117592   5.543   1.436   0.703  2.7105  0.5873  0.8405
 5876TIP3    H217593   5.523   1.571   0.638  0.0991 -0.0809  0.1430
 5877TIP3   OH217594   4.423   1.677   4.172  0.3662 -0.4188 -0.0671
 5877TIP3    H117595   4.365   1.729   4.117 -0.8657 -0.4720  1.1345
 5877TIP3    H217596   4.509   1.719   4.163 -0.4077  1.3229  0.2177
 5878TIP3   OH217597   4.077   0.263   2.600  0.3398  0.2855  0.5093
 5878TIP3    H117598   4.069   0.343   2.652  0.5113  0.3350  0.4592
 5878TIP3    H217599   4.100   0.195   2.664  0.7744  0.3893  0.4673
 5879TIP3   OH217600   3.869   5.200   3.626 -0.2473 -0.5365 -0.2156
 5879TIP3    H117601   3.883   5.184   3.533 -0.0410 -2.2436  0.0864
 5879TIP3    H217602   3.777   5.182   3.641 -0.2900 -0.2292 -0.0896
 5880TIP3   OH217603   0.843   5.115   4.957 -0.5132  0.5288  0.5376
 5880TIP3    H117604   0.842   5.023   4.983 -0.4261  0.5761  0.7107
 5880TIP3    H217605   0.790   5.118   4.877 -0.0826  0.2444  0.2408
 5881TIP3   OH217606   3.604   1.241   3.485 -0.0036 -0.5329 -0.1413
 5881TIP3    H117607   3.639   1.180   3.549 -0.0899  0.1849  0.6108
 5881TIP3    H217608   3.658   1.228   3.407  0.8633 -0.5929  0.4584
 5882TIP3   OH217609   0.399   0.074   0.328 -0.1272  0.4023 -0.7338
 5882TIP3    H117610   0.312   0.094   0.293 -0.7986 -0.7026  0.2265
 5882TIP3    H217611   0.394   0.101   0.420  0.2871 -0.3346 -0.4861
 5883TIP3   OH217612   6.881   4.571   2.403  0.0414  0.4845  0.4000
 5883TIP3    H117613   6.801   4.566   2.456 -0.3027  1.6242  0.0202
 5883TIP3    H217614   6.947   4.607   2.462  0.4434 -0.9702  0.8742
 5884TIP3   OH217615   5.232   6.437   2.742  0.5340 -0.0541  0.0812
 5884TIP3    H117616   5.276   6.353   2.735  0.3522 -0.1066 -0.4399
 5884TIP3    H217617   5.303   6.500   2.756  0.8142 -0.1000 -1.0357
 5885TIP3   OH217618   0.573   5.331   5.721 -0.1126  0.2019 -0.4975
 5885TIP3    H117619   0.613   5.257   5.766 -0.5173 -1.3047 -2.4550
 5885TIP3    H217620   0.644   5.395   5.712  1.1087 -1.2018 -1.3547
 5886TIP3   OH217621   5.137   5.291   4.442 -0.1556  0.8778  0.0592
 5886TIP3    H117622   5.187   5.234   4.500  0.2002  0.8380 -0.2795
 5886TIP3    H217623   5.202   5.351   4.406 -0.7361  2.4653  1.5198
 5887TIP3   OH217624   4.662   0.257   2.435  0.6652 -0.7885  0.0102
 5887TIP3    H117625   4.595   0.306   2.482  0.6487 -1.1260  0.3371
 5887TIP3    H217626   4.616   0.182   2.397  0.7051 -0.5966 -0.4332
 5888TIP3   OH217627   4.388   1.598   2.295  0.2319 -0.4875  0.6134
 5888TIP3    H117628   4.321   1.534   2.319 -0.1134 -0.3589  0.0046
 5888TIP3    H217629   4.345   1.683   2.302 -0.2392 -0.4985 -1.5181
 5889TIP3   OH217630   6.766   2.141   0.752  0.3956 -0.2074 -0.1280
 5889TIP3    H117631   6.814   2.076   0.803 -2.8381  0.0339  3.6814
 5889TIP3    H217632   6.699   2.091   0.705  2.0894 -0.1894 -2.7515
 5890TIP3   OH217633   5.849   1.235   2.786 -0.5001 -0.6730 -0.1712
 5890TIP3    H117634   5.755   1.253   2.796 -0.3196  1.0426 -1.1550
 5890TIP3    H217635   5.873   1.188   2.865 -1.6997  1.0319  1.2758
 5891TIP3   OH217636   5.394   6.062   4.198 -0.0641  0.1587 -0.0478
 5891TIP3    H117637   5.476   6.013   4.199  1.1769  2.1376 -0.2115
 5891TIP3    H217638   5.390   6.102   4.111  0.1081  2.1126  0.7920
 5892TIP3   OH217639   4.588   2.717   2.870  0.2174 -0.2123  0.3160
 5892TIP3    H117640   4.546   2.660   2.935  1.3354 -0.5332  0.7880
 5892TIP3    H217641   4.516   2.748   2.815 -0.7889  0.2689  1.8510
 5893TIP3   OH217642   3.508   6.736   5.636 -0.4584  0.1873  0.1321
 5893TIP3    H117643   3.435   6.701   5.687 -1.7261  0.8859 -1.1312
 5893TIP3    H217644   3.581   6.741   5.698 -1.6111 -0.0802  1.5471
 5894TIP3   OH217645   1.286   3.103   3.099  0.3585 -0.0392 -0.5065
 5894TIP3    H117646   1.367   3.139   3.136  0.2699  0.6647 -0.9861
 5894TIP3    H217647   1.311   3.014   3.072  0.4888 -0.4914  0.9823
 5895TIP3   OH217648   6.575   1.933   3.104  0.8383 -0.3246 -0.2128
 5895TIP3    H117649   6.550   1.922   3.195  0.9173 -3.3372 -0.4738
 5895TIP3    H217650   6.603   2.025   3.098  1.2484 -0.1562  2.8489
 5896TIP3   OH217651   4.098   5.862   3.413  0.3827  0.1787  0.3794
 5896TIP3    H117652   4.095   5.836   3.505 -0.2569 -0.8518  0.0835
 5896TIP3    H217653   4.102   5.958   3.415 -0.3852  0.2005  1.4632
 5897TIP3   OH217654   5.494   1.809   5.363 -0.1169  0.8129 -0.1939
 5897TIP3    H117655   5.424   1.757   5.402 -2.4616  3.6214 -0.3672
 5897TIP3    H217656   5.509   1.767   5.278 -0.6120 -0.6160  0.3865
 5898TIP3   OH217657   3.522   6.395   3.748 -0.6249 -0.4123  0.4741
 5898TIP3    H117658   3.457   6.339   3.789 -1.9187  0.6929  0.0017
 5898TIP3    H217659   3.606   6.356   3.773 -1.4466 -2.0929  0.7816
 5899TIP3   OH217660   4.450   2.799   4.618 -0.3125  0.3914  0.1747
 5899TIP3    H117661   4.394   2.873   4.595  0.7407  0.8189 -1.1104
 5899TIP3    H217662   4.507   2.833   4.687  1.5046  1.4786 -1.7418
 5900TIP3   OH217663   5.306   3.622   0.898 -0.1763  0.0721 -0.3247
 5900TIP3    H117664   5.289   3.559   0.828 -2.1068 -0.1846  0.3295
 5900TIP3    H217665   5.318   3.705   0.852  0.8640 -0.4613 -1.0815
 5901TIP3   OH217666   4.107   1.093   4.711  0.2648 -0.0037 -0.0653
 5901TIP3    H117667   4.022   1.065   4.743 -0.5689  2.7450  0.3994
 5901TIP3    H217668   4.088   1.135   4.626  1.0223  1.1239  0.2928
 5902TIP3   OH217669   4.458   6.639   4.946 -0.3719  0.2343  0.3275
 5902TIP3    H117670   4.531   6.584   4.919  0.0515  0.6864  0.5356
 5902TIP3    H217671   4.437   6.690   4.868  0.3010  0.9343  0.5852
 5903TIP3   OH217672   4.931   5.853   3.232  0.1806  0.4994  0.5388
 5903TIP3    H117673   4.883   5.772   3.213  0.9145  0.4188 -1.1167
 5903TIP3    H217674   4.894   5.918   3.173 -0.2454  1.3518  1.7048
 5904TIP3   OH217675   3.338   4.218   4.183  0.1243 -0.0484  0.5902
 5904TIP3    H117676   3.281   4.157   4.136  0.5476 -1.8168  2.2488
 5904TIP3    H217677   3.426   4.201   4.148  0.6149 -2.1353  2.6138
 5905TIP3   OH217678   4.727   2.457   3.095 -0.8005  0.1210  0.3790
 5905TIP3    H117679   4.802   2.400   3.079  0.4959  1.3227  1.7900
 5905TIP3    H217680   4.685   2.467   3.010 -0.8877 -2.5998  0.0234
 5906TIP3   OH217681   3.374   2.502   1.508  0.6431 -0.3532  0.1760
 5906TIP3    H117682   3.430   2.518   1.432 -0.6341  0.6211 -0.6058
 5906TIP3    H217683   3.403   2.566   1.573  0.0362  0.6146 -0.4728
 5907TIP3   OH217684   3.667   6.451   5.211 -0.3685  0.3152  0.1697
 5907TIP3    H117685   3.613   6.478   5.286 -2.3561 -2.0175 -0.2769
 5907TIP3    H217686   3.729   6.388   5.247  0.3116  1.0162  0.2387
 5908TIP3   OH217687   2.261   2.932   1.703  0.0025 -0.1936  0.1779
 5908TIP3    H117688   2.233   2.854   1.751  0.3315 -0.9248 -0.7827
 5908TIP3    H217689   2.322   2.976   1.763  1.6756 -1.9438 -0.1290
 5909TIP3   OH217690   3.174   0.088   2.630 -0.2067 -0.1831 -0.3007
 5909TIP3    H117691   3.222   0.033   2.568  1.0137  1.5640 -1.0049
 5909TIP3    H217692   3.089   0.046   2.639  0.6397 -2.1229 -0.8339
 5910TIP3   OH217693   6.353   6.256   2.159 -0.3241  0.5866  0.3388
 5910TIP3    H117694   6.290   6.215   2.218  0.2807  1.0393  1.3228
 5910TIP3    H217695   6.345   6.207   2.077 -0.4554 -0.7377  1.1168
 5911TIP3   OH217696   6.519   1.647   5.661  0.2489  0.3244  0.0693
 5911TIP3    H117697   6.517   1.553   5.645  2.8725 -0.3023  2.5960
 5911TIP3    H217698   6.577   1.682   5.593  1.2843 -0.3195  0.5960
 5912TIP3   OH217699   3.575   3.982   1.422  1.2500 -0.3227  0.1089
 5912TIP3    H117700   3.653   4.029   1.451  2.2206 -1.4574 -0.5342
 5912TIP3    H217701   3.591   3.891   1.447 -0.1485 -0.4862  0.4911
 5913TIP3   OH217702   3.924   5.538   2.145  0.1143 -0.5384  0.1126
 5913TIP3    H117703   3.942   5.468   2.207 -1.0400 -0.4975  0.5262
 5913TIP3    H217704   3.833   5.522   2.118 -0.5018  1.3184  0.9312
 5914TIP3   OH217705   2.633   3.881   5.191  0.6528  0.2762 -0.1978
 5914TIP3    H117706   2.671   3.894   5.104 -0.2910  1.6945 -0.4198
 5914TIP3    H217707   2.540   3.869   5.175  0.4632  0.6009  0.6149
 5915TIP3   OH217708   1.468   5.068   5.473 -0.5561 -0.1117  0.4357
 5915TIP3    H117709   1.465   4.985   5.521 -2.3675 -0.0382  0.5055
 5915TIP3    H217710   1.376   5.093   5.461 -0.0661  1.5634 -0.1596
 5916TIP3   OH217711   2.770   5.147   0.289 -0.2310  0.2438  0.2256
 5916TIP3    H117712   2.853   5.194   0.295 -1.4205  2.3939  0.6549
 5916TIP3    H217713   2.774   5.101   0.204  0.1986  2.7859 -1.2220
 5917TIP3   OH217714   2.595   2.793   0.290  0.0872 -0.0264 -0.2809
 5917TIP3    H117715   2.513   2.753   0.261  0.9158 -2.4230  0.3920
 5917TIP3    H217716   2.613   2.751   0.375  0.6823  2.4238  0.8872
 5918TIP3   OH217717   4.263   6.161   4.067 -0.2032  0.5779 -0.7752
 5918TIP3    H117718   4.317   6.216   4.010 -0.3729  0.0769 -1.4308
 5918TIP3    H217719   4.225   6.095   4.008 -2.1318  1.3479 -0.4826
 5919TIP3   OH217720   1.926   5.417   4.610  0.0437  0.3826  0.4689
 5919TIP3    H117721   1.850   5.360   4.622  0.3780 -0.7614 -2.0882
 5919TIP3    H217722   1.978   5.405   4.689 -1.4178 -0.4576  1.3365
 5920TIP3   OH217723   4.801   0.475   5.711 -0.7456 -0.4139  0.1402
 5920TIP3    H117724   4.757   0.399   5.748 -2.8422  0.2680 -0.7844
 5920TIP3    H217725   4.766   0.549   5.762  0.4324  0.0419  0.3139
 5921TIP3   OH217726   6.426   2.626   5.261 -0.1810  0.4895 -0.3049
 5921TIP3    H117727   6.337   2.642   5.230 -0.2622  1.0720  0.1859
 5921TIP3    H217728   6.443   2.534   5.241 -0.9052  0.3633 -0.3809
 5922TIP3   OH217729   4.285   4.010   0.319  0.3631  0.1022  0.0663
 5922TIP3    H117730   4.251   3.945   0.380 -2.1854  0.0365 -1.2776
 5922TIP3    H217731   4.249   4.094   0.350  0.1413  0.2509 -0.5779
 5923TIP3   OH217732   3.116   2.025   5.832 -0.0077  0.2712 -0.1824
 5923TIP3    H117733   3.141   2.093   5.770  2.2951 -1.3622 -1.1957
 5923TIP3    H217734   3.038   1.984   5.793 -0.0670  0.8618 -0.7015
 5924TIP3   OH217735   6.863   3.317   1.035  0.1721 -0.0889  0.3017
 5924TIP3    H117736   6.910   3.234   1.032  0.7326  0.2231  0.3577
 5924TIP3    H217737   6.902   3.364   1.108  0.2292  0.4398 -0.0641
 5925TIP3   OH217738   4.650   2.601   0.053 -0.5488 -0.1130  0.4367
 5925TIP3    H117739   4.595   2.658   0.107 -2.1321 -1.5946  0.5002
 5925TIP3    H217740   4.621   2.618  -0.037  0.8670  1.0894  0.1752
 5926TIP3   OH217741   5.207   4.502   1.226  0.1896  0.1245 -0.5488
 5926TIP3    H117742   5.274   4.499   1.158  0.3530  0.1196 -0.3905
 5926TIP3    H217743   5.195   4.410   1.252  1.4215  0.2731  0.6674
 5927TIP3   OH217744   2.790   1.735   2.693 -0.0859 -0.0428  0.5750
 5927TIP3    H117745   2.755   1.819   2.663  0.3128 -0.0762  0.0083
 5927TIP3    H217746   2.713   1.678   2.697 -0.1162 -0.1024 -0.6086
 5928TIP3   OH217747   3.176   0.870   5.444  0.9818 -0.2914 -0.2991
 5928TIP3    H117748   3.175   0.938   5.377 -0.1162  0.3906  0.3655
 5928TIP3    H217749   3.083   0.850   5.459  1.0824  0.5824  1.9752
 5929TIP3   OH217750   0.875   2.599   5.823  0.1144  0.1993 -0.1614
 5929TIP3    H117751   0.802   2.661   5.822  0.3090  0.4931  1.4436
 5929TIP3    H217752   0.836   2.517   5.854  0.3044  0.1451 -0.0632
 5930TIP3   OH217753   1.833   4.343   2.363 -0.3889 -0.1300 -0.0044
 5930TIP3    H117754   1.900   4.389   2.413  0.9469  0.4819 -2.1961
 5930TIP3    H217755   1.762   4.406   2.355  0.1086  0.4017 -0.3202
 5931TIP3   OH217756   5.857   4.295   1.754 -0.2118 -0.0336 -0.1048
 5931TIP3    H117757   5.950   4.289   1.731  0.4992 -0.9058  2.6073
 5931TIP3    H217758   5.855   4.282   1.849 -3.1721 -0.4155 -0.1292
 5932TIP3   OH217759   0.250   2.673   1.532 -0.3008  0.1542 -0.0166
 5932TIP3    H117760   0.168   2.722   1.535 -1.4004 -1.5873 -0.4768
 5932TIP3    H217761   0.224   2.583   1.516  1.6380 -0.6587  1.0460
 5933TIP3   OH217762   5.728   1.598   1.531  0.0611  0.8018  0.6681
 5933TIP3    H117763   5.686   1.681   1.508 -0.2464  0.9676  1.7609
 5933TIP3    H217764   5.822   1.614   1.520 -0.0803  0.5785 -1.3193
 5934TIP3   OH217765   4.101   3.968   0.920 -0.1777  0.1645  0.2460
 5934TIP3    H117766   4.196   3.979   0.925 -0.1860 -0.0145  0.8452
 5934TIP3    H217767   4.065   4.043   0.967 -0.3263  0.0774  0.2734
 5935TIP3   OH217768   2.706   1.777   5.199  0.2969 -0.0075  0.6317
 5935TIP3    H117769   2.788   1.825   5.213  0.2782 -0.0562  0.9126
 5935TIP3    H217770   2.669   1.816   5.120  0.6185 -0.0223  0.4710
 5936TIP3   OH217771   5.836   6.656   2.260  0.7374  0.4751  0.1005
 5936TIP3    H117772   5.847   6.576   2.312 -1.2154  0.3619  0.3905
 5936TIP3    H217773   5.742   6.669   2.254  0.9760  1.9614 -1.2029
 5937TIP3   OH217774   7.161   3.731   1.663  0.2439  0.1429  0.3597
 5937TIP3    H117775   7.175   3.822   1.691  0.5237  0.3908 -0.5535
 5937TIP3    H217776   7.162   3.735   1.568 -1.9538 -0.4699  0.2428
 5938TIP3   OH217777   5.673   5.417   0.401 -0.1840  0.3050 -0.2560
 5938TIP3    H117778   5.676   5.513   0.405  1.2312  0.3144 -0.8854
 5938TIP3    H217779   5.700   5.395   0.312  0.6533 -0.7106  0.2254
 5939TIP3   OH217780   6.695   4.508   1.521 -0.3671  0.0250  0.4270
 5939TIP3    H117781   6.714   4.441   1.586  2.3683 -0.2284 -0.5085
 5939TIP3    H217782   6.769   4.569   1.526 -1.6916  1.7992 -0.2512
 5940TIP3   OH217783   4.716   4.697   2.837 -0.0845  0.3011  0.3998
 5940TIP3    H117784   4.712   4.781   2.883 -1.7712  0.8014 -0.5626
 5940TIP3    H217785   4.800   4.699   2.792 -0.0487  1.4343  0.4774
 5941TIP3   OH217786   0.924   5.120   0.498 -0.0493 -0.7131 -0.0240
 5941TIP3    H117787   0.958   5.056   0.561 -0.6975 -0.7664  0.2737
 5941TIP3    H217788   1.000   5.143   0.444  0.8509  0.3626  1.6257
 5942TIP3   OH217789   2.492   4.405   4.696  0.0123 -0.0861  0.0430
 5942TIP3    H117790   2.501   4.309   4.701  1.4698 -0.1287 -1.9234
 5942TIP3    H217791   2.400   4.422   4.712 -0.4528 -1.9297 -0.4476
 5943TIP3   OH217792   0.766   1.934   2.374  0.2280 -0.1667  0.2098
 5943TIP3    H117793   0.700   2.001   2.356 -0.6048 -1.0600 -0.2016
 5943TIP3    H217794   0.780   1.938   2.468  0.5928  0.9341  0.1189
 5944TIP3   OH217795   4.697   2.126   5.773 -0.0510 -0.4735  0.7139
 5944TIP3    H117796   4.775   2.114   5.719 -0.0295 -1.5198  0.9563
 5944TIP3    H217797   4.719   2.197   5.833  0.2937  0.0054  0.0267
 5945TIP3   OH217798   4.907   0.837   3.423 -0.0207  0.2785  0.3195
 5945TIP3    H117799   4.952   0.920   3.409 -1.5450  1.3985  1.7559
 5945TIP3    H217800   4.847   0.829   3.349 -0.5646  0.9488  0.6848
 5946TIP3   OH217801   0.939   2.574   1.117  0.9096 -0.0406 -0.4985
 5946TIP3    H117802   0.923   2.482   1.138  3.8270 -0.5103  0.0935
 5946TIP3    H217803   0.916   2.582   1.025 -1.6088 -0.7215 -0.0027
 5947TIP3   OH217804   1.357   3.996   4.065  0.2893 -0.1116  0.1821
 5947TIP3    H117805   1.439   4.031   4.100 -0.0977  0.4180  0.5557
 5947TIP3    H217806   1.337   4.053   3.990 -2.6659  3.4817  3.3099
 5948TIP3   OH217807   5.661   1.525   2.990  0.4877  0.0531 -0.6547
 5948TIP3    H117808   5.595   1.574   2.941  1.4196  1.7013 -0.3109
 5948TIP3    H217809   5.745   1.558   2.958  1.1376  0.8810  1.6681
 5949TIP3   OH217810   2.237   2.396   0.432 -0.7466 -0.0591  0.1883
 5949TIP3    H117811   2.329   2.413   0.415  0.5525 -3.2149  2.9781
 5949TIP3    H217812   2.219   2.441   0.515 -1.7470  0.5411 -0.3378
 5950TIP3   OH217813   1.504   2.510   2.384 -0.1720 -0.1120  0.5767
 5950TIP3    H117814   1.506   2.448   2.457  0.8152 -0.2044  0.4893
 5950TIP3    H217815   1.583   2.489   2.333  0.6890  1.7973  1.0264
 5951TIP3   OH217816   2.796   2.548   3.995 -0.6750 -0.1678 -0.0034
 5951TIP3    H117817   2.850   2.625   3.975 -0.0454 -0.8181 -0.8498
 5951TIP3    H217818   2.825   2.520   4.082  1.4229 -1.3808 -1.0433
 5952TIP3   OH217819   4.162   1.502   5.354  0.6416 -0.5089  0.3016
 5952TIP3    H117820   4.205   1.439   5.296 -1.2998 -0.0292 -1.8354
 5952TIP3    H217821   4.228   1.525   5.418  3.2753 -0.4212 -2.2433
 5953TIP3   OH217822   2.226   3.338   3.259  0.0273  0.1359  0.0804
 5953TIP3    H117823   2.252   3.393   3.334  0.7060 -1.1978  0.8639
 5953TIP3    H217824   2.207   3.401   3.189 -1.3486  1.4730  1.5539
 5954TIP3   OH217825   6.252   3.654   0.317 -0.0284  0.0596  0.0128
 5954TIP3    H117826   6.274   3.570   0.277 -1.2031  0.1791 -0.9378
 5954TIP3    H217827   6.177   3.636   0.372 -0.4707  0.5330 -0.4240
 5955TIP3   OH217828   5.871   0.301   2.501  0.3572  0.7017 -0.3813
 5955TIP3    H117829   5.883   0.359   2.426  0.8426  0.3860 -0.5482
 5955TIP3    H217830   5.943   0.322   2.560  0.5606  0.2355 -0.4619
 5956TIP3   OH217831   2.200   1.355   4.241  0.3273 -0.9894  0.3901
 5956TIP3    H117832   2.216   1.415   4.314 -3.6608  1.8494 -0.7264
 5956TIP3    H217833   2.128   1.300   4.271  0.6139 -1.8253 -0.4147
 5957TIP3   OH217834   5.991   4.158   1.109 -0.0387  0.1929 -0.3200
 5957TIP3    H117835   5.965   4.214   1.181  0.0769 -0.4800  0.2602
 5957TIP3    H217836   5.958   4.071   1.133  1.8523 -0.4877 -0.0292
 5958TIP3   OH217837   4.721   4.300   0.077  0.1780  0.1973 -0.2381
 5958TIP3    H117838   4.630   4.326   0.092 -0.1469  0.1326 -1.9385
 5958TIP3    H217839   4.715   4.217   0.030  1.1031  0.6528 -1.1963
 5959TIP3   OH217840   1.446   1.500   0.307 -0.1679 -0.2684 -0.1645
 5959TIP3    H117841   1.513   1.482   0.241 -0.3348 -1.0113 -0.1454
 5959TIP3    H217842   1.399   1.417   0.317 -1.5809  0.4340 -0.7092
 5960TIP3   OH217843   0.996   6.203   4.466  0.3172  0.2608  0.3866
 5960TIP3    H117844   1.063   6.263   4.434  0.3165 -0.5125 -1.1633
 5960TIP3    H217845   0.920   6.258   4.484  0.4655  0.7881 -0.5639
 5961TIP3   OH217846   6.744   1.701   3.911  0.2448  0.5167 -0.1516
 5961TIP3    H117847   6.689   1.779   3.916  1.6575  1.5396 -0.1157
 5961TIP3    H217848   6.786   1.706   3.825 -0.2103 -0.6108 -0.4639
 5962TIP3   OH217849   7.102   2.016   1.677 -0.2723 -0.3962 -0.0955
 5962TIP3    H117850   7.010   1.990   1.677 -0.3019 -0.2985 -0.5196
 5962TIP3    H217851   7.150   1.934   1.683 -0.3896 -0.4301  0.4137
 5963TIP3   OH217852   0.607   4.441   3.252 -0.3750  0.0341 -0.0512
 5963TIP3    H117853   0.630   4.352   3.281 -0.4468  0.0124 -0.0617
 5963TIP3    H217854   0.665   4.498   3.303  1.1494 -0.1182 -1.5240
 5964TIP3   OH217855   3.813   1.481   3.710 -0.6390  0.1754 -0.3347
 5964TIP3    H117856   3.772   1.566   3.723  0.7647  0.9076 -0.4858
 5964TIP3    H217857   3.748   1.418   3.742 -1.2033  1.3635  0.9858
 5965TIP3   OH217858   3.202   1.989   4.839  0.0286  0.4998 -0.3284
 5965TIP3    H117859   3.275   1.970   4.899 -1.4869  0.2052  1.5131
 5965TIP3    H217860   3.190   2.084   4.847  1.1332  0.8113 -1.8210
 5966TIP3   OH217861   3.138   5.534   1.759 -0.6208  0.2268 -0.0267
 5966TIP3    H117862   3.109   5.577   1.678  1.2322 -0.2250 -0.9774
 5966TIP3    H217863   3.194   5.599   1.802  1.6773 -0.9159 -1.1559
 5967TIP3   OH217864   1.093   6.548   4.753  0.5018 -0.3908  0.4691
 5967TIP3    H117865   1.037   6.601   4.696 -0.7541  1.7853  3.4382
 5967TIP3    H217866   1.047   6.465   4.761  0.2255 -0.3856 -0.8957
 5968TIP3   OH217867   5.735   6.315   0.272  0.1571  0.1451  0.5405
 5968TIP3    H117868   5.690   6.294   0.190 -0.5886 -1.6538  1.3528
 5968TIP3    H217869   5.807   6.252   0.277  1.8789  1.9875  0.0166
 5969TIP3   OH217870   3.157   1.605   3.284  0.4637  0.1222 -0.0661
 5969TIP3    H117871   3.188   1.686   3.325  1.1109  0.5202 -1.2938
 5969TIP3    H217872   3.197   1.535   3.336  1.4430  0.6186 -0.1322
 5970TIP3   OH217873   0.613   3.944   3.547  0.4456 -0.1645 -0.4355
 5970TIP3    H117874   0.659   3.871   3.588  2.1173  1.5934  0.9569
 5970TIP3    H217875   0.608   3.920   3.454  4.4553 -0.3963 -0.7417
 5971TIP3   OH217876   1.533   5.690   3.433 -0.5722  0.0133  0.3254
 5971TIP3    H117877   1.505   5.774   3.470  3.1058  2.7460 -2.3484
 5971TIP3    H217878   1.607   5.663   3.487  1.0274  0.9111 -1.3148
 5972TIP3   OH217879   5.401   0.510   0.929  0.3418 -0.2619 -0.3793
 5972TIP3    H117880   5.407   0.524   0.834 -1.1707  1.9221 -0.2211
 5972TIP3    H217881   5.468   0.567   0.965 -0.7821  0.8998 -0.0576
 5973TIP3   OH217882   4.322   2.730   5.199  0.2164 -0.6642 -0.6604
 5973TIP3    H117883   4.243   2.728   5.253  1.1177 -0.4046  0.7306
 5973TIP3    H217884   4.300   2.678   5.122  0.0105 -4.2679  1.6078
 5974TIP3   OH217885   0.643   2.865   0.430 -0.2291  0.2928 -0.0485
 5974TIP3    H117886   0.705   2.806   0.388 -0.5672  0.3573 -0.6408
 5974TIP3    H217887   0.657   2.949   0.388 -1.9885 -0.1002 -1.5191
 5975TIP3   OH217888   0.272   0.759   4.939  0.1241  0.5151  0.4017
 5975TIP3    H117889   0.283   0.675   4.893 -0.0998  0.0037  1.2514
 5975TIP3    H217890   0.184   0.755   4.975 -0.7953  2.1392 -1.5226
 5976TIP3   OH217891   3.271   5.693   3.832 -0.0412 -0.4506 -0.5841
 5976TIP3    H117892   3.220   5.646   3.898 -0.8792 -0.5158 -1.2508
 5976TIP3    H217893   3.325   5.755   3.882 -0.6775 -0.4753  0.1530
 5977TIP3   OH217894   3.995   1.529   5.001  0.2177 -0.3874  0.3937
 5977TIP3    H117895   4.080   1.537   4.959 -0.2865  0.2818 -0.5351
 5977TIP3    H217896   4.011   1.472   5.077  1.3038 -0.9890 -0.2581
 5978TIP3   OH217897   0.060   1.765   4.402 -0.2644 -0.2147  0.2744
 5978TIP3    H117898   0.013   1.821   4.463 -2.1294  0.2333 -1.4818
 5978TIP3    H217899   0.091   1.692   4.456 -0.5830  0.8558  1.9926
 5979TIP3   OH217900   3.358   4.001   2.744  0.1896 -0.5853 -0.1191
 5979TIP3    H117901   3.433   4.059   2.727 -0.2028  0.0871  0.4050
 5979TIP3    H217902   3.306   4.005   2.663 -0.5180  0.8571  0.3717
 5980TIP3   OH217903   5.516   3.985   3.526 -0.0521  0.0919  0.3821
 5980TIP3    H117904   5.547   4.015   3.440 -0.2274 -0.4187  0.1351
 5980TIP3    H217905   5.530   3.890   3.525 -1.8752 -0.2238  0.1309
 5981TIP3   OH217906   0.585   3.019   2.776 -0.7209  0.1789  0.5297
 5981TIP3    H117907   0.647   2.959   2.817  0.1973 -0.0049 -1.0452
 5981TIP3    H217908   0.636   3.099   2.760 -0.8917  0.0477 -0.7312
 5982TIP3   OH217909   5.370   4.844   0.418 -0.2895  0.4268  0.0318
 5982TIP3    H117910   5.365   4.757   0.456 -0.6774  1.0513  1.5224
 5982TIP3    H217911   5.464   4.864   0.414 -0.0541 -0.9233 -2.5195
 5983TIP3   OH217912   1.886   6.260   4.691 -0.4603  0.2435  0.5404
 5983TIP3    H117913   1.857   6.170   4.708 -0.7506  0.4877  1.3628
 5983TIP3    H217914   1.957   6.250   4.627 -2.3547 -0.3642 -1.6114
 5984TIP3   OH217915   3.211   1.163   4.826 -0.3803 -0.2996  0.2172
 5984TIP3    H117916   3.166   1.231   4.877  0.4020  0.5978 -0.2363
 5984TIP3    H217917   3.187   1.081   4.868 -3.0921  0.0445 -0.5013
 5985TIP3   OH217918   5.315   4.507   5.327 -0.3600 -0.5048  0.1235
 5985TIP3    H117919   5.379   4.469   5.386 -0.8643 -0.4052  0.7431
 5985TIP3    H217920   5.361   4.579   5.284  0.0494 -0.6706  0.2811
 5986TIP3   OH217921   4.426   4.484   3.863 -0.0156 -0.3132  0.4365
 5986TIP3    H117922   4.346   4.502   3.815 -0.2363 -0.5717  0.7009
 5986TIP3    H217923   4.492   4.541   3.823  0.0651 -1.3062 -0.8727
 5987TIP3   OH217924   3.688   5.967   0.318  0.3174  0.1985 -0.5836
 5987TIP3    H117925   3.663   5.970   0.411  1.6280  0.8789 -0.2258
 5987TIP3    H217926   3.741   5.887   0.311  0.1664  0.1133 -0.7698
 5988TIP3   OH217927   2.120   3.644   1.352 -0.4965 -0.2526  0.3697
 5988TIP3    H117928   2.198   3.614   1.306  0.0016 -0.1502  1.1240
 5988TIP3    H217929   2.130   3.739   1.359  0.2408 -0.4124  2.0697
 5989TIP3   OH217930   7.180   6.550   3.852 -0.6523 -0.1198  0.6904
 5989TIP3    H117931   7.241   6.620   3.828 -0.0312 -0.7120  0.5152
 5989TIP3    H217932   7.191   6.484   3.783 -0.7328 -0.7009  1.2284
 5990TIP3   OH217933   5.822   6.404   5.858 -0.3151 -0.0141 -0.3140
 5990TIP3    H117934   5.852   6.356   5.935  0.1411  1.5616  0.5465
 5990TIP3    H217935   5.745   6.356   5.828 -1.6584  0.3211  2.2598
 5991TIP3   OH217936   3.892   4.385   0.330  0.2800 -0.6790  0.1077
 5991TIP3    H117937   3.823   4.319   0.329 -0.2379 -0.1477 -0.1030
 5991TIP3    H217938   3.874   4.436   0.409  0.6395 -0.7508  0.2368
 5992TIP3   OH217939   3.618   0.081   5.718 -0.1657  0.3344 -0.4396
 5992TIP3    H117940   3.693   0.072   5.660 -0.5593 -2.5169 -0.6387
 5992TIP3    H217941   3.542   0.062   5.663 -0.9735  1.8218  0.0858
 5993TIP3   OH217942   0.581   1.721   2.455 -0.4695 -0.2295 -0.0881
 5993TIP3    H117943   0.561   1.724   2.362 -1.0113 -0.1826  0.0232
 5993TIP3    H217944   0.661   1.773   2.465 -1.0245  0.7113 -0.3785
 5994TIP3   OH217945   5.059   1.070   3.355  0.0458  0.4684 -0.3701
 5994TIP3    H117946   5.098   1.129   3.291 -0.5168  3.1159  1.5260
 5994TIP3    H217947   5.048   1.124   3.433 -1.4324 -1.9451  1.2345
 5995TIP3   OH217948   0.131   5.932   0.067  0.0078  0.2667 -0.2567
 5995TIP3    H117949   0.116   5.939   0.162 -1.3027 -0.3988 -0.3816
 5995TIP3    H217950   0.080   6.004   0.030 -1.4613 -0.8829 -0.5771
 5996TIP3   OH217951   6.717   2.493   2.881  0.2646  0.1517 -0.4765
 5996TIP3    H117952   6.652   2.425   2.862  0.6259  0.4931 -3.4192
 5996TIP3    H217953   6.701   2.516   2.972 -0.6726 -2.9906  0.3059
 5997TIP3   OH217954   3.364   5.133   5.508  0.4817  0.2835 -0.7309
 5997TIP3    H117955   3.420   5.156   5.434 -0.7353 -1.5641 -2.3313
 5997TIP3    H217956   3.288   5.089   5.468  0.2612 -1.7264  1.6674
 5998TIP3   OH217957   4.680   1.805   0.444 -0.0352 -0.1941  0.2396
 5998TIP3    H117958   4.658   1.712   0.439 -2.1404  0.3152 -1.8562
 5998TIP3    H217959   4.746   1.817   0.376 -1.4250  0.1669 -1.1154
 5999TIP3   OH217960   0.410   6.770   5.316  0.1039 -0.4128  0.0628
 5999TIP3    H117961   0.458   6.779   5.234 -0.2007  0.0503 -0.0678
 5999TIP3    H217962   0.318   6.764   5.291  0.1628 -3.1611  0.1874
 6000TIP3   OH217963   4.142   5.900   2.892  0.1531  0.3276 -0.8444
 6000TIP3    H117964   4.107   5.817   2.923  0.5223  0.2487 -0.6345
 6000TIP3    H217965   4.210   5.875   2.830  1.3184  0.4395  0.3472
 6001TIP3   OH217966   2.896   0.890   5.239 -0.0167 -0.4739  0.0904
 6001TIP3    H117967   2.926   0.836   5.165 -0.0298 -0.3159 -0.0296
 6001TIP3    H217968   2.857   0.827   5.299  0.2116 -0.6360  0.0736
 6002TIP3   OH217969   3.445   5.598   0.405 -0.1451 -0.4220  0.1372
 6002TIP3    H117970   3.401   5.571   0.324  0.5666 -1.0378 -0.0568
 6002TIP3    H217971   3.538   5.598   0.382 -0.0728  2.1484  0.1524
 6003TIP3   OH217972   2.979   5.208   3.052  0.5232  0.2059  0.1114
 6003TIP3    H117973   2.934   5.215   3.136 -0.3819  1.4576 -0.4486
 6003TIP3    H217974   3.036   5.131   3.062 -0.8708 -0.7379  1.2582
 6004TIP3   OH217975   0.532   3.515   4.381 -0.1370  0.6094 -0.4333
 6004TIP3    H117976   0.588   3.459   4.327 -0.4428  0.0488 -0.1792
 6004TIP3    H217977   0.586   3.538   4.456  0.0962  0.9231 -0.6906
 6005TIP3   OH217978   0.909   0.007   1.152 -0.3354  0.0851 -0.4501
 6005TIP3    H117979   0.939   0.097   1.160 -1.4286  0.3224  1.3708
 6005TIP3    H217980   0.974  -0.034   1.094  2.1575  1.1563  1.4010
 6006TIP3   OH217981   3.364   2.387   5.378 -0.5237 -0.0924 -0.0474
 6006TIP3    H117982   3.326   2.356   5.460 -0.1720  0.4962  0.3452
 6006TIP3    H217983   3.362   2.310   5.320 -3.1484  0.1195 -0.3699
 6007TIP3   OH217984   7.002   3.903   1.111  0.1743  0.2583 -0.5739
 6007TIP3    H117985   7.060   3.900   1.035  0.0862 -0.4583 -0.6197
 6007TIP3    H217986   6.967   3.815   1.118 -0.4028  0.5133 -0.1478
 6008TIP3   OH217987   1.417   6.498   1.602  0.2565 -0.2165  0.1805
 6008TIP3    H117988   1.388   6.568   1.660  1.4864 -0.1021  0.7026
 6008TIP3    H217989   1.428   6.540   1.517  1.5441  0.3927  0.6203
 6009TIP3   OH217990   5.981   4.244   3.615  0.2352 -0.0692 -0.8408
 6009TIP3    H117991   5.912   4.302   3.585 -0.3954 -0.9634 -1.1648
 6009TIP3    H217992   5.945   4.156   3.603  1.5321 -0.5610 -1.2990
 6010TIP3   OH217993   3.542   1.472   4.144 -0.4322 -0.2124  0.6506
 6010TIP3    H117994   3.460   1.439   4.180 -0.8053  1.0416  1.0155
 6010TIP3    H217995   3.538   1.567   4.157  1.6753 -0.2312  1.9571
 6011TIP3   OH217996   4.588   5.439   5.532  0.2631 -0.5173 -0.4714
 6011TIP3    H117997   4.624   5.525   5.555  1.2913 -1.1472  0.3747
 6011TIP3    H217998   4.617   5.381   5.603  0.0668 -1.6840 -1.3113
 6012TIP3   OH217999   1.550   4.912   2.212  0.1842  0.1723 -0.4791
 6012TIP3    H118000   1.631   4.958   2.192  0.1821  0.1107 -0.6354
 6012TIP3    H218001   1.481   4.977   2.195  0.2179  0.3216 -0.0417
 6013TIP3   OH218002   3.134   0.010   3.980  0.3834  0.1286  0.0682
 6013TIP3    H118003   3.111  -0.055   3.914 -0.2957  0.1518  0.2669
 6013TIP3    H218004   3.070   0.081   3.968 -0.9892 -0.6891  1.9182
 6014TIP3   OH218005   1.082   6.477   2.823  0.2234 -0.2791  0.5679
 6014TIP3    H118006   1.075   6.383   2.839 -1.1645 -0.1949  0.6423
 6014TIP3    H218007   1.174   6.491   2.800 -0.2064 -2.3420 -3.5022
 6015TIP3   OH218008   4.244   6.098   2.181 -0.1027  0.1381 -0.7324
 6015TIP3    H118009   4.302   6.040   2.132  0.2878 -0.5537  0.4917
 6015TIP3    H218010   4.156   6.068   2.160  0.0942 -0.9066 -0.1535
 6016TIP3   OH218011   0.951   5.695   2.131 -0.0074  0.5192 -0.4392
 6016TIP3    H118012   0.912   5.648   2.205  0.5636  0.3488 -0.2448
 6016TIP3    H218013   0.895   5.773   2.121  0.5760  1.1452  0.9137
 6017TIP3   OH218014   5.607   0.144   5.402  0.6352  0.3049  0.6205
 6017TIP3    H118015   5.603   0.196   5.483  0.2030  0.7678  0.3107
 6017TIP3    H218016   5.527   0.168   5.354 -0.1132 -1.4394  0.9274
 6018TIP3   OH218017   2.840   4.195   0.646 -0.5490  0.8200 -0.7325
 6018TIP3    H118018   2.878   4.114   0.613 -0.2546 -0.1095  1.6865
 6018TIP3    H218019   2.750   4.172   0.669 -0.4179  1.1315  0.1040
 6019TIP3   OH218020   4.297   0.192   4.051 -0.5344 -0.0123 -0.5684
 6019TIP3    H118021   4.320   0.114   4.102 -1.4064 -1.0696 -1.7527
 6019TIP3    H218022   4.373   0.248   4.059 -0.2112 -0.6127  0.9972
 6020TIP3   OH218023   5.296   6.007   1.547  0.4253  0.8426 -0.1456
 6020TIP3    H118024   5.300   6.045   1.634  0.7792  0.4848 -0.0035
 6020TIP3    H218025   5.229   6.059   1.501 -2.2398 -1.0385  1.3513
 6021TIP3   OH218026   6.671   3.700   2.675 -0.3132 -0.0246  0.2746
 6021TIP3    H118027   6.595   3.676   2.728 -1.0328 -0.4478 -0.9022
 6021TIP3    H218028   6.687   3.792   2.695 -0.0003 -0.4019  1.8725
 6022TIP3   OH218029   4.125   0.676   3.125 -0.1876  0.0255  0.0867
 6022TIP3    H118030   4.069   0.629   3.063  1.0921  0.3973 -1.4408
 6022TIP3    H218031   4.116   0.629   3.207 -1.5116 -0.8440 -0.5259
 6023TIP3   OH218032   0.431   0.560   2.869 -0.3505  0.0286 -0.2677
 6023TIP3    H118033   0.464   0.570   2.959 -0.8047  3.3480 -0.3417
 6023TIP3    H218034   0.336   0.566   2.878 -0.3756  0.9894 -0.9765
 6024TIP3   OH218035   2.313   5.442   3.354 -0.1320  0.1389  0.2062
 6024TIP3    H118036   2.391   5.474   3.400  0.4686 -1.9218  0.6939
 6024TIP3    H218037   2.268   5.387   3.418 -1.7430  0.8540 -0.2477
 6025TIP3   OH218038   1.492   4.740   1.927 -0.3317 -0.1908 -0.4719
 6025TIP3    H118039   1.452   4.827   1.926  0.2676  0.0993 -1.7849
 6025TIP3    H218040   1.550   4.741   2.003 -1.3184  0.0827  0.2882
 6026TIP3   OH218041   0.202   6.262   1.297 -0.0435  0.3185 -0.3406
 6026TIP3    H118042   0.160   6.320   1.360 -1.0080 -0.7147 -0.0017
 6026TIP3    H218043   0.173   6.295   1.211 -1.9416 -0.6185 -0.1051
 6027TIP3   OH218044   5.362   2.675   5.355 -0.0605 -0.8564 -0.2933
 6027TIP3    H118045   5.422   2.745   5.329  0.2291 -0.2833  1.7529
 6027TIP3    H218046   5.417   2.597   5.359 -0.2485 -1.1083 -1.9352
 6028TIP3   OH218047   5.876   0.635   4.045  0.1115  0.1978 -0.1519
 6028TIP3    H118048   5.797   0.681   4.017 -0.3679 -0.1497  0.5901
 6028TIP3    H218049   5.845   0.571   4.109  0.6801 -1.5528 -1.5535
 6029TIP3   OH218050   3.522   4.734   3.031 -0.4036  0.3119  0.3460
 6029TIP3    H118051   3.538   4.784   3.112  0.6410  0.5569  0.0049
 6029TIP3    H218052   3.442   4.685   3.049  0.3672 -0.4657  1.9354
 6030TIP3   OH218053   3.172   3.178   0.477 -0.1911  0.8255 -0.1433
 6030TIP3    H118054   3.209   3.260   0.510 -2.1238  0.9744  1.9400
 6030TIP3    H218055   3.174   3.187   0.382  2.8104  1.7554 -0.0884
 6031TIP3   OH218056   6.418   2.428   5.834  0.1125 -0.0778 -0.5265
 6031TIP3    H118057   6.494   2.385   5.795 -0.3510 -1.0353 -0.3844
 6031TIP3    H218058   6.378   2.476   5.761  2.1561  2.4258 -0.1494
 6032TIP3   OH218059   0.540   1.733   1.657 -0.1198  0.1318 -0.0670
 6032TIP3    H118060   0.589   1.651   1.649  1.1578  0.7471  1.0316
 6032TIP3    H218061   0.494   1.725   1.740  1.0836  1.0279  0.7268
 6033TIP3   OH218062   5.694   0.403   2.674  0.4494  0.0276  0.3265
 6033TIP3    H118063   5.647   0.453   2.608  0.1951  0.6548  0.9664
 6033TIP3    H218064   5.773   0.371   2.629  0.2642  0.4221 -0.2786
 6034TIP3   OH218065   5.328   4.439   3.997 -0.2430 -0.6782  0.1088
 6034TIP3    H118066   5.321   4.369   4.062 -0.7073  1.0004  1.9696
 6034TIP3    H218067   5.415   4.475   4.010 -1.0274  0.9186  1.2132
 6035TIP3   OH218068   6.472   3.231   3.993  0.3148  0.0557  0.0311
 6035TIP3    H118069   6.550   3.225   4.048 -0.1052 -1.2644  0.5330
 6035TIP3    H218070   6.472   3.320   3.960  1.2115  0.5263  1.2405
 6036TIP3   OH218071   0.037   4.283   0.876  0.1516 -0.4506 -0.0938
 6036TIP3    H118072   0.034   4.331   0.959  2.3946 -2.3449  1.2312
 6036TIP3    H218073   0.099   4.333   0.823 -0.4795  0.1920 -0.2418
 6037TIP3   OH218074   2.769   5.472   0.732 -0.3679  0.3394  1.0333
 6037TIP3    H118075   2.815   5.480   0.649 -1.6099  2.5967  0.4781
 6037TIP3    H218076   2.732   5.384   0.731  0.5857 -0.0857 -0.2536
 6038TIP3   OH218077   3.289   5.516   4.272 -0.6127 -0.1545 -0.0222
 6038TIP3    H118078   3.233   5.574   4.324 -1.3092 -0.8885  0.0639
 6038TIP3    H218079   3.316   5.448   4.333 -0.2619 -0.2415 -0.2699
 6039TIP3   OH218080   0.993   3.884   1.441  0.6106 -0.4279 -0.2822
 6039TIP3    H118081   0.962   3.951   1.380  0.7841  0.6085  0.7225
 6039TIP3    H218082   0.974   3.920   1.528 -0.3880 -2.2334  0.2964
 6040TIP3   OH218083   3.579   5.119   4.628 -0.3102  0.1890  0.5378
 6040TIP3    H118084   3.554   5.207   4.655  0.0587  0.5892 -0.3689
 6040TIP3    H218085   3.588   5.125   4.533  0.4815 -0.6331  0.5457
 6041TIP3   OH218086   0.040   3.673   2.100 -0.5132  0.5041 -0.0693
 6041TIP3    H118087   0.102   3.744   2.117 -2.2712  2.6240 -1.8545
 6041TIP3    H218088   0.009   3.647   2.186  0.2900  1.8057  0.6522
 6042TIP3   OH218089   6.835   0.308   1.211  0.1996 -0.2508 -0.3135
 6042TIP3    H118090   6.818   0.229   1.263 -0.2208  0.6530  0.9904
 6042TIP3    H218091   6.748   0.339   1.186  0.3482 -0.0179 -0.5494
 6043TIP3   OH218092   4.904   3.522   5.271 -0.0436  0.3174  0.2597
 6043TIP3    H118093   4.835   3.543   5.209 -0.4003 -0.8799  0.2418
 6043TIP3    H218094   4.860   3.517   5.356  0.1698  0.3761  0.3755
 6044TIP3   OH218095   3.717   3.043   0.391 -0.2549  0.0269 -0.6284
 6044TIP3    H118096   3.650   3.108   0.408 -0.3324 -0.5782  1.7215
 6044TIP3    H218097   3.792   3.072   0.443  0.0927 -1.1372 -0.4523
 6045TIP3   OH218098   7.193   2.981   3.884 -0.1911  0.7320  0.6187
 6045TIP3    H118099   7.241   2.954   3.962 -1.3292 -1.3076  0.6916
 6045TIP3    H218100   7.163   3.070   3.904  0.3374  0.6033  2.1065
 6046TIP3   OH218101   1.011   0.619   1.291  0.0575 -0.1963  0.1069
 6046TIP3    H118102   1.043   0.528   1.299  0.9107 -0.1443 -2.0188
 6046TIP3    H218103   1.069   0.669   1.348  1.4389 -0.6441 -0.8416
 6047TIP3   OH218104   6.879   2.316   4.065 -0.4878  0.0045  0.3144
 6047TIP3    H118105   6.890   2.300   3.971 -1.6996  0.8307  0.0118
 6047TIP3    H218106   6.823   2.245   4.095  0.6731 -0.8065  0.6324
 6048TIP3   OH218107   6.843   4.545   3.342 -0.2521  0.6043 -1.0478
 6048TIP3    H118108   6.934   4.558   3.313  0.1841  0.4080  0.1361
 6048TIP3    H218109   6.836   4.599   3.421 -1.5038  1.4417 -1.6967
 6049TIP3   OH218110   3.195   3.529   5.330 -0.6948  0.4329  0.0695
 6049TIP3    H118111   3.112   3.576   5.337 -0.2385  1.3034 -0.2116
 6049TIP3    H218112   3.238   3.567   5.254  0.3130  0.5543  0.6911
 6050TIP3   OH218113   0.907   1.379   1.573  0.1576  0.6639 -0.0108
 6050TIP3    H118114   0.873   1.373   1.483 -0.9084 -3.3982  0.4569
 6050TIP3    H218115   1.001   1.364   1.563  0.2148  1.3263 -0.5265
 6051TIP3   OH218116   0.209   6.593   5.479  0.0103  0.3286 -0.2119
 6051TIP3    H118117   0.290   6.606   5.429 -0.6878  0.2834 -1.4064
 6051TIP3    H218118   0.189   6.500   5.468  0.3878  0.0818  1.0398
 6052TIP3   OH218119   3.529   1.912   1.804  0.5500  0.6760 -0.0082
 6052TIP3    H118120   3.477   1.945   1.730 -0.1775 -0.2351  0.0814
 6052TIP3    H218121   3.465   1.899   1.874  1.0242  0.2708  0.3573
 6053TIP3   OH218122   6.015   1.623   3.135  0.3944 -0.3035 -0.0145
 6053TIP3    H118123   5.930   1.627   3.178  0.5868 -0.4095  0.3755
 6053TIP3    H218124   6.071   1.683   3.185  0.3618  0.3066 -0.6946
 6054TIP3   OH218125   3.731   6.259   3.896 -0.0273  0.1284  0.2013
 6054TIP3    H118126   3.730   6.212   3.979  0.8785  1.1369  0.7989
 6054TIP3    H218127   3.754   6.193   3.831  0.5988 -0.3847  0.9378
 6055TIP3   OH218128   5.352   2.992   0.134  0.3264  0.6208  0.5876
 6055TIP3    H118129   5.442   3.024   0.138  1.1910 -0.7136 -3.6422
 6055TIP3    H218130   5.302   3.066   0.098  0.8105 -0.1183 -1.7687
 6056TIP3   OH218131   2.518   5.995   1.138  0.1820  0.2901  0.1939
 6056TIP3    H118132   2.543   5.931   1.205  0.3546  0.2338  0.0783
 6056TIP3    H218133   2.449   6.047   1.178 -1.4759 -1.3308 -0.4375
 6057TIP3   OH218134   4.874   0.986   5.398  0.3737 -0.2080 -0.1444
 6057TIP3    H118135   4.931   1.036   5.457  0.8324  0.5926 -1.2399
 6057TIP3    H218136   4.832   0.922   5.455  2.3852 -0.8591  0.7147
 6058TIP3   OH218137   5.454   5.706   3.945  1.1039  0.0953 -0.0057
 6058TIP3    H118138   5.515   5.764   3.900 -0.6669  1.9801 -0.1391
 6058TIP3    H218139   5.381   5.763   3.970 -0.4539 -1.9684  0.4313
 6059TIP3   OH218140   4.102   5.184   4.070 -0.0164 -0.1968 -0.4260
 6059TIP3    H118141   4.028   5.142   4.025 -0.8380  0.2684  0.4542
 6059TIP3    H218142   4.101   5.274   4.037  1.2628 -0.6243 -1.7239
 6060TIP3   OH218143   6.175   6.536   3.008 -0.1344 -0.2761 -0.2654
 6060TIP3    H118144   6.171   6.552   3.102  0.2896  1.5919 -0.5201
 6060TIP3    H218145   6.093   6.571   2.974 -0.2332 -0.8300 -0.6062
 6061TIP3   OH218146   7.055   3.881   0.416 -0.1206 -0.2583  0.7899
 6061TIP3    H118147   7.110   3.822   0.467  1.1167  0.3506  0.2200
 6061TIP3    H218148   7.079   3.863   0.325 -0.1089  0.7343  0.5843
 6062TIP3   OH218149   4.602   2.110   3.765  0.6375 -0.0200  0.4473
 6062TIP3    H118150   4.587   2.019   3.737  0.8730 -0.0138  0.2987
 6062TIP3    H218151   4.568   2.162   3.692  2.8346 -0.0193 -0.6651
 6063TIP3   OH218152   0.327   0.442   3.949 -0.0672 -0.3582  0.0614
 6063TIP3    H118153   0.353   0.523   3.993  1.1454 -0.3686 -0.5970
 6063TIP3    H218154   0.258   0.406   4.005 -0.1988  0.8133  0.6877
 6064TIP3   OH218155   6.959   2.249   3.135  0.1513 -0.1711  0.0502
 6064TIP3    H118156   7.002   2.326   3.173  0.6753 -0.5513  0.2414
 6064TIP3    H218157   7.019   2.220   3.066  0.5803 -1.1444  0.8096
 6065TIP3   OH218158   1.785   6.686   1.189  0.1131  0.0020 -0.2659
 6065TIP3    H118159   1.712   6.702   1.130  0.2696 -1.0804 -0.7815
 6065TIP3    H218160   1.863   6.697   1.134  0.2395 -1.8775 -0.5281
 6066TIP3   OH218161   4.080   5.485   5.538  0.0629 -0.4082  0.3550
 6066TIP3    H118162   4.004   5.452   5.585 -2.0464  1.5748 -1.4518
 6066TIP3    H218163   4.068   5.453   5.448  0.2819  1.5411 -0.4026
 6067TIP3   OH218164   3.704   0.374   0.075  0.0015  0.8208 -0.1144
 6067TIP3    H118165   3.657   0.306   0.027 -0.5481  0.4018  0.9775
 6067TIP3    H218166   3.749   0.425   0.007  0.9022 -0.9684 -0.9402
 6068TIP3   OH218167   3.429   5.894   5.001  0.1899  0.8116 -0.3235
 6068TIP3    H118168   3.386   5.965   5.049 -0.7666 -0.3123  0.5633
 6068TIP3    H218169   3.487   5.854   5.066 -1.5572 -1.1090  0.1598
 6069TIP3   OH218170   1.298   4.239   4.388 -0.5774 -0.3675  0.0122
 6069TIP3    H118171   1.328   4.281   4.308 -0.8121 -1.0870 -0.4593
 6069TIP3    H218172   1.287   4.147   4.365 -0.5834 -0.6001  0.8882
 6070TIP3   OH218173   7.116   1.453   2.890 -0.4072  0.0648  0.6730
 6070TIP3    H118174   7.070   1.514   2.948 -1.8940 -1.4406  1.1672
 6070TIP3    H218175   7.063   1.451   2.810  0.5798  0.6772 -0.0229
 6071TIP3   OH218176   2.522   6.320   0.937 -0.0311  0.3549 -0.5564
 6071TIP3    H118177   2.437   6.339   0.976 -0.4727 -1.7769 -0.3701
 6071TIP3    H218178   2.508   6.241   0.885  2.0512 -0.7394  0.3919
 6072TIP3   OH218179   2.253   2.230   2.637 -0.8988  0.1741  0.5151
 6072TIP3    H118180   2.160   2.210   2.646 -0.5865 -1.3836  0.4811
 6072TIP3    H218181   2.296   2.145   2.627  0.2735  0.9542 -2.0363
 6073TIP3   OH218182   6.624   2.821   0.975 -0.5126  0.3223  0.5443
 6073TIP3    H118183   6.615   2.913   0.952 -0.4360 -0.0433 -1.0531
 6073TIP3    H218184   6.705   2.793   0.933 -1.3796 -0.8674 -0.4227
 6074TIP3   OH218185   4.354   2.294   4.128  0.0563 -0.3854 -0.6940
 6074TIP3    H118186   4.345   2.259   4.217 -1.1117  1.2460 -0.1231
 6074TIP3    H218187   4.328   2.223   4.071  1.4609 -1.6901  0.2148
 6075TIP3   OH218188   5.918   6.580   3.760 -0.4999 -0.6417  0.0460
 6075TIP3    H118189   5.828   6.551   3.775 -0.7580  1.3252  3.4098
 6075TIP3    H218190   5.971   6.519   3.810 -0.5215  1.0265  2.2395
 6076TIP3   OH218191   2.767   4.333   2.911 -0.3902 -0.1856  0.2000
 6076TIP3    H118192   2.703   4.363   2.846  1.4906  1.3158 -1.0746
 6076TIP3    H218193   2.843   4.389   2.897  1.3752 -2.1495  1.3738
 6077TIP3   OH218194   2.653   0.110   1.846  0.3398  0.1597  0.0836
 6077TIP3    H118195   2.659   0.090   1.939 -1.3751  1.6616  0.5520
 6077TIP3    H218196   2.641   0.024   1.804 -0.0588 -0.4197  1.3395
 6078TIP3   OH218197   0.604   2.585   5.205 -0.0755  0.4592  0.2014
 6078TIP3    H118198   0.678   2.644   5.191 -0.3424  1.0839  1.3177
 6078TIP3    H218199   0.537   2.614   5.143  1.1668 -1.1707 -2.0263
 6079TIP3   OH218200   3.376   5.607   1.256  0.3264 -0.3978  0.0651
 6079TIP3    H118201   3.345   5.672   1.193 -1.0571 -1.9638 -0.9620
 6079TIP3    H218202   3.417   5.539   1.202 -0.3578 -1.4890  0.8748
 6080TIP3   OH218203   3.531   2.754   1.574  0.5230  0.2241  0.6779
 6080TIP3    H118204   3.596   2.691   1.607  0.9543  0.4581  0.2751
 6080TIP3    H218205   3.577   2.838   1.575 -0.5506  0.8577  2.7825
 6081TIP3   OH218206   3.309   4.289   1.930 -0.3198 -0.3401  0.3365
 6081TIP3    H118207   3.363   4.366   1.948  0.0851 -0.5771  0.1600
 6081TIP3    H218208   3.370   4.216   1.936 -0.4789 -0.5530 -0.5366
 6082TIP3   OH218209   5.762   0.146   1.388 -0.0687  0.2896  0.2946
 6082TIP3    H118210   5.714   0.063   1.383  0.2709  0.0966  0.2509
 6082TIP3    H218211   5.709   0.207   1.336  0.1636 -0.1278 -0.4432
 6083TIP3   OH218212   4.312   4.819   5.205  0.2188  0.4118  0.0367
 6083TIP3    H118213   4.218   4.823   5.223  0.1520 -0.9746  0.0945
 6083TIP3    H218214   4.331   4.900   5.157 -1.3636 -0.1462 -1.6471
 6084TIP3   OH218215   1.411   1.212   4.782 -0.4734  0.1542  0.0522
 6084TIP3    H118216   1.358   1.288   4.759  1.6093  1.7195  0.1754
 6084TIP3    H218217   1.397   1.200   4.876 -0.7982  0.4110  0.0362
 6085TIP3   OH218218   6.064   1.651   0.402 -0.4462 -0.5381  0.4346
 6085TIP3    H118219   6.118   1.691   0.333 -1.8039 -1.4127 -1.1941
 6085TIP3    H218220   6.128   1.613   0.462  0.8003  1.1295  0.2534
 6086TIP3   OH218221   4.428   3.359   4.382  0.5932  0.4611 -0.5034
 6086TIP3    H118222   4.440   3.331   4.291 -1.6691 -0.7255 -0.5054
 6086TIP3    H218223   4.468   3.288   4.433 -1.6156 -0.9576 -0.5856
 6087TIP3   OH218224   5.758   4.212   1.287  0.3139  0.1180 -0.0079
 6087TIP3    H118225   5.693   4.160   1.335  0.1720  0.2584 -0.0480
 6087TIP3    H218226   5.733   4.303   1.302  0.3926  0.1676 -0.1750
 6088TIP3   OH218227   1.615   6.346   3.560 -0.4774  0.5234 -0.3441
 6088TIP3    H118228   1.673   6.421   3.568 -1.7454  1.4208  0.7486
 6088TIP3    H218229   1.529   6.383   3.543 -0.9301 -0.7391 -0.9686
 6089TIP3   OH218230   4.969   4.983   1.527  0.4135  0.3019  0.1110
 6089TIP3    H118231   4.966   5.069   1.486  0.2849 -0.3793 -1.3734
 6089TIP3    H218232   5.062   4.965   1.539  0.4241  1.0648  1.4235
 6090TIP3   OH218233   3.072   5.597   2.177  0.0893  0.1712  0.1941
 6090TIP3    H118234   3.156   5.576   2.217 -0.0867 -1.2094 -0.0800
 6090TIP3    H218235   3.010   5.598   2.250 -0.2307 -2.3337  0.0501
 6091TIP3   OH218236   0.404   4.445   2.423  0.2559 -0.1624 -0.2279
 6091TIP3    H118237   0.496   4.420   2.429  0.3251  0.0676 -0.3127
 6091TIP3    H218238   0.397   4.525   2.474 -0.0791 -0.6490  0.4977
 6092TIP3   OH218239   5.863   0.765   4.948 -0.3194 -0.0540  0.0277
 6092TIP3    H118240   5.822   0.717   4.876 -1.7317 -0.6743  1.1795
 6092TIP3    H218241   5.860   0.857   4.921 -2.4494 -0.0900 -0.0119
 6093TIP3   OH218242   1.751   4.188   4.796 -0.1210  0.0922  0.5105
 6093TIP3    H118243   1.708   4.212   4.714  0.4862  1.2956  0.5201
 6093TIP3    H218244   1.765   4.094   4.789 -1.4240 -0.0810 -0.1093
 6094TIP3   OH218245   6.807   2.424   5.884 -0.3839  0.0484  0.5156
 6094TIP3    H118246   6.885   2.402   5.833  0.0744  0.5169  0.9936
 6094TIP3    H218247   6.734   2.392   5.831  0.1481 -0.7976  0.2599
 6095TIP3   OH218248   1.077   3.906   4.801  0.0470  0.1175  0.1348
 6095TIP3    H118249   1.057   3.830   4.856 -0.0854 -0.5123 -0.7615
 6095TIP3    H218250   1.173   3.909   4.799  0.0872  0.9601  1.4679
 6096TIP3   OH218251   4.651   2.179   2.503 -0.0463  0.4830 -0.4476
 6096TIP3    H118252   4.716   2.115   2.472 -2.0240 -1.1596 -1.4513
 6096TIP3    H218253   4.585   2.181   2.434 -1.3106  1.7452  0.7363
 6097TIP3   OH218254   1.520   1.262   2.430  0.2058 -0.3430 -0.1132
 6097TIP3    H118255   1.543   1.180   2.386  1.0916 -0.2715  0.1995
 6097TIP3    H218256   1.529   1.329   2.362 -0.6215 -0.5029 -0.3970
 6098TIP3   OH218257   3.106   5.865   2.627 -0.0839 -0.1005 -0.4122
 6098TIP3    H118258   3.190   5.898   2.660  0.9926 -1.0495 -2.0724
 6098TIP3    H218259   3.124   5.775   2.600 -1.5774 -0.2246 -1.1059
 6099TIP3   OH218260   3.018   1.558   1.370 -0.1224 -0.1095 -0.3877
 6099TIP3    H118261   2.957   1.632   1.366  0.6157  0.5324 -0.0378
 6099TIP3    H218262   2.993   1.512   1.450 -0.8725 -0.5083 -0.8381
 6100TIP3   OH218263   4.391   0.117   1.953 -0.0045  0.0972 -0.2285
 6100TIP3    H118264   4.473   0.121   2.002 -0.6498  1.6605  0.7917
 6100TIP3    H218265   4.392   0.196   1.898 -1.1291  0.5092  0.3177
 6101TIP3   OH218266   2.180   6.769   5.634  0.1339  0.2721 -0.1184
 6101TIP3    H118267   2.253   6.826   5.610  0.1907  0.4112  0.3820
 6101TIP3    H218268   2.131   6.758   5.552  1.2933 -0.6887 -0.7049
 6102TIP3   OH218269   5.383   3.644   1.164  1.0640  0.1098  0.1228
 6102TIP3    H118270   5.457   3.702   1.185  0.1655  1.5052 -0.3872
 6102TIP3    H218271   5.360   3.668   1.074  0.3852 -0.7564  0.0627
 6103TIP3   OH218272   3.782   4.866   4.564  0.8366  0.2499 -0.5621
 6103TIP3    H118273   3.834   4.907   4.495  1.4950 -1.8754 -1.4156
 6103TIP3    H218274   3.846   4.842   4.631  0.4452  0.6789 -0.0245
 6104TIP3   OH218275   0.285   2.377   3.428 -0.4533  0.3851 -0.0412
 6104TIP3    H118276   0.359   2.435   3.408  0.8827 -0.9262  0.8673
 6104TIP3    H218277   0.326   2.292   3.446 -2.1955 -0.3698  0.5451
 6105TIP3   OH218278   3.918   0.885   4.793 -0.5158 -0.3868 -0.6337
 6105TIP3    H118279   3.835   0.849   4.763 -2.4601  2.2895  1.0018
 6105TIP3    H218280   3.947   0.825   4.861 -0.9819 -1.4764 -1.3734
 6106TIP3   OH218281   2.588   3.080   1.327  0.3743  0.0203  0.4407
 6106TIP3    H118282   2.511   3.044   1.370 -0.4511 -0.4237 -1.2834
 6106TIP3    H218283   2.648   3.007   1.319 -0.3922 -0.4984 -1.0734
 6107TIP3   OH218284   5.173   3.526   0.127 -0.0787 -0.4697  0.6174
 6107TIP3    H118285   5.212   3.545   0.213 -0.4420  0.9353  0.5041
 6107TIP3    H218286   5.240   3.553   0.064  0.3790 -1.9478  0.4332
 6108TIP3   OH218287   5.023   0.665   4.251 -0.1515  0.0959  0.2200
 6108TIP3    H118288   5.015   0.569   4.255  0.2923  0.0624  0.3630
 6108TIP3    H218289   5.117   0.681   4.256 -0.1047  0.4672 -1.4172
 6109TIP3   OH218290   2.688   6.005   2.436  0.3788  0.4246  0.2810
 6109TIP3    H118291   2.784   6.007   2.441  0.3473 -0.3750  1.9242
 6109TIP3    H218292   2.667   6.050   2.354  2.2809 -1.7918 -1.5680
 6110TIP3   OH218293   5.099   6.657   3.990  0.2135 -0.1738 -0.0015
 6110TIP3    H118294   5.026   6.598   4.004  1.0073 -1.2292 -0.1786
 6110TIP3    H218295   5.074   6.738   4.035 -0.9301 -0.6051  0.1635
 6111TIP3   OH218296   5.859   4.405   5.874  0.2355 -0.1122  0.6551
 6111TIP3    H118297   5.947   4.380   5.845 -1.0454 -1.0236 -2.9000
 6111TIP3    H218298   5.873   4.489   5.919  2.9347 -0.3576  0.4902
 6112TIP3   OH218299   1.388   6.370   0.546  0.2245 -0.3120 -0.3680
 6112TIP3    H118300   1.447   6.305   0.508 -1.8799 -2.8940  0.5187
 6112TIP3    H218301   1.415   6.376   0.638 -0.8226 -1.5047  0.0414
 6113TIP3   OH218302   4.631   0.059   5.246  0.2499  0.0034  0.2809
 6113TIP3    H118303   4.549   0.109   5.242 -0.2286 -0.7905  0.0571
 6113TIP3    H218304   4.621  -0.010   5.181  0.4807 -1.0066  1.2746
 6114TIP3   OH218305   0.948   5.958   0.269 -0.1969 -0.6032 -0.1635
 6114TIP3    H118306   1.035   5.966   0.307 -0.6942  0.4242  0.7856
 6114TIP3    H218307   0.890   5.949   0.344 -0.9840 -0.6083 -0.7635
 6115TIP3   OH218308   0.015   0.959   4.074 -0.0417 -1.4446 -0.0214
 6115TIP3    H118309  -0.038   1.018   4.129 -1.1709 -0.8598 -1.6610
 6115TIP3    H218310   0.036   1.010   3.996 -0.4896 -2.9746 -1.1982
 6116TIP3   OH218311   2.938   2.886   0.766  0.0832  0.2228 -0.6969
 6116TIP3    H118312   2.854   2.865   0.807  0.3453  2.1829  1.0394
 6116TIP3    H218313   2.918   2.897   0.673 -1.8654  1.7231 -0.1752
 6117TIP3   OH218314   2.465   2.017   4.709 -0.4092 -0.3077 -0.4928
 6117TIP3    H118315   2.387   1.988   4.757 -0.9803  1.3404 -0.3583
 6117TIP3    H218316   2.431   2.050   4.626 -0.2645  2.7166  0.5050
 6118TIP3   OH218317   2.782   0.149   4.613  0.5475  0.2274  0.1708
 6118TIP3    H118318   2.693   0.121   4.631  0.7627 -1.4148 -1.1026
 6118TIP3    H218319   2.806   0.204   4.688 -2.0156  1.9668 -0.1772
 6119TIP3   OH218320   4.260   5.156   2.812  0.0292 -0.0060  0.1581
 6119TIP3    H118321   4.191   5.184   2.752  0.9981  1.6588 -0.2498
 6119TIP3    H218322   4.215   5.139   2.895 -0.6999  2.8459  0.4608
 6120TIP3   OH218323   2.803   4.184   0.319  0.0361  0.0447 -0.1928
 6120TIP3    H118324   2.874   4.159   0.377 -0.5195 -0.1652  0.4058
 6120TIP3    H218325   2.847   4.214   0.239  0.7494 -1.8911 -0.5697
 6121TIP3   OH218326   0.893   1.785   5.120  0.3314  0.1529  0.0599
 6121TIP3    H118327   0.840   1.842   5.064 -0.1936 -0.2649  0.1203
 6121TIP3    H218328   0.862   1.803   5.209 -0.6499 -1.0284 -0.0115
 6122TIP3   OH218329   6.095   6.745   1.111 -0.2208  0.4432 -0.0357
 6122TIP3    H118330   6.061   6.669   1.064 -0.4008  0.7946 -0.4821
 6122TIP3    H218331   6.022   6.775   1.164  0.2435 -0.4870  1.1730
 6123TIP3   OH218332   5.707   5.812   1.684  0.3129  0.2826 -0.2036
 6123TIP3    H118333   5.678   5.732   1.641  2.4683 -1.1847  0.8587
 6123TIP3    H218334   5.742   5.782   1.768  2.8451  2.0501 -0.5275
 6124TIP3   OH218335   0.482   0.463   4.840  0.1391 -0.0382 -0.6795
 6124TIP3    H118336   0.482   0.411   4.921  0.1207  0.2654 -0.4850
 6124TIP3    H218337   0.390   0.461   4.811  0.1783 -0.2928 -0.7858
 6125TIP3   OH218338   2.800   4.864   5.722 -0.3446  0.6061 -0.4114
 6125TIP3    H118339   2.753   4.782   5.712 -0.2531  0.4085  0.6671
 6125TIP3    H218340   2.844   4.877   5.638 -0.1572 -0.5783 -0.5176
 6126TIP3   OH218341   1.149   6.442   2.300 -0.1694  0.1227 -0.0210
 6126TIP3    H118342   1.236   6.413   2.273 -0.2522 -1.1233  0.9536
 6126TIP3    H218343   1.127   6.513   2.239  0.5969 -1.0185 -1.6973
 6127TIP3   OH218344   3.636   1.789   3.350  0.2010 -0.4765  0.0163
 6127TIP3    H118345   3.722   1.825   3.325  1.3755 -2.0831  1.5251
 6127TIP3    H218346   3.653   1.697   3.368 -2.2602 -1.3092 -1.4909
 6128TIP3   OH218347   3.589   0.038   4.647  0.0195 -0.2757  0.1827
 6128TIP3    H118348   3.670   0.066   4.605 -0.8140  1.0036 -0.6440
 6128TIP3    H218349   3.595  -0.058   4.650  1.3094 -0.2230 -0.3588
 6129TIP3   OH218350   3.240   5.302   1.885 -0.4349 -0.1789 -0.4291
 6129TIP3    H118351   3.254   5.388   1.845  2.3415 -1.1655 -1.8638
 6129TIP3    H218352   3.165   5.265   1.837 -1.4859  1.2623  0.0236
 6130TIP3   OH218353   0.514   6.356   2.299  0.8052  0.2035 -0.3083
 6130TIP3    H118354   0.450   6.287   2.283  0.0923  0.6854  0.4301
 6130TIP3    H218355   0.463   6.437   2.299  1.3927  0.5870  0.3767
 6131TIP3   OH218356   7.103   1.336   5.338  0.2294  0.4565  0.0845
 6131TIP3    H118357   7.105   1.293   5.253  1.4111 -0.8752  0.7302
 6131TIP3    H218358   7.195   1.339   5.365 -0.1566  0.4881  1.4771
 6132TIP3   OH218359   5.434   6.191   3.957 -0.5312  0.4147  0.6666
 6132TIP3    H118360   5.488   6.168   3.882  0.4803  0.5636  1.3268
 6132TIP3    H218361   5.345   6.190   3.924 -0.0334  1.4518 -0.7676
 6133TIP3   OH218362   1.397   4.038   3.241 -0.2220 -0.1191  0.1448
 6133TIP3    H118363   1.348   4.101   3.187 -1.1807 -1.1679 -0.2538
 6133TIP3    H218364   1.329   3.984   3.282  0.5186  0.3426  2.0450
 6134TIP3   OH218365   0.197   2.121   2.805  0.3933 -0.1541  0.2926
 6134TIP3    H118366   0.240   2.041   2.773  2.2149  0.6168  0.7065
 6134TIP3    H218367   0.203   2.182   2.731  0.2582  0.0452  0.4455
 6135TIP3   OH218368   1.295   2.780   5.883 -0.3971  0.1954  0.7543
 6135TIP3    H118369   1.226   2.759   5.821 -0.2184 -0.0346  0.6322
 6135TIP3    H218370   1.372   2.734   5.850 -0.4981 -0.5797  1.5813
 6136TIP3   OH218371   4.579   1.938   2.767  0.9273  0.1096 -0.1645
 6136TIP3    H118372   4.581   2.034   2.771  4.3457  0.1342  1.5069
 6136TIP3    H218373   4.528   1.918   2.688  0.6480  3.2981 -0.9294
 6137TIP3   OH218374   3.858   1.582   0.534 -0.1272  0.2861  0.4200
 6137TIP3    H118375   3.844   1.522   0.607  0.1343 -0.8884 -0.4819
 6137TIP3    H218376   3.817   1.664   0.563 -0.1368 -0.1887  1.8260
 6138TIP3   OH218377   4.556   2.392   0.586  0.1527  0.0985  0.1121
 6138TIP3    H118378   4.531   2.343   0.664 -1.6106  0.8024  0.0380
 6138TIP3    H218379   4.642   2.358   0.563 -0.0629 -1.3751  1.3265
 6139TIP3   OH218380   6.255   2.303   0.580 -0.2498  0.5303 -0.0052
 6139TIP3    H118381   6.321   2.371   0.592 -0.2219  1.1934 -3.1299
 6139TIP3    H218382   6.281   2.259   0.499 -3.0323  0.1061 -0.7451
 6140TIP3   OH218383   6.695   0.582   1.963 -0.2034 -0.0645 -0.6563
 6140TIP3    H118384   6.637   0.538   2.025  1.1013  1.8432  2.1206
 6140TIP3    H218385   6.772   0.526   1.958 -0.3127 -0.2247 -0.5459
 6141TIP3   OH218386   1.767   0.113   3.464 -0.2991 -0.6530  0.1908
 6141TIP3    H118387   1.738   0.040   3.409  2.6366 -1.1837 -0.8386
 6141TIP3    H218388   1.747   0.191   3.413  0.8596 -1.0503 -0.9141
 6142TIP3   OH218389   6.435   0.604   3.203 -0.0059 -0.1213  0.3609
 6142TIP3    H118390   6.404   0.647   3.124  0.0303  0.3807  0.6197
 6142TIP3    H218391   6.520   0.643   3.221  0.1908 -0.5600  0.3922
 6143TIP3   OH218392   0.990   3.440   2.358 -0.0616  0.1354  0.0897
 6143TIP3    H118393   1.057   3.397   2.304 -0.0471  0.1607  0.0873
 6143TIP3    H218394   1.040   3.482   2.429 -0.1097 -0.1839  0.3168
 6144TIP3   OH218395   3.564   6.747   4.440 -0.4770  0.2131 -0.2133
 6144TIP3    H118396   3.572   6.765   4.347  2.0842 -1.3760 -0.3972
 6144TIP3    H218397   3.547   6.653   4.446 -0.4911  0.2702  0.9069
 6145TIP3   OH218398   6.017   4.885   0.172  0.1977  0.1830  0.6861
 6145TIP3    H118399   5.982   4.974   0.176  1.4879  0.6835  3.4610
 6145TIP3    H218400   6.112   4.898   0.160  0.0819 -0.9932 -2.2350
 6146TIP3   OH218401   5.034   3.533   4.317  0.2348  0.1132  0.0653
 6146TIP3    H118402   5.001   3.603   4.261 -2.5138 -0.7366  0.4546
 6146TIP3    H218403   5.032   3.455   4.261  0.5776 -0.1622  0.4311
 6147TIP3   OH218404   0.140   4.498   3.407 -0.5236 -0.2461 -0.4467
 6147TIP3    H118405   0.159   4.481   3.500  0.7335  1.3077 -0.3896
 6147TIP3    H218406   0.225   4.492   3.364 -1.0592 -0.6562 -1.4606
 6148TIP3   OH218407   4.639   4.978   0.124  0.0132 -0.4718  0.4054
 6148TIP3    H118408   4.721   4.989   0.173 -0.1200 -1.7900  0.9613
 6148TIP3    H218409   4.663   4.926   0.048 -0.0951  0.1906 -0.0962
 6149TIP3   OH218410   2.502   3.053   4.949 -0.4584  0.0201  0.2496
 6149TIP3    H118411   2.437   3.055   4.879 -0.7348  0.3230  0.5154
 6149TIP3    H218412   2.478   3.126   5.006 -1.3260 -1.3056  1.6478
 6150TIP3   OH218413   1.875   1.964   0.847 -0.3831  0.1231  0.7769
 6150TIP3    H118414   1.835   2.051   0.843 -1.2068 -0.2853 -1.1682
 6150TIP3    H218415   1.965   1.978   0.816  0.7513  0.8399  4.0216
 6151TIP3   OH218416   0.897   2.258   3.148  0.0417 -0.0614 -0.3011
 6151TIP3    H118417   0.855   2.200   3.211 -0.7686 -0.6539 -1.3605
 6151TIP3    H218418   0.863   2.344   3.168 -1.0899 -0.4177 -0.6392
 6152TIP3   OH218419   7.044   2.965   2.465 -0.0099 -0.4419 -0.5600
 6152TIP3    H118420   7.096   2.907   2.410  1.0045 -0.9844  0.9026
 6152TIP3    H218421   7.084   2.958   2.552 -0.3628  1.8260 -0.1406
 6153TIP3   OH218422   6.025   0.617   5.422 -0.0357  0.2142  0.1989
 6153TIP3    H118423   6.056   0.648   5.507 -1.8215  0.4261  0.8251
 6153TIP3    H218424   6.009   0.524   5.434  1.9610 -0.2838 -0.6451
 6154TIP3   OH218425   1.852   2.833   2.224 -0.1014  0.1919  0.3218
 6154TIP3    H118426   1.818   2.820   2.135 -1.2106  0.6746  0.6540
 6154TIP3    H218427   1.782   2.801   2.281  0.3375  0.4835  1.0327
 6155TIP3   OH218428   3.717   4.553   5.160 -0.0410 -0.5065 -0.1154
 6155TIP3    H118429   3.661   4.491   5.114 -0.1812  0.7906 -1.7704
 6155TIP3    H218430   3.793   4.502   5.186 -1.1809 -1.8964  0.6673
 6156TIP3   OH218431   3.871   2.377   0.795  0.1935 -0.0850  0.0933
 6156TIP3    H118432   3.809   2.370   0.723  1.5695  0.0061 -1.1701
 6156TIP3    H218433   3.832   2.327   0.867 -2.3661  1.8062  0.1637
 6157TIP3   OH218434   1.523   4.943   3.292 -0.3439  0.0149 -0.4582
 6157TIP3    H118435   1.471   4.939   3.373 -1.5057 -0.8731 -1.2146
 6157TIP3    H218436   1.581   4.866   3.297 -0.1219  0.1915 -0.2875
 6158TIP3   OH218437   6.502   0.322   1.409 -0.2994 -0.5507  0.0957
 6158TIP3    H118438   6.534   0.346   1.496 -1.7888 -0.0419  0.5362
 6158TIP3    H218439   6.465   0.234   1.421 -1.4302 -0.0713  0.2472
 6159TIP3   OH218440   1.666   5.685   3.840  0.3055  0.3337 -0.2828
 6159TIP3    H118441   1.573   5.703   3.855  0.2144  0.5272 -1.0356
 6159TIP3    H218442   1.708   5.771   3.847  0.7534 -0.0058  2.1283
 6160TIP3   OH218443   7.095   0.644   2.835 -0.6219  0.1384  0.2775
 6160TIP3    H118444   7.010   0.684   2.855 -0.9783  0.1885 -1.1854
 6160TIP3    H218445   7.076   0.586   2.761  0.3560 -0.9409  0.8552
 6161TIP3   OH218446   2.696   5.451   4.719 -0.0785  0.5773 -0.0962
 6161TIP3    H118447   2.755   5.515   4.760 -0.5732  1.0325 -0.0885
 6161TIP3    H218448   2.752   5.375   4.702 -0.1953 -0.4241  3.1792
 6162TIP3   OH218449   7.163   3.527   4.446  0.0984 -0.1438  0.3211
 6162TIP3    H118450   7.132   3.495   4.361 -1.7504  0.9816  0.5042
 6162TIP3    H218451   7.224   3.598   4.424  0.6347 -0.7152 -0.0589
 6163TIP3   OH218452   1.696   0.883   1.819 -0.2259 -0.2440  0.5511
 6163TIP3    H118453   1.751   0.854   1.746 -0.5293  0.3446  0.0836
 6163TIP3    H218454   1.714   0.977   1.826 -0.9732 -0.1025  0.5660
 6164TIP3   OH218455   2.704   6.464   5.695  0.5967  0.0177  0.4822
 6164TIP3    H118456   2.751   6.544   5.674  0.0844  0.0341 -0.6624
 6164TIP3    H218457   2.628   6.493   5.746  0.9052  0.1602  0.8623
 6165TIP3   OH218458   5.228   5.366   3.659  0.4561 -0.5992 -0.0135
 6165TIP3    H118459   5.191   5.439   3.708 -1.5436 -1.9490  0.5720
 6165TIP3    H218460   5.204   5.384   3.568  0.9319  0.0095 -0.0252
 6166TIP3   OH218461   2.856   2.437   0.789 -0.1585  0.0825 -0.4488
 6166TIP3    H118462   2.809   2.520   0.784  0.0664  0.1748 -1.0339
 6166TIP3    H218463   2.817   2.383   0.720 -2.2985 -1.3412  1.7053
 6167TIP3   OH218464   6.587   0.807   1.855 -0.3493 -0.7144 -0.0710
 6167TIP3    H118465   6.662   0.866   1.849  0.4903 -1.7782 -0.3117
 6167TIP3    H218466   6.618   0.734   1.908 -1.4796 -0.7940  0.5060
 6168TIP3   OH218467   4.254   0.637   4.783 -0.5748  0.0150 -0.1304
 6168TIP3    H118468   4.252   0.575   4.856 -0.4882  2.0675  1.6840
 6168TIP3    H218469   4.256   0.723   4.824  2.3487  1.2365 -2.5058
 6169TIP3   OH218470   1.922   4.771   0.769  0.2087 -0.4113 -0.4251
 6169TIP3    H118471   1.913   4.857   0.729  0.3062  1.2946  2.9300
 6169TIP3    H218472   1.835   4.751   0.803  0.9423  0.0533  1.8527
 6170TIP3   OH218473   0.689   3.966   0.841 -0.3622 -0.0312  0.5940
 6170TIP3    H118474   0.729   4.023   0.907  0.4194  0.7003 -0.4921
 6170TIP3    H218475   0.601   4.001   0.829 -0.3490  0.1155  0.9186
 6171TIP3   OH218476   6.245   4.521   4.910 -0.2579 -0.1949 -0.0379
 6171TIP3    H118477   6.160   4.519   4.865 -0.6084  0.0811  0.5992
 6171TIP3    H218478   6.266   4.429   4.925 -0.4332 -0.2667 -0.2222
 6172TIP3   OH218479   6.405   5.073   4.945 -0.4839 -0.2978  0.5653
 6172TIP3    H118480   6.475   5.073   5.010 -1.4748  1.3821  1.6986
 6172TIP3    H218481   6.445   5.115   4.868  0.8455 -2.7449 -0.2065
 6173TIP3   OH218482   1.171   4.431   2.358  0.3080 -0.1427 -0.2752
 6173TIP3    H118483   1.192   4.523   2.342  1.6560 -0.2041  0.9229
 6173TIP3    H218484   1.249   4.396   2.399 -0.6988 -1.4937  0.5548
 6174TIP3   OH218485   2.559   5.287   0.202  0.1697 -0.0153 -0.0412
 6174TIP3    H118486   2.602   5.299   0.117  0.8153 -1.6327  0.0180
 6174TIP3    H218487   2.624   5.240   0.255 -0.2915  0.7943  1.3070
 6175TIP3   OH218488   3.928   2.539   2.750  0.1104 -0.0731 -0.2034
 6175TIP3    H118489   3.885   2.546   2.665 -0.2442 -2.5905 -0.3089
 6175TIP3    H218490   3.988   2.465   2.740  2.0131  1.2225  0.9796
 6176TIP3   OH218491   6.188   5.762   1.268  0.2788 -0.1779 -0.3758
 6176TIP3    H118492   6.180   5.743   1.362 -1.2700  0.1011 -0.4217
 6176TIP3    H218493   6.100   5.787   1.241  0.4256 -1.4408 -2.1818
 6177TIP3   OH218494   5.637   2.101   0.786  0.1589  0.2494  0.7439
 6177TIP3    H118495   5.665   2.009   0.791  0.7560  0.4987  2.5627
 6177TIP3    H218496   5.718   2.149   0.770  0.0250  0.5608  1.0114
 6178TIP3   OH218497   4.977   4.849   4.690  0.0815 -0.7318  0.2256
 6178TIP3    H118498   4.956   4.920   4.751  0.4964  0.0062 -0.4732
 6178TIP3    H218499   4.949   4.882   4.605  2.4097 -0.4240 -0.4855
 6179TIP3   OH218500   1.828   2.252   1.618 -0.6199 -0.1052 -0.0987
 6179TIP3    H118501   1.876   2.274   1.698  0.8096 -0.0568 -0.9457
 6179TIP3    H218502   1.821   2.157   1.619 -3.0971 -0.0027  1.4464
 6180TIP3   OH218503   0.165   2.284   4.961  0.2570  0.1713  0.3132
 6180TIP3    H118504   0.192   2.367   5.002 -0.5415  0.4453  0.3014
 6180TIP3    H218505   0.215   2.281   4.879 -0.6879  1.3185 -0.3436
 6181TIP3   OH218506   0.200   3.894   2.509  0.1659 -0.1079 -0.1925
 6181TIP3    H118507   0.149   3.852   2.578  0.8299  3.0571  2.4700
 6181TIP3    H218508   0.279   3.841   2.501 -1.8898 -3.2437 -2.1209
 6182TIP3   OH218509   1.754   4.515   2.659  0.0902 -0.2577  0.4619
 6182TIP3    H118510   1.716   4.588   2.611  1.5277  0.4678  0.3783
 6182TIP3    H218511   1.772   4.550   2.746 -0.0678 -0.7919  0.7160
 6183TIP3   OH218512   4.067   4.435   1.886  0.6133 -0.7472 -0.5383
 6183TIP3    H118513   4.160   4.453   1.901  0.0588  0.4101  1.9922
 6183TIP3    H218514   4.042   4.376   1.957 -0.2833 -2.4457 -2.1560
 6184TIP3   OH218515   1.728   3.674   5.292 -0.0355 -0.0382  0.0295
 6184TIP3    H118516   1.720   3.726   5.212 -0.9650 -0.0635  0.0917
 6184TIP3    H218517   1.784   3.600   5.267  1.1156  0.8657 -0.1137
 6185TIP3   OH218518   7.119   1.861   4.694 -0.4364  0.3761  0.1831
 6185TIP3    H118519   7.207   1.894   4.714  0.5373 -1.9605  0.0276
 6185TIP3    H218520   7.060   1.923   4.738  1.2621  1.9066  0.4263
 6186TIP3   OH218521   7.186   4.689   0.373  0.0738  0.0632  0.3278
 6186TIP3    H118522   7.242   4.700   0.296  0.2477  0.8305  0.5533
 6186TIP3    H218523   7.182   4.594   0.387 -0.5149 -0.1407 -1.0270
 6187TIP3   OH218524   3.515   5.595   2.616 -0.2433  0.5171 -0.1170
 6187TIP3    H118525   3.557   5.583   2.701 -0.6139  0.1151  0.0120
 6187TIP3    H218526   3.525   5.688   2.597  0.1160  0.5484  0.2220
 6188TIP3   OH218527   7.225   4.777   4.112  0.4881  0.2792  0.2316
 6188TIP3    H118528   7.210   4.756   4.020  1.4550 -0.4901  0.2308
 6188TIP3    H218529   7.144   4.755   4.156  0.7266 -1.3995 -0.1210
 6189TIP3   OH218530   6.666   2.593   4.410 -0.5286 -0.4412 -0.0066
 6189TIP3    H118531   6.749   2.555   4.437  0.2788  1.1900 -0.0876
 6189TIP3    H218532   6.610   2.518   4.390  0.0051 -1.6713  2.6388
 6190TIP3   OH218533   0.372   5.474   1.727 -0.2064  0.1104 -0.4082
 6190TIP3    H118534   0.375   5.513   1.814  1.7446 -0.0397 -0.3740
 6190TIP3    H218535   0.395   5.546   1.668  1.8526 -0.5341 -0.4727
 6191TIP3   OH218536   1.912   0.220   3.898  0.3281  0.4999  0.4327
 6191TIP3    H118537   1.997   0.188   3.929 -0.2721  0.0776  1.7118
 6191TIP3    H218538   1.879   0.273   3.970 -0.2710  1.0890 -0.2649
 6192TIP3   OH218539   1.643   0.848   3.231  0.6002  0.1165 -0.7439
 6192TIP3    H118540   1.548   0.836   3.229  0.2976  1.6854  1.2769
 6192TIP3    H218541   1.660   0.915   3.165  0.5713 -1.2501 -2.2230
 6193TIP3   OH218542   0.599   3.001   5.108 -0.2574 -0.1436 -0.4843
 6193TIP3    H118543   0.567   3.080   5.064  0.3031  0.3583 -0.0044
 6193TIP3    H218544   0.548   2.997   5.189 -0.2051 -0.2081 -0.4549
 6194TIP3   OH218545   2.883   3.769   2.119 -0.5740 -0.1114 -0.5370
 6194TIP3    H118546   2.868   3.792   2.211 -1.7227 -0.3505 -0.6425
 6194TIP3    H218547   2.970   3.731   2.117 -0.3070  0.4287  0.3558
 6195TIP3   OH218548   3.918   2.431   1.318  0.0354 -0.2229 -0.1454
 6195TIP3    H118549   3.939   2.341   1.344  2.1884  0.4292  0.6448
 6195TIP3    H218550   3.957   2.441   1.231 -0.6396 -0.2017 -0.4470
 6196TIP3   OH218551   1.521   2.690   5.411  0.1118 -0.6406 -0.0340
 6196TIP3    H118552   1.460   2.763   5.424  0.6525 -0.2545  0.3814
 6196TIP3    H218553   1.517   2.639   5.492  0.2370 -0.6926 -0.0597
 6197TIP3   OH218554   1.760   4.353   0.964 -0.0514 -0.4270  0.5248
 6197TIP3    H118555   1.798   4.374   1.049  0.3910 -1.2196  0.5366
 6197TIP3    H218556   1.834   4.351   0.904 -0.0913 -1.6299  0.4815
 6198TIP3   OH218557   4.551   1.014   1.267 -0.6639  0.1152  0.7147
 6198TIP3    H118558   4.639   0.989   1.297  0.3270 -0.6157 -2.4046
 6198TIP3    H218559   4.557   1.108   1.250  0.4036 -0.3319 -1.8336
 6199TIP3   OH218560   0.430   2.230   0.700 -0.1619  0.1227  0.4815
 6199TIP3    H118561   0.422   2.316   0.743 -0.3933 -0.8905  2.6151
 6199TIP3    H218562   0.340   2.204   0.682 -0.0774  0.4308 -0.4081
 6200TIP3   OH218563   6.765   0.096   2.996 -0.5156  0.0192  0.2156
 6200TIP3    H118564   6.705   0.072   3.067 -0.6887 -0.2228 -0.0147
 6200TIP3    H218565   6.841   0.040   3.010 -0.5379 -0.0092  0.2251
 6201TIP3   OH218566   5.895   2.888   5.832 -0.0327 -0.4335  0.0751
 6201TIP3    H118567   5.887   2.982   5.850 -0.0845 -0.4332  0.0508
 6201TIP3    H218568   5.892   2.847   5.919  0.9883 -0.3502  0.1646
 6202TIP3   OH218569   2.857   2.023   3.682 -0.1822  0.0382  0.3643
 6202TIP3    H118570   2.948   2.025   3.711  0.2715 -0.0036 -0.9588
 6202TIP3    H218571   2.858   1.966   3.605 -1.1350  0.8828 -0.2940
 6203TIP3   OH218572   1.000   2.457   4.163  0.0811  0.2426 -0.1581
 6203TIP3    H118573   0.964   2.368   4.174 -1.2534  0.9214  1.4561
 6203TIP3    H218574   0.984   2.479   4.071 -0.5476 -0.7734 -0.3029
 6204TIP3   OH218575   5.384   2.644   5.053 -0.0004  0.5487 -0.3077
 6204TIP3    H118576   5.478   2.641   5.034  0.5289  0.7083  1.9481
 6204TIP3    H218577   5.379   2.680   5.142 -2.2819  1.6089 -0.7908
 6205TIP3   OH218578   4.921   2.684   1.398 -0.6857  0.3006  0.1174
 6205TIP3    H118579   4.939   2.730   1.316 -1.3660 -1.2352 -0.9506
 6205TIP3    H218580   4.972   2.731   1.464 -1.8833  2.9942 -0.7256
 6206TIP3   OH218581   6.283   2.087   0.397 -0.4643 -0.2407 -0.3600
 6206TIP3    H118582   6.247   2.062   0.312 -0.0793 -0.0440 -0.5814
 6206TIP3    H218583   6.310   2.005   0.437 -0.9249 -0.3657 -0.2974
 6207TIP3   OH218584   1.337   4.782   3.554 -0.4874 -0.3246  0.0234
 6207TIP3    H118585   1.337   4.768   3.649  1.4096 -0.7086  0.0031
 6207TIP3    H218586   1.376   4.868   3.543  0.5538 -0.8469 -0.4538
 6208TIP3   OH218587   2.597   4.528   0.606 -0.5049 -0.1711 -1.1214
 6208TIP3    H118588   2.685   4.492   0.592  0.4745  1.3358  0.8444
 6208TIP3    H218589   2.568   4.553   0.518  2.0180  1.4539 -1.5923
 6209TIP3   OH218590   5.088   0.864   1.760 -0.0323  0.2370  0.0762
 6209TIP3    H118591   5.182   0.845   1.770 -0.0433  0.3280  0.3503
 6209TIP3    H218592   5.045   0.781   1.778 -0.0291  0.3034  0.3903
 6210TIP3   OH218593   7.075   2.666   5.406 -0.0132  0.6362 -0.1039
 6210TIP3    H118594   7.113   2.738   5.355  0.0653 -0.1612 -1.2100
 6210TIP3    H218595   7.126   2.589   5.380 -0.9006 -0.0416  0.1147
 6211TIP3   OH218596   4.344   6.489   3.165 -0.4618  0.2122  0.3595
 6211TIP3    H118597   4.417   6.547   3.144 -0.6747  0.4810  0.3700
 6211TIP3    H218598   4.282   6.543   3.212 -0.5637 -0.0775  0.5626
 6212TIP3   OH218599   6.181   6.462   1.294  0.0022 -0.0937  0.0956
 6212TIP3    H118600   6.226   6.471   1.210  0.4320 -1.4850  0.1476
 6212TIP3    H218601   6.088   6.473   1.273 -0.0479 -1.9726 -0.8670
 6213TIP3   OH218602   1.748   2.434   2.284  0.1751  0.0296 -0.1436
 6213TIP3    H118603   1.804   2.471   2.217 -1.0933  0.2904 -1.0915
 6213TIP3    H218604   1.734   2.343   2.258  2.1942 -0.8257  1.4673
 6214TIP3   OH218605   6.364   5.438   3.981  0.1026 -0.6815  0.1279
 6214TIP3    H118606   6.453   5.472   3.978 -0.7212  2.3573  3.4064
 6214TIP3    H218607   6.311   5.503   3.936 -0.6629 -1.7785 -0.6079
 6215TIP3   OH218608   2.007   6.504   5.219  0.3079 -0.0939 -0.2183
 6215TIP3    H118609   1.954   6.477   5.144  0.0330 -0.5510  0.1442
 6215TIP3    H218610   2.082   6.548   5.179  0.6058 -1.0999 -0.8063
 6216TIP3   OH218611   7.192   2.121   5.120  0.0017  0.8992  0.1801
 6216TIP3    H118612   7.262   2.148   5.061  0.9644 -0.0821  0.8191
 6216TIP3    H218613   7.160   2.202   5.159  0.7975  1.3636 -0.1091
 6217TIP3   OH218614   6.135   6.206   0.083  0.8985 -0.2043 -0.3027
 6217TIP3    H118615   6.179   6.163   0.010  0.8881  1.0292 -1.0640
 6217TIP3    H218616   6.177   6.292   0.090 -0.1783  0.3130  0.0961
 6218TIP3   OH218617   0.618   4.332   0.719  0.6069 -0.4312  0.6250
 6218TIP3    H118618   0.694   4.291   0.678 -0.0504 -0.8500 -0.2040
 6218TIP3    H218619   0.641   4.337   0.812  2.4037  1.1162  0.1669
 6219TIP3   OH218620   4.328   6.592   2.532 -0.2999  0.0990 -0.2364
 6219TIP3    H118621   4.401   6.551   2.578 -0.8582 -0.4395  0.1803
 6219TIP3    H218622   4.367   6.622   2.449  0.4698  0.1435  0.1277
 6220TIP3   OH218623   2.292   6.755   4.369  0.0787  0.4901  1.0605
 6220TIP3    H118624   2.223   6.771   4.433  0.2167 -0.3004  1.4185
 6220TIP3    H218625   2.373   6.756   4.421  0.3694  1.6923  0.6016
 6221TIP3   OH218626  -0.003   4.405   2.841 -0.6197  0.6270 -0.0320
 6221TIP3    H118627   0.032   4.317   2.828  2.0587  1.7809 -1.3917
 6221TIP3    H218628   0.036   4.435   2.923 -1.5396  0.5851  0.4389
 6222TIP3   OH218629   4.828   3.338   2.287 -0.3522 -0.3437 -0.1431
 6222TIP3    H118630   4.737   3.309   2.285 -0.7974  0.9975 -0.8846
 6222TIP3    H218631   4.861   3.321   2.198  0.1765 -0.9212  0.1487
 6223TIP3   OH218632   3.793   1.686   2.620  0.2187 -0.5469 -0.2305
 6223TIP3    H118633   3.881   1.724   2.624 -0.6573  1.4356  2.6252
 6223TIP3    H218634   3.796   1.611   2.680  0.2570 -1.2961 -1.1366
 6224TIP3   OH218635   2.025   4.373   0.453 -0.6051  0.4304 -0.5309
 6224TIP3    H118636   2.098   4.376   0.515  0.1016  0.0598 -1.3207
 6224TIP3    H218637   1.947   4.380   0.508  0.0233  1.1910  0.3099
 6225TIP3   OH218638   0.830   1.319   5.847  0.2380  0.3793  0.3739
 6225TIP3    H118639   0.837   1.343   5.940  1.1508 -0.3714  0.5064
 6225TIP3    H218640   0.753   1.261   5.844  0.4063  0.1311  0.7232
 6226TIP3   OH218641   3.301   1.622   0.277  0.7221 -0.3623  0.4610
 6226TIP3    H118642   3.387   1.630   0.238  0.8549 -0.5262  0.7148
 6226TIP3    H218643   3.262   1.709   0.270  1.7259  0.2839  2.2407
 6227TIP3   OH218644   6.177   2.409   4.037 -0.6755 -0.1618 -0.0714
 6227TIP3    H118645   6.178   2.421   3.942 -2.2607 -1.2354 -0.2596
 6227TIP3    H218646   6.169   2.498   4.072 -1.3113  0.1626 -0.9957
 6228TIP3   OH218647   1.697   0.436   0.966  0.4387 -0.2495 -0.2129
 6228TIP3    H118648   1.780   0.417   1.011 -1.0841 -1.0829  2.4392
 6228TIP3    H218649   1.676   0.525   0.990  0.2987 -0.2038 -0.4934
 6229TIP3   OH218650   7.100   6.492   2.937 -0.1935 -0.5526 -0.0691
 6229TIP3    H118651   7.066   6.440   3.010 -0.8380 -0.2525 -0.1559
 6229TIP3    H218652   7.102   6.431   2.864  0.8988 -0.9889  0.2978
 6230TIP3   OH218653   4.362   2.760   3.713 -0.4907 -0.1041 -0.0270
 6230TIP3    H118654   4.420   2.835   3.727 -1.2894  0.4570  0.3659
 6230TIP3    H218655   4.298   2.792   3.650 -0.1470 -0.8491 -0.7652
 6231TIP3   OH218656   2.420   6.807   0.657 -0.5550 -0.2656 -0.2505
 6231TIP3    H118657   2.382   6.783   0.742  0.3433  0.0902  0.2710
 6231TIP3    H218658   2.382   6.744   0.595  1.9721 -3.4364  1.1072
 6232TIP3   OH218659   1.947   5.853   1.114 -1.2032  0.2312  0.1496
 6232TIP3    H118660   2.040   5.861   1.134 -1.1491 -0.3918  0.1700
 6232TIP3    H218661   1.944   5.800   1.034 -1.4534  1.9047 -0.9948
 6233TIP3   OH218662   6.211   5.536   4.969 -0.3347 -0.0866 -0.3721
 6233TIP3    H118663   6.204   5.474   5.042 -1.6744  0.4501 -0.0302
 6233TIP3    H218664   6.214   5.622   5.011 -2.9591  0.3639 -0.9555
 6234TIP3   OH218665   0.147   4.157   2.609  0.5911  0.5206 -0.2635
 6234TIP3    H118666   0.121   4.127   2.697  0.7600  0.4840 -0.2267
 6234TIP3    H218667   0.214   4.095   2.581 -1.2828 -1.0744 -1.4961
 6235TIP3   OH218668   5.925   1.200   1.240 -0.0270 -0.4868  0.0128
 6235TIP3    H118669   5.838   1.232   1.215  0.4185  1.3180  0.7021
 6235TIP3    H218670   5.913   1.163   1.327 -0.1305 -0.3495  0.0569
 6236TIP3   OH218671   5.543   1.798   0.430  0.4606  0.1039  0.1175
 6236TIP3    H118672   5.519   1.775   0.519  0.5548  0.9726  0.3762
 6236TIP3    H218673   5.614   1.862   0.439  0.5512  0.1159 -0.5778
 6237TIP3   OH218674   0.729   2.645   0.265  0.2804 -0.1894  0.6072
 6237TIP3    H118675   0.737   2.555   0.295  0.8323 -0.2811  0.1914
 6237TIP3    H218676   0.815   2.666   0.228  0.6269  0.9777  1.9845
 6238TIP3   OH218677   3.292   4.823   5.214  0.2336 -0.3485 -0.2477
 6238TIP3    H118678   3.302   4.728   5.220 -1.0011 -0.4412  0.9305
 6238TIP3    H218679   3.368   4.857   5.261 -0.9014 -0.8593  2.1140
 6239TIP3   OH218680   5.488   6.308   2.956 -0.0029 -0.2390 -0.2864
 6239TIP3    H118681   5.522   6.357   2.880 -0.6729 -0.3386 -0.6583
 6239TIP3    H218682   5.434   6.372   3.003  2.2358  0.5080  1.4092
 6240TIP3   OH218683   0.967   5.112   2.809 -0.3213 -0.2767 -0.1879
 6240TIP3    H118684   0.969   5.036   2.867  2.2178 -0.9821 -1.0664
 6240TIP3    H218685   0.935   5.077   2.725  1.1349 -0.5171 -0.6788
 6241TIP3   OH218686   1.274   2.846   4.632  0.1135 -0.1906  0.1236
 6241TIP3    H118687   1.261   2.900   4.711 -0.2477  0.3456 -0.2978
 6241TIP3    H218688   1.247   2.903   4.560  0.7929 -0.5489 -0.4191
 6242TIP3   OH218689   1.432   4.885   2.660  0.0395 -0.3675  0.7136
 6242TIP3    H118690   1.504   4.873   2.600 -0.8910 -0.1018 -0.4953
 6242TIP3    H218691   1.432   4.979   2.679 -0.4568 -0.2349  0.0868
 6243TIP3   OH218692   2.725   0.646   1.676  0.3433 -0.3259  0.5196
 6243TIP3    H118693   2.788   0.595   1.624  0.1949 -0.0328  0.0524
 6243TIP3    H218694   2.647   0.590   1.680 -0.0326  0.0935 -0.4942
 6244TIP3   OH218695   5.795   0.126   3.693 -0.4491  0.2146 -0.0368
 6244TIP3    H118696   5.802   0.031   3.681  1.6321  0.3718 -0.5376
 6244TIP3    H218697   5.707   0.148   3.664 -0.8639 -1.5313 -0.1864
 6245TIP3   OH218698   4.908   0.888   4.074  0.4872  0.6346 -0.4196
 6245TIP3    H118699   5.000   0.910   4.064  0.6205  0.3437  0.1114
 6245TIP3    H218700   4.908   0.799   4.110  0.0812  1.6210  2.2904
 6246TIP3   OH218701   2.661   6.730   0.993  0.0079  0.1595 -0.1057
 6246TIP3    H118702   2.591   6.708   1.054 -0.0938  2.1760  0.5905
 6246TIP3    H218703   2.657   6.662   0.926 -1.2615 -0.9200  1.0083
 6247TIP3   OH218704   5.002   1.917   3.468 -0.4958 -0.0751 -0.1060
 6247TIP3    H118705   5.002   1.979   3.395  3.2802  0.0318 -0.2206
 6247TIP3    H218706   4.991   1.972   3.546 -0.6388  0.3052 -0.3903
 6248TIP3   OH218707   4.641   4.925   2.942  0.1157 -0.1091  0.0217
 6248TIP3    H118708   4.607   4.993   2.883 -1.1075 -0.5351  0.1978
 6248TIP3    H218709   4.596   4.940   3.025  1.4371  0.1594  0.7167
 6249TIP3   OH218710   5.938   4.599   5.661  0.0141 -0.2791  0.9429
 6249TIP3    H118711   5.902   4.618   5.748 -0.1078  4.6359  0.0945
 6249TIP3    H218712   6.033   4.604   5.673  0.0341  3.3530  0.5658
 6250TIP3   OH218713   1.447   6.122   4.004 -0.0796 -0.2134  0.1433
 6250TIP3    H118714   1.448   6.188   4.072  0.0869 -0.7248  0.6502
 6250TIP3    H218715   1.406   6.046   4.045  0.3660 -0.6490 -0.2005
 6251TIP3   OH218716   2.415   0.991   1.274  0.7441  0.2227 -0.3868
 6251TIP3    H118717   2.445   0.932   1.343 -0.2444 -0.9939 -0.9458
 6251TIP3    H218718   2.320   0.994   1.285  0.7392  1.3671 -0.6509
 6252TIP3   OH218719   4.133   5.028   3.029  0.2025 -0.0380 -0.4149
 6252TIP3    H118720   4.060   4.979   2.991 -0.8150  0.8337  0.3454
 6252TIP3    H218721   4.163   4.973   3.102  0.4803 -0.5204 -0.8904
 6253TIP3   OH218722   1.527   5.148   5.740  0.3022  0.6447  0.4357
 6253TIP3    H118723   1.549   5.235   5.773 -1.8431  1.1637  0.7031
 6253TIP3    H218724   1.556   5.149   5.649  1.4413  1.1704  0.7939
 6254TIP3   OH218725   6.570   4.394   4.701  0.0363 -0.0267  0.1310
 6254TIP3    H118726   6.495   4.407   4.643 -0.3330  0.4205  0.6964
 6254TIP3    H218727   6.531   4.377   4.787  0.5754  1.6654  0.7561
 6255TIP3   OH218728   3.640   0.429   3.167 -0.2892 -0.5083  0.3528
 6255TIP3    H118729   3.667   0.512   3.207  0.0560 -0.1843 -0.5281
 6255TIP3    H218730   3.672   0.362   3.228  1.2848 -0.0713  0.0693
 6256TIP3   OH218731   4.906   5.773   1.557  0.0492  0.4813 -0.4164
 6256TIP3    H118732   4.984   5.719   1.551  0.8809  1.7600 -1.7855
 6256TIP3    H218733   4.929   5.841   1.621  0.4353  1.3858 -1.4821
 6257TIP3   OH218734   1.296   1.704   2.329  0.1338 -0.1868 -0.0403
 6257TIP3    H118735   1.208   1.731   2.304 -0.1251  1.2244  2.2138
 6257TIP3    H218736   1.299   1.610   2.308 -2.0875 -0.3924  0.3383
 6258TIP3   OH218737   0.294   4.309   5.788 -0.3178 -0.5936 -0.2156
 6258TIP3    H118738   0.273   4.255   5.864 -0.4667 -1.2891 -0.7511
 6258TIP3    H218739   0.386   4.290   5.769 -0.0664  0.1246  0.2227
 6259TIP3   OH218740   4.784   2.253   0.534 -0.1433  0.0453  0.8584
 6259TIP3    H118741   4.859   2.275   0.589 -0.0504  4.5333 -0.6284
 6259TIP3    H218742   4.821   2.205   0.461  0.6981 -0.6716  1.7278
 6260TIP3   OH218743   6.055   0.403   5.131 -0.2766 -0.3253 -0.2839
 6260TIP3    H118744   5.999   0.469   5.172 -1.0077 -1.8709  1.3815
 6260TIP3    H218745   6.120   0.383   5.198  0.5461 -0.5845 -1.1429
 6261TIP3   OH218746   1.732   5.777   2.220  0.3605  0.7328  0.2825
 6261TIP3    H118747   1.720   5.864   2.181 -0.0238 -0.2947 -2.0440
 6261TIP3    H218748   1.763   5.723   2.147  0.0247 -1.2232  1.5454
 6262TIP3   OH218749   2.823   4.407   0.471  0.3128  0.1181 -0.4246
 6262TIP3    H118750   2.771   4.343   0.422  0.9218 -0.1089 -0.7906
 6262TIP3    H218751   2.866   4.355   0.539 -1.4148  0.6093  1.1076
 6263TIP3   OH218752   5.286   6.653   1.313  0.3295  0.4371  0.2436
 6263TIP3    H118753   5.282   6.744   1.286  0.5882  0.0215 -1.2673
 6263TIP3    H218754   5.247   6.604   1.240  1.9655 -0.8136  0.1596
 6264TIP3   OH218755   5.418   4.206   5.796  0.5910 -0.5617  0.0963
 6264TIP3    H118756   5.398   4.297   5.819 -0.4689 -0.3151 -1.6928
 6264TIP3    H218757   5.371   4.154   5.861  0.2168  0.1461  0.3961
 6265TIP3   OH218758   0.807   5.447   1.822  0.4399  0.3816  0.1407
 6265TIP3    H118759   0.872   5.515   1.805  0.4420  0.2809 -0.2568
 6265TIP3    H218760   0.854   5.379   1.871  0.0712  1.3609  1.9547
 6266TIP3   OH218761   5.795   1.636   3.317 -0.4416  0.2621  0.2355
 6266TIP3    H118762   5.721   1.575   3.320 -0.4122  0.2479  0.7349
 6266TIP3    H218763   5.839   1.625   3.401  0.4643 -0.1314 -0.2776
 6267TIP3   OH218764   7.019   1.484   0.815 -0.0885 -0.5347  0.1426
 6267TIP3    H118765   6.981   1.553   0.760  0.3668 -0.1473  0.3028
 6267TIP3    H218766   7.046   1.416   0.753 -0.2883 -0.4438 -0.0455
 6268TIP3   OH218767   5.733   5.011   0.713  0.7870  0.2508 -0.1314
 6268TIP3    H118768   5.743   5.077   0.782 -0.0657 -0.4939  0.7207
 6268TIP3    H218769   5.639   4.999   0.705  0.9292 -2.3203  1.1556
 6269TIP3   OH218770   7.157   2.610   0.495  0.0546  0.6750 -0.0758
 6269TIP3    H118771   7.235   2.555   0.482  1.1178  2.4066 -1.5435
 6269TIP3    H218772   7.187   2.699   0.475 -1.8451  1.6819  1.2295
 6270TIP3   OH218773   1.466   4.653   2.372  0.1213  0.4966 -0.1508
 6270TIP3    H118774   1.556   4.686   2.382  0.7229 -0.1163 -2.8154
 6270TIP3    H218775   1.414   4.731   2.353 -0.0182  0.8950  1.6935
 6271TIP3   OH218776   6.749   4.517   4.497 -0.8889 -0.0850  0.8357
 6271TIP3    H118777   6.698   4.474   4.565 -0.5633 -0.5342  0.7987
 6271TIP3    H218778   6.823   4.556   4.543  0.3510 -1.9746  0.5223
 6272TIP3   OH218779   1.440   4.036   2.414 -0.2785  0.3205  0.0619
 6272TIP3    H118780   1.393   4.117   2.394 -0.4022 -0.1580 -1.7049
 6272TIP3    H218781   1.530   4.053   2.388 -0.2550 -0.0228 -0.0828
 6273TIP3   OH218782   0.540   4.786   1.279 -0.1823  0.2703  0.1060
 6273TIP3    H118783   0.626   4.795   1.319 -0.7209  2.3833  0.8913
 6273TIP3    H218784   0.528   4.691   1.271  3.0915 -0.1323 -2.0528
 6274TIP3   OH218785   3.295   5.171   3.620  0.4498  0.6832 -0.3368
 6274TIP3    H118786   3.341   5.255   3.617  1.8796 -0.0801 -0.6623
 6274TIP3    H218787   3.332   5.126   3.696 -0.5580  0.4667  0.0480
 6275TIP3   OH218788   6.805   1.622   0.135 -0.1669  0.5186 -0.1329
 6275TIP3    H118789   6.725   1.636   0.085  1.0551  2.8055 -1.6149
 6275TIP3    H218790   6.866   1.585   0.072  0.8192  1.5981  0.1594
 6276TIP3   OH218791   4.030   2.037   0.906  0.3309  0.0751 -0.4091
 6276TIP3    H118792   4.012   2.018   0.814  2.1979 -2.9628 -0.2824
 6276TIP3    H218793   4.066   2.126   0.905  1.5766 -0.3679 -2.8468
 6277TIP3   OH218794   2.668   1.197   3.841  0.0908 -0.1481 -0.4992
 6277TIP3    H118795   2.756   1.229   3.861 -0.5895  1.1781  0.5748
 6277TIP3    H218796   2.669   1.105   3.870  1.0942 -0.1414 -0.4635
 6278TIP3   OH218797   2.621   1.139   1.126  0.0993 -0.0068  0.0902
 6278TIP3    H118798   2.580   1.187   1.054 -0.4259  0.9772  1.0148
 6278TIP3    H218799   2.555   1.075   1.153  0.4028 -0.5639 -0.4713
 6279TIP3   OH218800   3.916   3.317   1.016 -0.1869  0.1302  0.0050
 6279TIP3    H118801   3.998   3.282   1.051  0.4135  2.2779  0.8473
 6279TIP3    H218802   3.940   3.356   0.932 -0.5619 -0.0823 -0.2063
 6280TIP3   OH218803   6.043   2.734   2.849  0.2404  0.5407 -0.5877
 6280TIP3    H118804   5.996   2.727   2.766  1.1305  1.8449 -1.2451
 6280TIP3    H218805   6.135   2.719   2.826  0.2777 -1.2115  0.5416
 6281TIP3   OH218806   6.705   5.044   1.321 -0.1839  0.6504  0.6642
 6281TIP3    H118807   6.694   5.138   1.335 -1.3440  0.8623 -1.3180
 6281TIP3    H218808   6.671   5.004   1.401  0.9203  1.8899  1.8050
 6282TIP3   OH218809   6.275   6.275   2.990  0.3589 -0.7422 -0.3862
 6282TIP3    H118810   6.231   6.360   2.995  2.1144  0.1862 -0.0756
 6282TIP3    H218811   6.256   6.233   3.074 -1.0088 -0.9534 -0.7673
 6283TIP3   OH218812   6.267   3.598   5.463 -0.3876 -0.1101  0.2050
 6283TIP3    H118813   6.347   3.648   5.480  0.1676 -0.5396 -1.0346
 6283TIP3    H218814   6.292   3.507   5.479 -0.7708 -0.2021  0.2804
 6284TIP3   OH218815   5.173   0.881   2.757  1.0127 -0.2746  0.1196
 6284TIP3    H118816   5.173   0.968   2.797 -2.0555 -0.7746  1.4692
 6284TIP3    H218817   5.140   0.895   2.668 -0.6279 -0.1260  0.7175
 6285TIP3   OH218818   7.082   3.263   4.570 -0.3558  0.7504  0.0942
 6285TIP3    H118819   7.103   3.344   4.522  1.2366  0.0849 -0.3818
 6285TIP3    H218820   7.114   3.193   4.514 -1.1572 -0.2016  0.7943
 6286TIP3   OH218821   1.418   1.816   0.166 -0.4070  0.2756  0.0805
 6286TIP3    H118822   1.348   1.765   0.206  0.7852 -2.1204 -0.7240
 6286TIP3    H218823   1.422   1.787   0.075  1.0708  0.9498 -0.1141
 6287TIP3   OH218824   3.411   2.685   0.398  0.3454  0.2678  0.3551
 6287TIP3    H118825   3.339   2.639   0.354  0.5332 -0.6591  1.0008
 6287TIP3    H218826   3.433   2.756   0.339 -0.3505 -0.1150 -0.3842
 6288TIP3   OH218827   2.189   2.800   0.589 -0.9449 -0.4067  0.4187
 6288TIP3    H118828   2.154   2.795   0.678 -1.4740  1.1722  0.3349
 6288TIP3    H218829   2.165   2.887   0.558 -0.8590 -0.9460 -1.3208
 6289TIP3   OH218830   0.054   5.842   2.907 -0.7165 -0.1565 -0.7245
 6289TIP3    H118831   0.053   5.757   2.863  0.1426  0.3130 -1.7049
 6289TIP3    H218832   0.054   5.906   2.836  0.7074  0.6302 -0.0691
 6290TIP3   OH218833   3.906   3.970   5.024  0.3778 -0.6996 -0.0501
 6290TIP3    H118834   3.973   4.038   5.029  0.9215 -1.2879  0.9213
 6290TIP3    H218835   3.944   3.902   4.969  0.1351 -0.5729 -0.3847
 6291TIP3   OH218836   6.797   6.501   0.955 -0.6523 -0.1432 -0.0300
 6291TIP3    H118837   6.714   6.480   0.997 -0.4958 -0.0471  0.3414
 6291TIP3    H218838   6.851   6.535   1.027 -0.2886 -0.2226 -0.2641
 6292TIP3   OH218839   0.966   4.056   4.185  0.0339  0.1286  0.1562
 6292TIP3    H118840   1.041   4.062   4.244  0.2887 -1.7566  0.1057
 6292TIP3    H218841   0.994   4.100   4.105  0.7072  0.3420  0.5042
 6293TIP3   OH218842   5.842   0.815   2.509  0.7629  0.1555  0.1581
 6293TIP3    H118843   5.917   0.756   2.497 -0.1919 -0.9422 -0.6508
 6293TIP3    H218844   5.864   0.892   2.456  0.3613 -1.1081 -1.9612
 6294TIP3   OH218845   4.352   2.400   2.687  0.3080 -0.3404  0.4688
 6294TIP3    H118846   4.338   2.361   2.601  1.2175 -1.6439  0.8901
 6294TIP3    H218847   4.270   2.385   2.734  0.5914 -1.6416  0.5723
 6295TIP3   OH218848   4.553   6.657   0.169 -0.0488 -0.0277 -0.4092
 6295TIP3    H118849   4.600   6.732   0.134 -2.3106  2.6984  1.8784
 6295TIP3    H218850   4.461   6.677   0.153 -0.7497 -2.1449  0.6482
 6296TIP3   OH218851   5.028   3.367   2.568  0.0109 -0.6596  0.1627
 6296TIP3    H118852   5.083   3.388   2.492 -1.0403 -0.4149 -0.5567
 6296TIP3    H218853   5.080   3.394   2.644  1.6782 -2.1889 -0.3569
 6297TIP3   OH218854   4.504   1.434   5.216  0.1257 -0.3517  0.3541
 6297TIP3    H118855   4.513   1.392   5.302  0.1558  1.0664  1.0821
 6297TIP3    H218856   4.430   1.391   5.175 -1.1876  0.2671  1.9414
 6298TIP3   OH218857   5.905   2.839   1.652 -0.1735  0.1431 -0.4252
 6298TIP3    H118858   5.979   2.879   1.606 -1.9433  1.1308 -2.6167
 6298TIP3    H218859   5.944   2.765   1.699  2.0861  0.1270 -2.1106
 6299TIP3   OH218860   6.489   2.730   3.692 -0.1099  0.1662 -0.7914
 6299TIP3    H118861   6.492   2.636   3.706 -0.1400  0.3318  0.4842
 6299TIP3    H218862   6.574   2.762   3.722  0.1273  0.4887 -1.7678
 6300TIP3   OH218863   2.468   2.324   4.905  0.2552  0.2987 -0.2876
 6300TIP3    H118864   2.541   2.265   4.885  0.0834 -0.0107 -0.0208
 6300TIP3    H218865   2.435   2.351   4.820 -0.1642 -0.6244 -0.4343
 6301TIP3   OH218866   4.589   3.487   5.529  0.1878 -0.2911  0.2612
 6301TIP3    H118867   4.580   3.491   5.624  1.8457  1.8228  0.4129
 6301TIP3    H218868   4.649   3.414   5.513 -0.4226 -0.9181  0.7810
 6302TIP3   OH218869   4.127   5.071   2.261  0.3111  0.2675  0.3192
 6302TIP3    H118870   4.201   5.063   2.200  0.5118 -0.9430  0.6991
 6302TIP3    H218871   4.164   5.055   2.347 -0.4365 -0.6106  0.4904
 6303TIP3   OH218872   0.540   1.198   3.469 -0.0574  0.1585  0.1966
 6303TIP3    H118873   0.475   1.251   3.423 -0.0206  0.8724  0.9406
 6303TIP3    H218874   0.624   1.234   3.442 -0.0567  1.2787  1.5957
 6304TIP3   OH218875   6.681   4.060   1.563  0.1755 -0.6946 -0.2299
 6304TIP3    H118876   6.676   3.966   1.581 -1.4338 -1.0336 -2.1389
 6304TIP3    H218877   6.590   4.087   1.548  0.5065  1.3644  1.0533
 6305TIP3   OH218878   3.756   4.767   4.161 -0.0942  0.3743 -0.1798
 6305TIP3    H118879   3.851   4.779   4.161 -0.2727  2.0052  0.2565
 6305TIP3    H218880   3.723   4.836   4.217 -1.4327 -1.4276  1.3884
 6306TIP3   OH218881   3.652   3.535   0.145 -0.1044  0.0610  0.1703
 6306TIP3    H118882   3.637   3.590   0.067  0.9816 -1.1479 -0.9402
 6306TIP3    H218883   3.639   3.594   0.219 -1.8750  1.0907 -0.8833
 6307TIP3   OH218884   3.164   2.034   3.138  0.2691 -0.2895  0.0282
 6307TIP3    H118885   3.208   2.058   3.057  0.0360 -0.5672 -0.1812
 6307TIP3    H218886   3.176   2.110   3.195 -1.1150  0.6667 -0.8774
 6308TIP3   OH218887   1.816   4.403   0.648 -0.0312 -0.1522 -0.1507
 6308TIP3    H118888   1.729   4.442   0.655  0.0914  0.2929 -0.9748
 6308TIP3    H218889   1.868   4.448   0.715 -0.2928 -0.0338 -0.0247
 6309TIP3   OH218890   3.046   5.281   2.390  0.2760  0.3764 -0.2093
 6309TIP3    H118891   3.118   5.291   2.328  0.9927 -1.5654  0.2543
 6309TIP3    H218892   2.982   5.227   2.345  0.1563  0.1627  0.2103
 6310TIP3   OH218893   5.967   1.212   4.419  0.2675 -0.1225  0.2221
 6310TIP3    H118894   5.947   1.139   4.360  0.1764  0.6820 -0.7672
 6310TIP3    H218895   6.049   1.248   4.386 -0.4683  1.1750 -0.2825
 6311TIP3   OH218896   5.371   5.972   3.634 -0.3538  0.3173 -0.0084
 6311TIP3    H118897   5.389   5.904   3.569 -0.3408  0.6508 -0.3564
 6311TIP3    H218898   5.344   5.924   3.712 -1.9189 -0.0435 -0.7406
 6312TIP3   OH218899   4.585   1.397   4.687  0.1585 -0.0833 -0.3095
 6312TIP3    H118900   4.526   1.327   4.714 -0.8467  0.7105 -0.3931
 6312TIP3    H218901   4.574   1.403   4.592  1.3037 -0.7425 -0.4974
 6313TIP3   OH218902   0.771   0.824   3.826  0.5008 -0.0680  0.4577
 6313TIP3    H118903   0.804   0.741   3.860  2.8173  1.5529  2.5072
 6313TIP3    H218904   0.744   0.873   3.904  0.5449  1.6563 -0.5723
 6314TIP3   OH218905   3.323   2.565   2.540  0.2306  0.1141 -0.7751
 6314TIP3    H118906   3.394   2.630   2.539  1.1398 -0.8037 -2.9272
 6314TIP3    H218907   3.327   2.525   2.626  1.5241  0.9592 -0.4210
 6315TIP3   OH218908   1.862   0.533   2.288  0.1070  0.1603 -0.2545
 6315TIP3    H118909   1.784   0.536   2.232  0.3845 -0.1264 -0.6644
 6315TIP3    H218910   1.883   0.625   2.305 -1.5250  0.2527  1.5784
 6316TIP3   OH218911   0.954   4.208   5.000  0.0711 -0.1922 -0.0320
 6316TIP3    H118912   0.972   4.200   4.906  1.4447 -0.0441  0.1954
 6316TIP3    H218913   1.021   4.154   5.042 -0.1007  0.2866  0.8829
 6317TIP3   OH218914   1.271   5.402   3.092 -0.1459 -0.5108  0.5130
 6317TIP3    H118915   1.187   5.433   3.127 -1.0865 -2.2698 -0.0674
 6317TIP3    H218916   1.336   5.458   3.133 -1.5245  0.1938  1.8319
 6318TIP3   OH218917   3.846   0.126   4.506  0.0983  0.3113 -0.1148
 6318TIP3    H118918   3.893   0.046   4.483 -0.2893  0.0702 -0.0737
 6318TIP3    H218919   3.915   0.192   4.516  0.2940  0.4413 -1.9383
 6319TIP3   OH218920   5.379   2.059   1.024  0.1302  0.7335 -0.1814
 6319TIP3    H118921   5.302   2.088   0.975  0.1077  1.5205  0.2965
 6319TIP3    H218922   5.437   2.136   1.025  0.0205  0.8254  1.2249
 6320TIP3   OH218923   3.480   4.798   4.433 -0.2425 -0.1436 -0.3442
 6320TIP3    H118924   3.553   4.822   4.491 -0.9649 -1.7090  1.3082
 6320TIP3    H218925   3.408   4.778   4.492 -1.7351  0.3646 -1.9161
 6321TIP3   OH218926   1.991   1.909   5.225 -0.2046  0.1649  0.0270
 6321TIP3    H118927   1.965   1.997   5.201  1.9525  0.9925  0.4960
 6321TIP3    H218928   2.013   1.866   5.143  0.2497  0.6040 -0.0847
 6322TIP3   OH218929   2.828   3.637   3.927 -0.0096  0.0925 -0.5888
 6322TIP3    H118930   2.831   3.555   3.878 -0.3821 -1.0282  1.1777
 6322TIP3    H218931   2.735   3.659   3.930 -0.1739 -0.6883  0.8852
 6323TIP3   OH218932   3.865   5.747   3.246 -0.3860 -0.2958 -0.1064
 6323TIP3    H118933   3.872   5.837   3.215 -0.6422 -1.0689 -2.6856
 6323TIP3    H218934   3.924   5.698   3.189 -2.1178 -2.1112 -0.4410
 6324TIP3   OH218935   0.588   2.837   3.538  0.2266 -0.5607 -0.0100
 6324TIP3    H118936   0.550   2.882   3.462  1.4450  0.9126  0.1962
 6324TIP3    H218937   0.680   2.826   3.516  0.0373 -2.7452  0.1078
 6325TIP3   OH218938   1.100   3.129   3.846 -0.1982  0.1131 -0.1677
 6325TIP3    H118939   1.179   3.130   3.792  0.2291 -1.8475  0.3674
 6325TIP3    H218940   1.130   3.153   3.933 -0.3344  0.0886 -0.1137
 6326TIP3   OH218941   4.823   1.478   4.344 -0.1910 -0.1640 -0.4070
 6326TIP3    H118942   4.888   1.477   4.275 -0.0368 -1.6711 -0.2717
 6326TIP3    H218943   4.744   1.442   4.304 -0.3861 -0.1334 -0.0601
 6327TIP3   OH218944   3.771   3.857   1.995  0.3951 -0.4595 -0.2960
 6327TIP3    H118945   3.718   3.787   2.032 -0.8541  1.6877  2.3494
 6327TIP3    H218946   3.723   3.885   1.917  0.0015 -1.3734 -0.3949
 6328TIP3   OH218947   5.739   5.137   5.564  0.1926 -0.0188 -0.1663
 6328TIP3    H118948   5.694   5.087   5.496  4.2132  0.1238 -3.2653
 6328TIP3    H218949   5.736   5.227   5.534  0.2477  0.3743  0.9724
 6329TIP3   OH218950   4.486   2.919   2.337  0.3035  0.6065 -0.0955
 6329TIP3    H118951   4.489   2.829   2.302  1.9703  1.4712 -2.4016
 6329TIP3    H218952   4.397   2.928   2.372  0.0966 -1.9247  0.2179
 6330TIP3   OH218953   5.276   0.564   0.140 -0.0806  0.1327 -0.6439
 6330TIP3    H118954   5.277   0.474   0.109 -0.7699 -0.4542  0.9026
 6330TIP3    H218955   5.320   0.614   0.071  0.4120 -1.3878 -1.4861
 6331TIP3   OH218956   1.799   4.696   3.961 -0.0226  0.5720  0.2198
 6331TIP3    H118957   1.760   4.782   3.948  1.0172  1.1042  0.5189
 6331TIP3    H218958   1.887   4.704   3.925  0.1224 -0.3272  0.3591
 6332TIP3   OH218959   4.872   2.128   0.798 -0.1270 -0.6371 -0.3006
 6332TIP3    H118960   4.865   2.223   0.814  1.3801 -0.6072  0.4622
 6332TIP3    H218961   4.828   2.088   0.873  0.7569 -0.5122  0.3029
 6333TIP3   OH218962   0.191   5.889   0.794 -0.6678  0.2626 -0.2203
 6333TIP3    H118963   0.122   5.836   0.833  1.2437 -1.8641  0.5253
 6333TIP3    H218964   0.221   5.945   0.866  0.5278 -1.1864  0.4694
 6334TIP3   OH218965   1.281   2.461   4.195  0.4015 -0.2370  0.2191
 6334TIP3    H118966   1.309   2.465   4.287 -1.2667  0.5573  0.7147
 6334TIP3    H218967   1.187   2.478   4.197  0.4848  0.6771 -1.7320
 6335TIP3   OH218968   6.261   5.853   0.779 -0.3420  0.1203 -0.1760
 6335TIP3    H118969   6.340   5.892   0.817 -0.2294 -2.8723  3.1853
 6335TIP3    H218970   6.199   5.849   0.852 -1.2497 -3.3550 -0.9798
 6336TIP3   OH218971   0.312   6.408   3.589  0.1661  0.4604  0.1546
 6336TIP3    H118972   0.225   6.444   3.571  0.7184  0.7071 -2.6245
 6336TIP3    H218973   0.297   6.317   3.613 -0.8638  0.1857 -1.3687
 6337TIP3   OH218974   6.322   6.715   2.207  0.6585 -0.2729  0.1296
 6337TIP3    H118975   6.397   6.773   2.220  0.4184  0.1005 -0.1370
 6337TIP3    H218976   6.263   6.735   2.280  0.3248  0.2197 -0.2699
 6338TIP3   OH218977   1.751   1.604   1.168  0.1897  0.6713  0.1763
 6338TIP3    H118978   1.803   1.684   1.158 -0.0359  0.7045 -0.8761
 6338TIP3    H218979   1.677   1.616   1.108  0.8681 -0.8807 -1.0479
 6339TIP3   OH218980   0.050   1.416   0.086 -0.1416 -0.5889 -0.0067
 6339TIP3    H118981   0.001   1.371   0.018  1.5627 -1.5030 -0.6999
 6339TIP3    H218982   0.049   1.508   0.060  0.5294 -0.9324 -1.3197
 6340TIP3   OH218983   2.297   1.285   3.520 -0.2243 -0.3545  0.6302
 6340TIP3    H118984   2.369   1.246   3.570  0.2776 -0.3201 -0.0475
 6340TIP3    H218985   2.325   1.277   3.428 -1.9671 -2.2166  0.1852
 6341TIP3   OH218986   2.533   1.608   2.673 -0.0194  0.7018  0.4776
 6341TIP3    H118987   2.470   1.591   2.743  0.4505 -1.4170  0.4435
 6341TIP3    H218988   2.482   1.653   2.605 -1.0140  0.7371  1.2252
 6342TIP3   OH218989   0.692   0.559   3.367  0.5248 -0.2130 -0.2160
 6342TIP3    H118990   0.626   0.510   3.318  0.0973 -0.2797  0.4226
 6342TIP3    H218991   0.644   0.599   3.440  1.1794 -0.2204  0.2298
 6343TIP3   OH218992   4.512   5.198   1.922 -0.3866 -0.1889 -0.7048
 6343TIP3    H118993   4.447   5.159   1.980 -0.5805  0.0119 -0.7836
 6343TIP3    H218994   4.464   5.214   1.840 -1.2517  3.1438  0.2606
 6344TIP3   OH218995   4.037   6.437   1.524 -0.1197  0.1670 -0.1235
 6344TIP3    H118996   4.098   6.493   1.477  2.6788 -2.0799  0.4949
 6344TIP3    H218997   3.984   6.497   1.577  1.5494  2.2894 -0.7168
 6345TIP3   OH218998   3.251   6.161   1.040 -0.8758  1.3022  0.5029
 6345TIP3    H118999   3.248   6.134   0.949 -0.3063 -1.2360  1.1621
 6345TIP3    H219000   3.330   6.214   1.047  0.4995 -0.5642 -0.0426
 6346TIP3   OH219001   6.101   5.060   3.733  0.5835 -0.5422 -0.4194
 6346TIP3    H119002   6.162   5.110   3.787 -0.5725  0.9550 -0.4393
 6346TIP3    H219003   6.135   4.971   3.734  1.4536 -0.2289  1.5009
 6347TIP3   OH219004   4.989   3.976   3.471  0.3135  0.0711  0.1075
 6347TIP3    H119005   5.081   3.990   3.448  0.2311  0.5026  0.0370
 6347TIP3    H219006   4.986   3.886   3.504  1.0985  0.6104  1.7740
 6348TIP3   OH219007   6.679   0.712   3.252 -0.4954 -0.0014 -0.5320
 6348TIP3    H119008   6.657   0.770   3.324  1.1035  0.3700 -0.2924
 6348TIP3    H219009   6.682   0.625   3.291  0.3750  0.2003 -0.1301
 6349TIP3   OH219010   5.512   4.218   2.188  0.7224  0.3240 -0.3072
 6349TIP3    H119011   5.604   4.192   2.201  0.1564 -0.6014  2.5376
 6349TIP3    H219012   5.500   4.292   2.247  0.2796  2.2882 -2.7311
 6350TIP3   OH219013   0.402   3.026   1.234  0.4008 -0.0614  0.0770
 6350TIP3    H119014   0.317   2.981   1.236  0.6750 -0.6390 -0.6541
 6350TIP3    H219015   0.380   3.119   1.239 -0.2585 -0.2222  0.2389
 6351TIP3   OH219016   0.297   2.021   4.247 -0.2400  0.7108 -0.4630
 6351TIP3    H119017   0.206   2.001   4.229  0.0428 -0.5844 -0.5188
 6351TIP3    H219018   0.308   2.001   4.340 -0.0499  1.0252 -0.4155
 6352TIP3   OH219019   2.546   0.127   3.094  0.3049  0.2334 -0.0486
 6352TIP3    H119020   2.499   0.044   3.103 -0.2023  0.6100  1.0136
 6352TIP3    H219021   2.593   0.137   3.177  1.8922  0.1181 -0.8965
 6353TIP3   OH219022   2.973   2.551   3.439  0.0072 -0.1129  0.1996
 6353TIP3    H119023   2.909   2.621   3.449 -1.1119 -0.8014 -1.5606
 6353TIP3    H219024   2.927   2.472   3.469 -0.1099 -0.6509 -1.2818
 6354TIP3   OH219025   6.667   5.542   0.199 -0.1192  0.0397 -0.1970
 6354TIP3    H119026   6.596   5.590   0.242 -1.1911 -1.7426  0.1245
 6354TIP3    H219027   6.738   5.542   0.264  0.5994  2.6313 -0.8727
 6355TIP3   OH219028   6.338   4.688   1.229  0.4503  0.5572 -0.1380
 6355TIP3    H119029   6.332   4.607   1.180 -0.9724 -0.3249  1.3842
 6355TIP3    H219030   6.364   4.661   1.318  0.0531  1.7595  0.3713
 6356TIP3   OH219031   1.553   1.612   0.523 -0.6882 -0.2134  0.6560
 6356TIP3    H119032   1.507   1.587   0.443  1.0281 -1.1642 -0.0847
 6356TIP3    H219033   1.594   1.532   0.554 -1.0746  0.2113  2.3463
 6357TIP3   OH219034   6.738   0.736   3.807 -0.3716  0.0747  0.0743
 6357TIP3    H119035   6.815   0.772   3.850  0.0995 -1.5887  0.6944
 6357TIP3    H219036   6.738   0.644   3.831 -1.3171 -0.4421 -1.7382
 6358TIP3   OH219037   3.933   2.663   3.906  0.1187  0.8970 -0.1741
 6358TIP3    H119038   4.021   2.629   3.919 -0.5769 -0.9379 -0.0367
 6358TIP3    H219039   3.943   2.758   3.915  2.1529  0.7875 -0.6627
 6359TIP3   OH219040   0.466   4.717   5.131  0.1292  0.5890  0.2976
 6359TIP3    H119041   0.510   4.633   5.142  0.1316  0.6132  0.4782
 6359TIP3    H219042   0.433   4.739   5.219  3.3649  2.5656  1.1907
 6360TIP3   OH219043   5.132   0.750   0.908 -0.6542 -0.2064  0.1338
 6360TIP3    H119044   5.070   0.692   0.953 -1.7976 -0.1972 -1.3628
 6360TIP3    H219045   5.116   0.735   0.815 -1.4203  2.9186 -0.3565
 6361TIP3   OH219046   6.222   2.176   1.979  0.1998  0.3078  0.8249
 6361TIP3    H119047   6.267   2.144   2.058 -1.2812 -1.2500  1.0856
 6361TIP3    H219048   6.213   2.270   1.993  0.6874  0.1804  2.1248
 6362TIP3   OH219049   5.284   4.472   1.508 -0.2680  0.2165 -0.4183
 6362TIP3    H119050   5.292   4.523   1.427 -5.0103  0.9068 -0.7477
 6362TIP3    H219051   5.254   4.535   1.573 -0.0324 -1.0034  0.9115
 6363TIP3   OH219052   0.931   1.431   5.429  0.0140 -0.0872 -0.1221
 6363TIP3    H119053   0.857   1.427   5.489  0.4895  1.3726  0.6064
 6363TIP3    H219054   0.996   1.486   5.474  1.3966 -1.0191 -0.8921
 6364TIP3   OH219055   0.570   6.259   2.795 -1.0280 -0.2467 -0.0345
 6364TIP3    H119056   0.512   6.249   2.720 -0.3402  0.1297 -0.6211
 6364TIP3    H219057   0.571   6.353   2.813 -1.7432 -0.3945  0.9057
 6365TIP3   OH219058   1.454   4.243   0.827  0.8915  0.1513 -0.0390
 6365TIP3    H119059   1.482   4.328   0.861  0.1576 -0.3522  2.0371
 6365TIP3    H219060   1.534   4.202   0.796  1.3862  1.2585 -0.2936
 6366TIP3   OH219061   3.248   2.670   5.354 -0.8531 -0.6753  1.3061
 6366TIP3    H119062   3.294   2.752   5.335 -0.6498 -1.1884 -0.6225
 6366TIP3    H219063   3.303   2.626   5.418  0.0150 -0.1507  0.9394
 6367TIP3   OH219064   2.580   1.674   4.430 -0.4600  0.0435 -0.4834
 6367TIP3    H119065   2.527   1.663   4.509  0.6621 -0.5986  0.2091
 6367TIP3    H219066   2.645   1.739   4.454  3.2652 -3.8046  1.0675
 6368TIP3   OH219067   6.739   2.778   4.878  0.1526 -0.4300  0.5979
 6368TIP3    H119068   6.711   2.764   4.969 -0.3507  0.2481  0.5568
 6368TIP3    H219069   6.719   2.870   4.861  1.0423 -0.3284  0.0707
 6369TIP3   OH219070   3.899   3.845   5.809 -0.3966 -0.0521 -0.3108
 6369TIP3    H119071   3.821   3.899   5.798 -0.1706  0.2868 -0.2375
 6369TIP3    H219072   3.969   3.893   5.765 -0.4698 -0.9199 -1.4399
 6370TIP3   OH219073   2.772   0.235   1.617 -0.3451 -0.1745 -0.2644
 6370TIP3    H119074   2.707   0.299   1.587  0.4358  1.5535  1.5068
 6370TIP3    H219075   2.738   0.206   1.703  0.1694 -0.8763 -0.2918
 6371TIP3   OH219076   2.161   0.505   3.310  0.0058 -0.3260 -0.1705
 6371TIP3    H119077   2.118   0.577   3.355  0.4583  0.5253 -1.0636
 6371TIP3    H219078   2.134   0.514   3.218  5.0468  2.7763 -1.7699
 6372TIP3   OH219079   7.185   4.886   1.525  0.2316 -0.4667 -0.4518
 6372TIP3    H119080   7.240   4.894   1.447 -1.2768  0.3435 -1.4742
 6372TIP3    H219081   7.187   4.792   1.545  2.7891 -0.3595  0.2062
 6373TIP3   OH219082   3.264   2.797   3.208  0.1307  0.0146 -0.5105
 6373TIP3    H119083   3.354   2.801   3.176  0.3708  0.8976  0.2366
 6373TIP3    H219084   3.245   2.704   3.214  1.4556 -0.2160  0.5615
 6374TIP3   OH219085   0.460   0.350   5.078  0.4673  0.0577  0.0664
 6374TIP3    H119086   0.370   0.346   5.111  0.9268 -0.3036  1.3518
 6374TIP3    H219087   0.510   0.387   5.151  1.5160 -0.6509 -0.2747
 6375TIP3   OH219088   0.729   3.284   3.928  0.2658 -0.1681  0.4043
 6375TIP3    H119089   0.771   3.206   3.893  1.1692  0.1138  0.8171
 6375TIP3    H219090   0.802   3.340   3.955 -0.3806  0.1792  1.5060
 6376TIP3   OH219091   1.817   6.525   3.551 -0.5000  0.3151 -0.3269
 6376TIP3    H119092   1.849   6.556   3.636 -0.8684  1.5359 -0.6154
 6376TIP3    H219093   1.896   6.503   3.503 -0.2507  0.2577  0.1010
 6377TIP3   OH219094   0.197   1.503   4.302 -0.5338  0.3906 -0.7476
 6377TIP3    H119095   0.217   1.510   4.396  1.1659  1.2012 -1.1417
 6377TIP3    H219096   0.262   1.442   4.268 -1.8441 -0.7912 -1.2520
 6378TIP3   OH219097   6.433   6.565   4.350  0.0643  0.2002  0.0707
 6378TIP3    H119098   6.495   6.524   4.411 -0.5868 -1.1220 -0.1268
 6378TIP3    H219099   6.347   6.549   4.388 -0.1822  2.1565  0.4190
 6379TIP3   OH219100   4.488   1.265   5.458 -0.1533 -0.1604  0.4905
 6379TIP3    H119101   4.554   1.218   5.509 -0.8363 -0.2222  1.3319
 6379TIP3    H219102   4.411   1.268   5.515 -0.2376  1.6802  0.3399
 6380TIP3   OH219103   6.229   4.611   1.697  0.0870  0.1455 -0.1475
 6380TIP3    H119104   6.298   4.672   1.724  1.5596 -1.0864 -1.0077
 6380TIP3    H219105   6.194   4.649   1.617 -0.3112  0.8125  0.3301
 6381TIP3   OH219106   4.374   2.416   1.987 -1.1842 -0.4454  0.1636
 6381TIP3    H119107   4.410   2.371   2.064  0.2683  0.5994  0.1352
 6381TIP3    H219108   4.448   2.462   1.949 -2.7304  2.9514  0.8644
 6382TIP3   OH219109   3.043   2.493   5.331 -0.2027 -0.0931 -0.4900
 6382TIP3    H119110   3.124   2.544   5.331 -0.5307  0.4398 -0.9822
 6382TIP3    H219111   2.978   2.551   5.370 -0.3025 -0.5981  0.1034
 6383TIP3   OH219112   3.552   1.920   4.243 -0.0478 -0.3892 -0.5150
 6383TIP3    H119113   3.587   1.924   4.332  0.5095 -2.3052 -0.6035
 6383TIP3    H219114   3.623   1.882   4.192 -0.6990 -0.1656 -1.6128
 6384TIP3   OH219115   0.345   0.495   4.360 -0.2407  0.1454 -0.1682
 6384TIP3    H119116   0.413   0.492   4.293 -0.1793  0.1120 -0.1037
 6384TIP3    H219117   0.389   0.468   4.441 -0.5310 -0.7402 -0.2945
 6385TIP3   OH219118   0.143   3.711   5.217 -0.6475  0.4718  0.5291
 6385TIP3    H119119   0.193   3.742   5.142 -0.0842  0.6220  0.9605
 6385TIP3    H219120   0.058   3.685   5.181  0.0920 -0.7974 -0.3942
 6386TIP3   OH219121   6.894   4.316   2.616 -0.2385 -0.8667  0.7723
 6386TIP3    H119122   6.952   4.256   2.567  0.4935 -0.3728  1.0133
 6386TIP3    H219123   6.942   4.399   2.618 -0.9917 -0.4280  0.9353
 6387TIP3   OH219124   5.144   2.506   5.791  0.0663  0.1098  0.1402
 6387TIP3    H119125   5.074   2.533   5.851 -1.1312  2.8670 -2.2688
 6387TIP3    H219126   5.182   2.588   5.760  0.8772 -1.1597 -2.5526
 6388TIP3   OH219127   1.534   4.059   2.912  0.0916  0.5625  0.6867
 6388TIP3    H119128   1.495   4.143   2.885 -1.8436  0.2780  2.3978
 6388TIP3    H219129   1.605   4.084   2.972  1.0457  0.9927 -0.5538
 6389TIP3   OH219130   2.885   0.508   5.588 -0.0729 -0.1304 -0.3225
 6389TIP3    H119131   2.968   0.471   5.558 -0.3869 -1.3708  0.2958
 6389TIP3    H219132   2.856   0.563   5.515  1.1713  0.1525 -0.6328
 6390TIP3   OH219133   5.965   2.167   4.294  0.6232  0.1691  0.3635
 6390TIP3    H119134   5.940   2.077   4.271  1.6811 -0.0101 -0.1215
 6390TIP3    H219135   5.945   2.174   4.388  0.1276 -0.4285  0.3090
 6391TIP3   OH219136   7.198   5.810   4.250 -0.1333  0.0685  0.2531
 6391TIP3    H119137   7.229   5.884   4.199 -1.0691  0.3057  0.0098
 6391TIP3    H219138   7.134   5.847   4.310 -0.4602 -0.5017  0.2684
 6392TIP3   OH219139   1.536   2.175   5.283 -0.8571 -0.3406  0.0589
 6392TIP3    H119140   1.620   2.143   5.249 -1.5756  0.9611 -3.3042
 6392TIP3    H219141   1.559   2.222   5.363  1.4419 -1.1099 -0.0731
 6393TIP3   OH219142   6.869   0.926   2.311 -0.3129 -0.1385 -0.3354
 6393TIP3    H119143   6.862   0.860   2.242  2.7036  0.6305 -1.5395
 6393TIP3    H219144   6.820   1.001   2.278 -0.7773 -0.5359 -0.5725
 6394TIP3   OH219145   4.068   0.068   1.480 -0.2618 -0.0948  0.2278
 6394TIP3    H119146   4.155   0.048   1.444 -0.9994 -0.5841 -1.3635
 6394TIP3    H219147   4.025   0.120   1.413 -2.4089 -2.6648 -0.5921
 6395TIP3   OH219148   4.585   6.137   0.129 -0.5153 -0.0695 -0.4204
 6395TIP3    H119149   4.633   6.169   0.052 -2.3646  1.7115 -0.9349
 6395TIP3    H219150   4.504   6.102   0.093  0.0073 -2.3549  0.4854
 6396TIP3   OH219151   0.833   4.290   5.253  0.1352 -0.5651  0.3800
 6396TIP3    H119152   0.863   4.274   5.163 -1.1470  4.3091 -1.2670
 6396TIP3    H219153   0.906   4.335   5.295 -0.3760  0.0885  0.5925
 6397TIP3   OH219154   5.017   0.636   3.560 -0.0482  0.2809  0.0120
 6397TIP3    H119155   4.963   0.708   3.528  0.3720  1.7092  2.3133
 6397TIP3    H219156   5.104   0.653   3.525 -0.8051 -1.8210 -3.3887
 6398TIP3   OH219157   7.092   5.525   0.235  0.6189 -0.3071 -0.0051
 6398TIP3    H119158   7.179   5.509   0.270  1.0925  0.7881 -0.6124
 6398TIP3    H219159   7.106   5.588   0.164 -0.5916 -0.5873 -0.5198
 6399TIP3   OH219160   2.968   5.085   5.604  0.1885 -0.0801  0.5598
 6399TIP3    H119161   2.962   5.175   5.573 -0.3266 -0.2948  0.0126
 6399TIP3    H219162   3.035   5.045   5.548 -0.4258 -0.3487  0.0035
 6400TIP3   OH219163   1.243   5.089   5.830 -0.3309  0.1232  0.3523
 6400TIP3    H119164   1.325   5.128   5.801 -0.1191 -0.3015  0.3839
 6400TIP3    H219165   1.264   4.998   5.849 -1.1938 -0.5168 -1.4621
 6401TIP3   OH219166   6.654   4.940   1.599 -1.0754  0.2215 -0.5808
 6401TIP3    H119167   6.743   4.930   1.631 -0.7038  2.6095 -0.6939
 6401TIP3    H219168   6.621   5.018   1.644 -3.0521 -0.4982 -0.6834
 6402TIP3   OH219169   1.213   1.405   3.747  0.0920 -0.4361  0.0196
 6402TIP3    H119170   1.190   1.494   3.775 -0.1701 -0.6862  0.5987
 6402TIP3    H219171   1.160   1.391   3.668 -2.0811 -1.1367  1.5346
 6403TIP3   OH219172   0.776   3.436   0.218  0.2432  0.3641  0.2400
 6403TIP3    H119173   0.836   3.372   0.257 -1.4524  0.2858  3.0076
 6403TIP3    H219174   0.833   3.496   0.169  2.2035 -1.4159  0.1838
 6404TIP3   OH219175   6.418   0.373   2.845 -0.3282  0.9249  0.3883
 6404TIP3    H119176   6.455   0.362   2.933 -1.3747  2.2520  1.0197
 6404TIP3    H219177   6.490   0.410   2.794  1.1220 -2.1788 -0.0564
 6405TIP3   OH219178   4.700   4.136   1.633  0.0703 -0.0863  0.1805
 6405TIP3    H119179   4.617   4.182   1.620 -0.9282 -1.3391  1.7275
 6405TIP3    H219180   4.730   4.164   1.720 -0.6890 -2.3851  1.2828
 6406TIP3   OH219181   3.675   0.406   4.474  0.0213  0.0775  0.1850
 6406TIP3    H119182   3.689   0.478   4.413 -0.4197  0.6306  0.7193
 6406TIP3    H219183   3.762   0.389   4.511  0.2232 -0.0217 -0.3196
 6407TIP3   OH219184   6.393   1.529   3.668  0.0705  0.5233 -0.5733
 6407TIP3    H119185   6.377   1.479   3.589  0.7466  0.1469 -0.4796
 6407TIP3    H219186   6.439   1.468   3.726 -2.3051  0.0675  0.9670
 6408TIP3   OH219187   1.555   3.331   1.287 -0.5392 -0.1024 -0.8262
 6408TIP3    H119188   1.479   3.372   1.246  0.4376  3.6159  0.6778
 6408TIP3    H219189   1.553   3.362   1.378  1.0331 -2.5979  0.1771
 6409TIP3   OH219190   2.077   1.349   4.696 -0.3744  0.4296  0.1470
 6409TIP3    H119191   2.160   1.389   4.673  1.3754 -2.5776  0.7240
 6409TIP3    H219192   2.100   1.276   4.753 -3.4390 -0.4415  0.4569
 6410TIP3   OH219193   0.322   3.463   5.222  0.2950 -0.0421  0.6391
 6410TIP3    H119194   0.354   3.374   5.207 -0.9013 -0.4722  0.5792
 6410TIP3    H219195   0.294   3.493   5.135 -0.2452  0.0115  0.8301
 6411TIP3   OH219196   2.887   2.526   1.051 -0.0331 -0.3929  0.4062
 6411TIP3    H119197   2.839   2.604   1.025  0.6531  0.8294  2.5822
 6411TIP3    H219198   2.922   2.491   0.969  0.1780  1.9378 -0.5688
 6412TIP3   OH219199   6.560   0.792   0.526  0.2990  0.6148  0.2571
 6412TIP3    H119200   6.563   0.723   0.593  0.5500  0.7452  0.3829
 6412TIP3    H219201   6.559   0.873   0.577  3.5615  0.8740  0.1600
 6413TIP3   OH219202   2.715   0.389   3.511  0.3827 -0.0382  0.1634
 6413TIP3    H119203   2.643   0.425   3.564 -0.2538 -0.3999 -0.4383
 6413TIP3    H219204   2.787   0.449   3.525 -0.3128  0.8405  0.0840
 6414TIP3   OH219205   5.857   0.486   3.252  0.1628  0.2749 -0.5357
 6414TIP3    H119206   5.862   0.575   3.218 -0.8146  0.0984 -1.1721
 6414TIP3    H219207   5.799   0.440   3.192  1.0699 -0.9452 -0.5210
 6415TIP3   OH219208   5.097   2.014   4.187  0.0292 -0.4490 -0.3941
 6415TIP3    H119209   5.066   1.925   4.168  0.7271 -1.2127  1.7521
 6415TIP3    H219210   5.174   2.001   4.241  0.0519  1.4827  0.0907
 6416TIP3   OH219211   2.133   5.648   1.906  0.6356  0.3224 -0.4918
 6416TIP3    H119212   2.045   5.612   1.896 -0.1331  1.8022  0.6391
 6416TIP3    H219213   2.128   5.737   1.872  1.5954  0.5492 -0.0944
 6417TIP3   OH219214   1.372   4.141   3.839 -0.0642  0.2168  0.2132
 6417TIP3    H119215   1.359   4.105   3.751  0.6180  0.4563  0.0057
 6417TIP3    H219216   1.352   4.235   3.830 -1.2958  0.0118  0.6255
 6418TIP3   OH219217   0.608   4.143   3.743  0.0424  0.0142 -0.6852
 6418TIP3    H119218   0.630   4.074   3.681  0.2676  0.5552 -1.2267
 6418TIP3    H219219   0.616   4.103   3.829 -0.3065 -0.7604 -1.0067
 6419TIP3   OH219220  -0.037   3.928   4.793 -0.4009  0.0437 -0.1211
 6419TIP3    H119221   0.037   3.978   4.760 -0.4809  0.4889  0.3522
 6419TIP3    H219222   0.002   3.845   4.822 -0.4949 -0.8080 -2.2934
 6420TIP3   OH219223   6.102   1.662   3.623  0.1698 -1.1586 -0.4396
 6420TIP3    H119224   6.100   1.697   3.713  1.6303  0.7443 -1.0706
 6420TIP3    H219225   6.190   1.625   3.615 -0.0421 -1.5363 -1.0264
 6421TIP3   OH219226   3.453   6.717   3.354  0.5637 -0.2227 -0.2877
 6421TIP3    H119227   3.476   6.704   3.446 -1.3047  0.6321  0.3702
 6421TIP3    H219228   3.428   6.630   3.323  1.3619 -0.5459 -0.0534
 6422TIP3   OH219229   7.194   2.809   1.442 -0.2056  0.2746  0.0916
 6422TIP3    H119230   7.161   2.898   1.433 -0.2961  0.4366  1.6810
 6422TIP3    H219231   7.116   2.754   1.433  0.0020  0.2436 -1.9726
 6423TIP3   OH219232   1.749   1.892   3.939  0.6874 -0.0276 -0.3404
 6423TIP3    H119233   1.816   1.824   3.945  0.1359 -0.5750 -0.2924
 6423TIP3    H219234   1.674   1.856   3.985  0.7314  1.0550  0.6262
 6424TIP3   OH219235   0.272   5.993   2.058  0.4765  0.2512 -0.5827
 6424TIP3    H119236   0.187   6.009   2.018  0.4463 -0.8399 -0.9897
 6424TIP3    H219237   0.314   5.929   2.000  1.6029  0.8165 -0.4230
 6425TIP3   OH219238   0.966   5.163   2.238  0.3439 -0.5059  0.1098
 6425TIP3    H119239   0.969   5.209   2.322  1.5598 -1.0700  0.3865
 6425TIP3    H219240   0.876   5.131   2.233  0.2058 -0.3249  1.1235
 6426TIP3   OH219241   2.665   4.166   2.289  0.0238  0.3191  0.5512
 6426TIP3    H119242   2.744   4.112   2.280 -1.1351 -1.4091  0.1476
 6426TIP3    H219243   2.668   4.225   2.213  0.9184  0.2740  0.5387
 6427TIP3   OH219244   1.490   2.042   5.626 -0.0018  0.1040 -0.0156
 6427TIP3    H119245   1.563   1.987   5.596 -0.7678 -0.5642 -0.7035
 6427TIP3    H219246   1.518   2.132   5.607  0.9024 -0.0972  0.3242
 6428TIP3   OH219247   5.886   5.671   1.891 -0.1708 -0.4030 -0.3139
 6428TIP3    H119248   5.813   5.610   1.883 -0.9057  0.1177  1.6827
 6428TIP3    H219249   5.876   5.709   1.979  2.4388 -0.2397  0.0016
 6429TIP3   OH219250   1.781   2.761   5.257  0.6823 -0.4178  0.3632
 6429TIP3    H119251   1.706   2.741   5.313 -0.2974  1.3067 -0.2742
 6429TIP3    H219252   1.743   2.774   5.170  1.6884  0.6573  0.0634
 6430TIP3   OH219253   6.292   3.023   3.104 -0.2810  0.0811  0.0865
 6430TIP3    H119254   6.264   2.987   3.188 -1.4609  0.4353 -0.1323
 6430TIP3    H219255   6.269   3.116   3.109  2.8009  0.9233  0.6897
 6431TIP3   OH219256   4.815   5.621   1.790 -0.1200 -0.4882  0.0134
 6431TIP3    H119257   4.811   5.657   1.701 -1.4729 -0.8055 -0.0891
 6431TIP3    H219258   4.837   5.529   1.777 -3.0116 -1.2368 -0.2735
 6432TIP3   OH219259   4.342   6.355   4.806 -0.2903 -0.5854  0.1024
 6432TIP3    H119260   4.394   6.360   4.886 -0.3226 -0.3556  0.1089
 6432TIP3    H219261   4.290   6.436   4.806  1.4102  0.5749 -1.3425
 6433TIP3   OH219262   5.522   6.552   2.100 -0.5139 -0.3809 -0.0729
 6433TIP3    H119263   5.584   6.492   2.141 -1.9148 -2.3620 -0.7333
 6433TIP3    H219264   5.453   6.564   2.165  0.8705  2.5473  1.0293
 6434TIP3   OH219265   5.033   2.536   5.333  0.2327  0.0972  0.3762
 6434TIP3    H119266   5.067   2.564   5.248 -1.9295  0.1893 -0.5196
 6434TIP3    H219267   5.007   2.617   5.377 -1.4983 -0.1167 -0.1876
 6435TIP3   OH219268   4.009   6.221   4.230  0.7529  0.0935 -0.7380
 6435TIP3    H119269   3.951   6.170   4.174  0.1659 -0.0327 -0.0381
 6435TIP3    H219270   4.097   6.203   4.197  0.5394 -1.2175 -0.6308
 6436TIP3   OH219271   4.018   2.662   3.494 -0.5567  0.2171 -0.5022
 6436TIP3    H119272   4.043   2.575   3.522  1.7344  0.5104 -1.4257
 6436TIP3    H219273   3.998   2.653   3.401  2.1213  1.0172 -1.2457
 6437TIP3   OH219274   6.679   5.134   4.920  0.2819 -0.1875 -0.0405
 6437TIP3    H119275   6.731   5.087   4.986  0.2119 -0.0551  0.1099
 6437TIP3    H219276   6.699   5.090   4.838 -0.6332 -1.2083  0.2551
 6438TIP3   OH219277   1.946   5.782   2.720 -0.4643  0.2095  0.4284
 6438TIP3    H119278   1.851   5.774   2.729 -0.6153  0.3956 -0.9064
 6438TIP3    H219279   1.972   5.712   2.661  0.3806 -0.4415  1.5286
 6439TIP3   OH219280   1.879   1.366   1.760 -0.2124  0.2099 -0.1213
 6439TIP3    H119281   1.876   1.437   1.696  0.1321 -1.8195 -2.5459
 6439TIP3    H219282   1.971   1.362   1.788  0.4891 -1.1353 -2.3467
 6440TIP3   OH219283   5.122   3.397   3.861  0.2125  0.3610 -0.3528
 6440TIP3    H119284   5.092   3.455   3.791 -2.5998 -1.8127 -1.1126
 6440TIP3    H219285   5.169   3.327   3.815 -0.2685 -0.2545  0.0808
 6441TIP3   OH219286   6.831   6.101   5.354 -0.2174 -0.2741 -0.3524
 6441TIP3    H119287   6.778   6.095   5.275  1.1474  0.3483 -1.3447
 6441TIP3    H219288   6.842   6.195   5.368  0.4536 -0.3929 -0.0503
 6442TIP3   OH219289   5.042   6.203   5.605  0.0238 -0.2108 -0.3838
 6442TIP3    H119290   5.019   6.138   5.539 -1.6903 -0.6898  0.6066
 6442TIP3    H219291   5.136   6.213   5.597  0.5125 -3.4659 -0.0429
 6443TIP3   OH219292   5.067   0.644   4.594 -0.3638  0.7780  0.2563
 6443TIP3    H119293   5.101   0.654   4.683 -1.0550  1.3752  0.4576
 6443TIP3    H219294   5.135   0.594   4.549 -0.6186 -0.7741  1.4885
 6444TIP3   OH219295   3.908   0.310   1.747 -0.2611 -0.5182 -0.4516
 6444TIP3    H119296   3.815   0.293   1.762 -0.6855  0.9451 -1.3133
 6444TIP3    H219297   3.925   0.393   1.791  0.8403 -1.1464  0.3619
 6445TIP3   OH219298   3.610   4.327   4.880 -0.1856 -0.2377 -0.0976
 6445TIP3    H119299   3.645   4.241   4.858  0.4992 -0.3757  1.3874
 6445TIP3    H219300   3.640   4.384   4.810  0.4469 -0.9610 -0.4268
 6446TIP3   OH219301   4.854   5.125   5.355  0.4140 -0.4316 -0.1278
 6446TIP3    H119302   4.763   5.103   5.340  0.7571 -0.9428 -1.6651
 6446TIP3    H219303   4.858   5.151   5.447 -0.8481 -2.5219  0.5872
 6447TIP3   OH219304   4.351   2.960   4.010  0.2346  0.5418  0.1525
 6447TIP3    H119305   4.412   2.979   3.938  0.7997 -1.0087  0.1857
 6447TIP3    H219306   4.264   2.973   3.971  0.5498  1.9547 -0.1328
 6448TIP3   OH219307   2.604   6.377   3.686 -0.3912 -0.0005  0.5021
 6448TIP3    H119308   2.675   6.390   3.748  0.1716 -1.0086  0.0977
 6448TIP3    H219309   2.642   6.398   3.601 -0.9940  0.8210  0.4258
 6449TIP3   OH219310   6.031   4.462   3.315 -0.1893  0.0978  0.2057
 6449TIP3    H119311   6.119   4.484   3.344 -0.8908  0.4565  2.2018
 6449TIP3    H219312   6.031   4.366   3.311 -0.2462 -0.0302  2.1943
 6450TIP3   OH219313   1.175   4.995   4.287 -0.6475  0.2901 -0.1574
 6450TIP3    H119314   1.256   4.947   4.304 -0.0612  1.8099  1.7298
 6450TIP3    H219315   1.116   4.970   4.359 -1.2404  0.5050 -0.5552
 6451TIP3   OH219316   3.453   2.742   0.962  0.4338  0.2751 -0.3990
 6451TIP3    H119317   3.413   2.718   1.046  1.3095  0.3394  0.0502
 6451TIP3    H219318   3.457   2.838   0.964  3.2667  0.2352  0.8936
 6452TIP3   OH219319   5.384   5.172   4.951  0.0853  0.4911 -0.1246
 6452TIP3    H119320   5.379   5.117   4.873 -0.4443 -1.0252  0.9472
 6452TIP3    H219321   5.424   5.116   5.017  1.4365  2.0634  0.4651
 6453TIP3   OH219322   5.325   1.608   5.458  0.5454 -0.6667 -0.3151
 6453TIP3    H119323   5.379   1.541   5.416 -1.3074 -1.8335 -0.9911
 6453TIP3    H219324   5.245   1.562   5.482  0.5887  0.5191  2.4919
 6454TIP3   OH219325   0.070   6.637   0.717  0.0923  0.3709  0.1954
 6454TIP3    H119326   0.107   6.681   0.641  0.5726  0.4505  0.4684
 6454TIP3    H219327   0.127   6.662   0.789  1.3400 -1.9557  0.0973
 6455TIP3   OH219328   2.584   3.369   4.897  0.2021 -0.2616  0.0557
 6455TIP3    H119329   2.679   3.356   4.901 -0.0069 -1.7172  1.1561
 6455TIP3    H219330   2.563   3.367   4.804  1.1617 -0.7103 -0.1598
 6456TIP3   OH219331   1.623   4.180   2.635 -0.2616 -0.1798 -0.9618
 6456TIP3    H119332   1.645   4.115   2.701 -0.2831 -1.7487 -2.4286
 6456TIP3    H219333   1.705   4.227   2.620 -0.6363  1.3592  1.3110
 6457TIP3   OH219334   0.656   4.328   1.025  0.0821 -0.3389  0.1291
 6457TIP3    H119335   0.574   4.375   1.037 -0.6105 -1.8490  1.7465
 6457TIP3    H219336   0.724   4.395   1.036 -0.8792  0.4357  1.6274
 6458TIP3   OH219337   3.750   3.210   5.501  0.2429  0.6327 -0.2675
 6458TIP3    H119338   3.703   3.163   5.570  0.9840 -0.9271 -0.7929
 6458TIP3    H219339   3.680   3.249   5.447 -0.3537  2.4730  1.6794
 6459TIP3   OH219340   6.215   1.822   3.272 -0.1205  0.3486  0.0003
 6459TIP3    H119341   6.176   1.906   3.249  1.2229  1.3625  1.2881
 6459TIP3    H219342   6.271   1.841   3.347 -1.5916 -2.1198  1.8787
 6460TIP3   OH219343   6.908   1.427   4.264 -0.1221  0.2873 -0.5632
 6460TIP3    H119344   6.868   1.514   4.272  1.6818  1.0284  1.6928
 6460TIP3    H219345   6.993   1.436   4.308  0.0431 -2.6843 -0.0897
 6461TIP3   OH219346   1.677   3.638   3.062 -0.3780  0.0887 -0.2977
 6461TIP3    H119347   1.596   3.690   3.066 -0.5037  0.1829 -2.4866
 6461TIP3    H219348   1.656   3.565   3.004  0.1763 -1.7849  1.7512
 6462TIP3   OH219349   3.511   0.689   2.425  0.1804 -0.0825 -0.2686
 6462TIP3    H119350   3.452   0.664   2.496  0.3915 -1.9276 -0.7055
 6462TIP3    H219351   3.454   0.717   2.354 -0.1529 -0.9898 -0.3677
 6463TIP3   OH219352   0.514   2.071   5.468  0.8179  0.0428  0.4386
 6463TIP3    H119353   0.558   2.035   5.545  1.5600 -0.5954 -0.2620
 6463TIP3    H219354   0.571   2.142   5.439  0.0320  0.9421  1.0411
 6464TIP3   OH219355   2.380   4.952   2.613 -0.0065  0.2195  0.1527
 6464TIP3    H119356   2.386   4.862   2.646 -0.8639  0.5073  1.1480
 6464TIP3    H219357   2.464   4.967   2.570  0.4319 -0.8062  0.6076
 6465TIP3   OH219358   3.175   2.981   2.010 -0.2143  0.3820  0.3682
 6465TIP3    H119359   3.112   2.952   2.077  0.5817 -0.2811  0.8460
 6465TIP3    H219360   3.224   3.052   2.052 -0.8885  1.1686 -0.1413
 6466TIP3   OH219361   1.164   1.033   2.056  0.0544 -0.4392  0.0267
 6466TIP3    H119362   1.096   1.064   2.116 -0.3075 -2.6824  0.8804
 6466TIP3    H219363   1.156   0.938   2.058 -0.5962 -0.6608 -4.3470
 6467TIP3   OH219364   3.193   5.110   0.413  0.2358  0.3717  0.2108
 6467TIP3    H119365   3.178   5.074   0.501 -0.9118 -2.3801 -0.9749
 6467TIP3    H219366   3.263   5.056   0.377 -0.2404  0.5621 -1.0298
 6468TIP3   OH219367   5.418   2.209   4.050  0.1783 -0.9482 -0.4137
 6468TIP3    H119368   5.447   2.128   4.092 -0.3082 -1.1961 -0.5456
 6468TIP3    H219369   5.443   2.278   4.111  0.7030 -1.1851 -0.3544
 6469TIP3   OH219370   2.860   0.995   1.157 -0.0008  0.0287  0.1055
 6469TIP3    H119371   2.786   1.054   1.142  0.5911  0.5935 -0.6990
 6469TIP3    H219372   2.896   0.980   1.069  0.8340 -0.2461  0.4891
 6470TIP3   OH219373   6.953   3.920   3.111 -0.1849 -0.2615 -0.2645
 6470TIP3    H119374   6.885   3.861   3.145  1.8281 -2.9358 -0.6009
 6470TIP3    H219375   6.937   3.922   3.016 -1.4371  1.4296 -0.0682
 6471TIP3   OH219376   2.918   2.032   0.850 -0.5448  0.5905 -0.1558
 6471TIP3    H119377   2.916   2.029   0.754  1.2462  0.6592 -0.2415
 6471TIP3    H219378   2.840   2.082   0.874 -1.1927  0.3189 -1.5526
 6472TIP3   OH219379   4.033   0.562   1.946 -0.0754  0.1373 -0.0638
 6472TIP3    H119380   3.951   0.604   1.970  0.4900  0.1420  2.0329
 6472TIP3    H219381   4.092   0.634   1.923 -0.2201  0.2402 -0.1109
 6473TIP3   OH219382   5.645   6.686   5.640  0.7667  0.2328  0.3952
 6473TIP3    H119383   5.709   6.672   5.570  0.1806  1.2213 -0.3726
 6473TIP3    H219384   5.695   6.729   5.710  0.9911  0.8976 -0.1539
 6474TIP3   OH219385   3.946   5.273   3.090  0.4043  0.0883  0.2474
 6474TIP3    H119386   3.974   5.193   3.046  0.9528  0.5462 -0.2603
 6474TIP3    H219387   3.993   5.272   3.173  2.0591  0.8706 -0.6135
 6475TIP3   OH219388   0.238   0.111   2.447  0.0522 -0.1337 -0.2571
 6475TIP3    H119389   0.329   0.124   2.474  0.4944 -0.9125 -1.2858
 6475TIP3    H219390   0.202   0.052   2.513  0.1411  0.5525  0.4214
 6476TIP3   OH219391   5.912   6.456   1.181 -0.1929 -0.3593  0.0271
 6476TIP3    H119392   5.832   6.413   1.152 -0.2389 -0.8218  0.7916
 6476TIP3    H219393   5.963   6.471   1.101 -0.9186 -0.3126 -0.4303
 6477TIP3   OH219394   3.629   5.875   5.556  0.3333  0.4574  0.4682
 6477TIP3    H119395   3.540   5.841   5.558  0.2726  0.5817  0.0618
 6477TIP3    H219396   3.629   5.935   5.481  0.5186  1.1144  0.9889
 6478TIP3   OH219397   3.112   1.062   5.757  0.1281 -0.4302 -1.0662
 6478TIP3    H119398   3.142   1.128   5.695  1.0519  0.0246 -0.1596
 6478TIP3    H219399   3.163   1.078   5.836  0.2476 -2.1146 -0.7620
 6479TIP3   OH219400   5.654   5.930   1.086  0.4524 -0.4457  0.2066
 6479TIP3    H119401   5.630   6.011   1.130 -0.0681  0.0068 -0.8852
 6479TIP3    H219402   5.571   5.886   1.069  0.5886 -0.3227 -0.8492
 6480TIP3   OH219403   6.069   4.614   3.831 -0.0007  0.4900  0.7230
 6480TIP3    H119404   6.060   4.676   3.903 -0.2776  0.9754  0.2754
 6480TIP3    H219405   6.018   4.653   3.759 -2.5240 -1.5378  1.2626
 6481TIP3   OH219406   4.935   1.661   3.693 -0.3132 -0.1030 -0.3102
 6481TIP3    H119407   4.965   1.732   3.751 -1.6617  0.7591 -0.6270
 6481TIP3    H219408   4.997   1.590   3.708 -0.6229  0.0793  2.2182
 6482TIP3   OH219409   0.731   2.620   3.583  0.3677  0.1947  0.0483
 6482TIP3    H119410   0.707   2.527   3.577 -0.9123  0.5045  0.1306
 6482TIP3    H219411   0.648   2.667   3.580  0.8899  1.2830  1.4435
 6483TIP3   OH219412   4.115   1.616   3.527  0.0696  0.2949 -0.7207
 6483TIP3    H119413   4.113   1.523   3.507  0.3975  0.6931 -2.9090
 6483TIP3    H219414   4.201   1.630   3.567 -0.1382 -0.4017 -0.0223
 6484TIP3   OH219415   3.442   0.229   0.189  0.2993  0.1191 -0.3729
 6484TIP3    H119416   3.493   0.195   0.115  2.0003  2.2246 -0.2625
 6484TIP3    H219417   3.386   0.296   0.150  0.7158  0.7688  0.1245
 6485TIP3   OH219418   6.438   1.879   2.648  0.8208 -0.0571 -0.0021
 6485TIP3    H119419   6.445   1.927   2.731 -0.2689 -1.1089  0.7183
 6485TIP3    H219420   6.529   1.873   2.618  1.4502 -0.9913  1.9030
 6486TIP3   OH219421   2.267   2.156   3.397 -0.3559  0.7571 -0.1199
 6486TIP3    H119422   2.312   2.093   3.453  0.9349  0.1467 -1.7698
 6486TIP3    H219423   2.191   2.184   3.449 -0.0637 -0.9033  1.2929
 6487TIP3   OH219424   1.900   0.646   4.667  0.2255 -0.1865 -0.2150
 6487TIP3    H119425   1.925   0.734   4.694  0.1995 -0.3644  0.3947
 6487TIP3    H219426   1.864   0.606   4.746  1.0491 -1.0404 -0.2622
 6488TIP3   OH219427   3.296   6.201   2.897  0.1744  0.3527  0.0110
 6488TIP3    H119428   3.227   6.250   2.852 -0.7604 -0.6605  0.2919
 6488TIP3    H219429   3.258   6.179   2.982  0.8782 -0.1530  0.2028
 6489TIP3   OH219430   6.840   5.728   3.059 -0.0948 -0.1462 -0.0656
 6489TIP3    H119431   6.921   5.679   3.079 -0.2412  0.7138  3.1874
 6489TIP3    H219432   6.843   5.803   3.118 -1.6021  1.8900 -2.4375
 6490TIP3   OH219433   2.811   6.635   2.161 -0.0794  0.2395 -0.7286
 6490TIP3    H119434   2.840   6.725   2.144  5.0466 -1.2761 -1.7241
 6490TIP3    H219435   2.809   6.595   2.074  0.3591 -1.2034 -0.0955
 6491TIP3   OH219436   5.702   3.919   3.832  0.0106  0.1727 -0.5088
 6491TIP3    H119437   5.789   3.919   3.792  0.0856  1.7919 -0.4093
 6491TIP3    H219438   5.671   4.009   3.823 -0.5383  0.2883  1.8376
 6492TIP3   OH219439   3.361   3.294   0.983 -0.4976  0.0987 -0.0006
 6492TIP3    H119440   3.446   3.332   1.007 -0.0673 -1.1336  0.4963
 6492TIP3    H219441   3.383   3.209   0.944 -1.4722  0.0766 -0.5298
 6493TIP3   OH219442   4.495   3.902   0.716 -0.0290  0.1885  0.1085
 6493TIP3    H119443   4.514   3.984   0.762  1.7249  0.9980 -1.9248
 6493TIP3    H219444   4.403   3.910   0.691  0.3096  1.9477 -0.7535
 6494TIP3   OH219445   3.368   6.699   2.091  0.2441  0.3483 -0.5985
 6494TIP3    H119446   3.378   6.620   2.037  1.1462  0.4685 -0.6218
 6494TIP3    H219447   3.285   6.687   2.137  1.0552 -1.2955  0.5236
 6495TIP3   OH219448   6.422   4.698   4.714 -0.4691 -0.4554  0.2617
 6495TIP3    H119449   6.370   4.618   4.710 -0.5941 -0.4037  0.7276
 6495TIP3    H219450   6.367   4.760   4.762 -0.4157 -0.0556 -0.1866
 6496TIP3   OH219451   6.953   3.057   0.977  0.7528 -0.3802 -0.1237
 6496TIP3    H119452   6.965   2.996   1.050  0.4855  1.2088  1.3114
 6496TIP3    H219453   7.036   3.054   0.930  1.2628 -0.7916  0.7683
 6497TIP3   OH219454   4.591   0.844   2.203 -0.0049  0.0410  0.2925
 6497TIP3    H119455   4.642   0.764   2.218 -0.9395 -0.4873  0.6993
 6497TIP3    H219456   4.563   0.871   2.290 -0.8627  0.0354  0.0235
 6498TIP3   OH219457   4.229   1.970   3.269 -0.1759 -0.2631 -0.4166
 6498TIP3    H119458   4.149   1.941   3.313  0.1176 -0.5944 -0.0954
 6498TIP3    H219459   4.300   1.932   3.321  0.1691 -1.8154 -1.9308
 6499TIP3   OH219460   6.331   3.121   0.612 -0.0835  0.5252 -0.0999
 6499TIP3    H119461   6.415   3.084   0.582  0.5813  1.4207  0.5838
 6499TIP3    H219462   6.277   3.045   0.632  0.0836 -0.0916 -1.7898
 6500TIP3   OH219463   3.475   5.457   2.024  0.6475 -0.5260  0.5452
 6500TIP3    H119464   3.466   5.422   1.935  0.9616 -0.2952  0.4223
 6500TIP3    H219465   3.553   5.413   2.059  0.2356 -0.9993  0.8925
 6501TIP3   OH219466   2.473   0.624   4.875  0.1198  0.1554 -0.3014
 6501TIP3    H119467   2.477   0.552   4.812 -1.4786  0.2215 -0.5024
 6501TIP3    H219468   2.392   0.670   4.854  0.8509  1.7225  0.1621
 6502TIP3   OH219469   3.992   3.967   2.633 -0.2097 -0.3816 -0.1032
 6502TIP3    H119470   3.936   3.947   2.707 -0.4116 -0.5224 -0.2917
 6502TIP3    H219471   4.030   4.052   2.654 -3.7793  1.8966 -1.8319
 6503TIP3   OH219472   1.421   1.574   1.943 -0.4006  0.2410  0.5174
 6503TIP3    H119473   1.380   1.651   1.903  0.4622  1.2612  1.5304
 6503TIP3    H219474   1.348   1.517   1.967 -0.9656 -0.8409 -3.1953
 6504TIP3   OH219475   1.676   5.295   1.358  0.0348 -0.6350  0.0775
 6504TIP3    H119476   1.581   5.297   1.347  0.1343  0.1113 -0.7093
 6504TIP3    H219477   1.706   5.383   1.336  0.9340 -0.9242  0.0660
 6505TIP3   OH219478   2.989   4.887   5.123  0.0296  0.1731 -0.1093
 6505TIP3    H119479   3.069   4.847   5.157 -0.2979 -0.2002  0.2289
 6505TIP3    H219480   2.991   4.868   5.030 -0.6975 -1.6695  0.2102
 6506TIP3   OH219481   1.743   3.901   3.304 -0.0806  0.8579  0.2317
 6506TIP3    H119482   1.757   3.994   3.285  1.0485  0.5390 -0.6196
 6506TIP3    H219483   1.822   3.858   3.271 -1.0395 -0.5266 -0.3548
 6507TIP3   OH219484   0.054   4.124   3.536 -0.4167 -0.3253  0.7861
 6507TIP3    H119485   0.026   4.046   3.584 -1.8728 -1.6207 -1.9351
 6507TIP3    H219486  -0.026   4.158   3.497  0.7773  0.0662 -1.4742
 6508TIP3   OH219487   7.223   2.206   0.800 -0.2059 -0.0236 -0.2888
 6508TIP3    H119488   7.164   2.222   0.726  0.7919 -1.1425 -1.3712
 6508TIP3    H219489   7.197   2.121   0.833  1.0953 -0.7728 -1.1132
 6509TIP3   OH219490   1.829   2.724   0.182  0.4353  0.3894  0.0618
 6509TIP3    H119491   1.824   2.815   0.152 -1.3962  0.3297  0.0205
 6509TIP3    H219492   1.846   2.673   0.103 -1.0400  0.5163 -0.3752
 6510TIP3   OH219493   3.372   2.454   2.790  0.5139  0.1141 -0.2073
 6510TIP3    H119494   3.333   2.374   2.827 -0.2463  0.4498 -0.2620
 6510TIP3    H219495   3.347   2.523   2.851  1.5056  0.2590  0.0496
 6511TIP3   OH219496   4.375   6.573   0.695 -0.0746  0.0653 -0.1565
 6511TIP3    H119497   4.390   6.589   0.602 -2.4066 -0.4423 -0.6968
 6511TIP3    H219498   4.317   6.645   0.722 -1.3108 -1.0599  0.2759
 6512TIP3   OH219499   5.604   5.598   1.553 -0.0518  0.2661 -0.0884
 6512TIP3    H119500   5.638   5.616   1.465  1.9319  1.4591  0.8458
 6512TIP3    H219501   5.518   5.640   1.555  0.2153  0.8898 -1.2162
 6513TIP3   OH219502   2.530   6.214   0.122 -0.4798  0.1980 -0.7763
 6513TIP3    H119503   2.507   6.154   0.193 -2.8369  2.1094  0.2161
 6513TIP3    H219504   2.622   6.237   0.139 -0.6478 -0.2804  0.9458
 6514TIP3   OH219505   0.539   5.209   3.513 -0.0986  0.1643 -0.4866
 6514TIP3    H119506   0.593   5.175   3.442  0.6966  0.0348  0.1578
 6514TIP3    H219507   0.506   5.292   3.480  0.2360  0.0941 -1.0169
 6515TIP3   OH219508   3.732   3.507   3.073 -0.4102 -0.3897  0.1559
 6515TIP3    H119509   3.762   3.584   3.025 -1.2350  0.7527  1.3926
 6515TIP3    H219510   3.792   3.437   3.046 -0.0563  0.4933 -1.5181
 6516TIP3   OH219511   3.866   1.485   3.082 -0.1211  0.3678  0.0968
 6516TIP3    H119512   3.779   1.482   3.041  0.1106 -1.0559 -0.3525
 6516TIP3    H219513   3.856   1.546   3.155 -2.1970 -1.5911  1.5987
 6517TIP3   OH219514   4.343   6.248   2.976 -0.0597 -0.0244 -0.0604
 6517TIP3    H119515   4.434   6.235   3.003 -0.0299 -0.2326 -0.2587
 6517TIP3    H219516   4.312   6.320   3.031 -0.2554 -0.9985  1.1546
 6518TIP3   OH219517   1.445   0.774   1.754  0.0512  0.0647  0.4384
 6518TIP3    H119518   1.460   0.681   1.737  1.2566  0.4415 -0.6660
 6518TIP3    H219519   1.528   0.806   1.788  0.2922  1.1444 -1.0942
 6519TIP3   OH219520   7.032   2.340   5.737  0.1947  0.0340  0.4262
 6519TIP3    H119521   7.123   2.364   5.756  0.9810 -0.6745 -2.0462
 6519TIP3    H219522   7.038   2.252   5.698 -1.5334  0.0455  0.0576
 6520TIP3   OH219523   6.573   6.677  -0.005 -0.0365 -0.4389 -0.6052
 6520TIP3    H119524   6.584   6.653   0.087  0.3719 -0.5671 -0.6856
 6520TIP3    H219525   6.660   6.709  -0.032 -0.7888  2.2482 -0.1898
 6521TIP3   OH219526   1.465   6.269   4.493 -0.0457  0.9215  0.2788
 6521TIP3    H119527   1.551   6.246   4.460 -1.2322 -0.0766 -2.4346
 6521TIP3    H219528   1.428   6.187   4.525 -0.2138  1.2321  0.9079
 6522TIP3   OH219529   0.319   2.850   4.404  0.3433  0.0740 -0.0790
 6522TIP3    H119530   0.226   2.863   4.385  0.0744 -1.5072  0.0413
 6522TIP3    H219531   0.364   2.910   4.344 -0.7391  0.8793 -0.1191
 6523TIP3   OH219532   5.465   3.038   3.994  0.6597  0.3568  0.0197
 6523TIP3    H119533   5.409   3.034   4.072 -1.0552 -1.8965 -1.1978
 6523TIP3    H219534   5.426   3.107   3.941  1.3754  1.3726  0.7628
 6524TIP3   OH219535   6.689   5.622   3.579  0.0288  0.4005 -0.3913
 6524TIP3    H119536   6.609   5.607   3.529  1.0381  3.8824 -3.4927
 6524TIP3    H219537   6.755   5.645   3.514  3.7557 -2.2542  1.9750
 6525TIP3   OH219538   6.413   3.108   5.275  0.1599  0.3155  0.6477
 6525TIP3    H119539   6.375   3.047   5.211 -0.7535  2.0036 -0.5078
 6525TIP3    H219540   6.485   3.059   5.314 -0.8032 -1.6587  0.1275
 6526TIP3   OH219541   3.988   1.421   1.507  0.1079 -0.2362  0.1943
 6526TIP3    H119542   3.922   1.436   1.439 -1.6168  0.9744  2.0284
 6526TIP3    H219543   4.052   1.491   1.492 -0.1475 -0.1006 -0.3115
 6527TIP3   OH219544   6.879   1.413   0.562  0.7499  0.5057  0.0458
 6527TIP3    H119545   6.963   1.449   0.534  1.0401  0.3921  0.7410
 6527TIP3    H219546   6.894   1.318   0.565  1.0641  0.5724  1.5892
 6528TIP3   OH219547   0.558   4.880   4.484  0.7428  0.1178  0.4729
 6528TIP3    H119548   0.635   4.826   4.502 -1.0108 -2.4726  0.8467
 6528TIP3    H219549   0.516   4.891   4.569 -0.2746 -0.1554  0.0254
 6529TIP3   OH219550   0.624   3.396   5.711  0.5001 -0.1901  0.0522
 6529TIP3    H119551   0.539   3.429   5.740 -0.2580 -1.0718 -1.0800
 6529TIP3    H219552   0.671   3.473   5.681 -0.7363  0.0880 -1.3046
 6530TIP3   OH219553   0.728   3.234   5.387  0.3350  0.0714  0.4278
 6530TIP3    H119554   0.662   3.166   5.374 -1.2312  2.0944 -4.0539
 6530TIP3    H219555   0.811   3.191   5.366 -0.6618 -0.5550 -2.8592
 6531TIP3   OH219556   1.502   2.642   1.506 -0.4508  0.0119 -0.5252
 6531TIP3    H119557   1.550   2.574   1.553 -2.4617 -1.8438 -0.9575
 6531TIP3    H219558   1.457   2.595   1.435 -2.1694  1.7257 -0.6678
 6532TIP3   OH219559   6.939   6.039   0.092  0.2176 -0.2452 -0.5700
 6532TIP3    H119560   6.923   5.951   0.059 -0.4764  0.1464 -1.3115
 6532TIP3    H219561   6.901   6.097   0.026 -0.8915  0.5801  0.7338
 6533TIP3   OH219562   6.551   5.164   1.764 -0.2502 -0.4180  0.3080
 6533TIP3    H119563   6.598   5.244   1.740 -1.3356  0.3834  0.7619
 6533TIP3    H219564   6.550   5.164   1.859 -0.6778 -0.7127  0.3079
 6534TIP3   OH219565   4.509   0.793   1.428 -0.8777 -0.5388 -0.0649
 6534TIP3    H119566   4.507   0.870   1.371 -1.9785 -0.2567  0.3370
 6534TIP3    H219567   4.590   0.747   1.403 -0.8327  0.0992 -1.1525
 6535TIP3   OH219568   2.090   0.283   0.621  0.8329  0.1223  0.0684
 6535TIP3    H119569   2.051   0.359   0.578 -0.6332 -0.2896  0.6194
 6535TIP3    H219570   2.181   0.309   0.638  1.1949  0.6463 -2.3534
 6536TIP3   OH219571   1.127   4.794   5.513 -0.1766  0.5743  0.1581
 6536TIP3    H119572   1.034   4.808   5.496 -0.6947 -0.6934  1.6357
 6536TIP3    H219573   1.140   4.824   5.603  0.3210 -1.1577  0.7194
 6537TIP3   OH219574   7.013   5.297   3.870 -0.2937  0.3040 -0.1717
 6537TIP3    H119575   6.925   5.336   3.873 -0.7582 -0.5948 -1.1599
 6537TIP3    H219576   6.996   5.203   3.864  0.7720  0.0286  0.8910
 6538TIP3   OH219577   4.603   5.906   4.104 -0.1026 -0.1214  0.1096
 6538TIP3    H119578   4.621   5.872   4.017  0.9971 -1.2590  0.7528
 6538TIP3    H219579   4.620   6.000   4.097 -0.2727 -0.1581 -0.9530
 6539TIP3   OH219580   7.074   6.360   1.211  0.1291 -0.3678 -0.4783
 6539TIP3    H119581   7.086   6.431   1.148 -2.7191  1.2986  0.6494
 6539TIP3    H219582   7.109   6.394   1.294  0.3896 -1.0154 -0.3126
 6540TIP3   OH219583   4.438   1.617   1.717  0.8697 -0.0835  0.4934
 6540TIP3    H119584   4.364   1.620   1.777  0.7124 -4.1487  0.7531
 6540TIP3    H219585   4.418   1.684   1.651 -2.1420  0.1253  1.4786
 6541TIP3   OH219586   3.028   3.912   2.786  0.2345 -0.3077  0.0078
 6541TIP3    H119587   2.950   3.907   2.841 -1.3413  0.2596 -2.0493
 6541TIP3    H219588   3.098   3.937   2.846 -1.2968 -0.1163  1.8088
 6542TIP3   OH219589   0.064   1.804   1.745  0.3449  0.2259  0.0317
 6542TIP3    H119590   0.051   1.747   1.820  1.7640  0.8043  0.7648
 6542TIP3    H219591   0.054   1.747   1.669  0.3105 -0.6863  0.7061
 6543TIP3   OH219592   0.768   1.408   3.753 -0.0563  0.3599  0.1152
 6543TIP3    H119593   0.782   1.339   3.688  3.2539 -0.0631  1.0754
 6543TIP3    H219594   0.735   1.363   3.830  0.0511  0.1943  0.0645
 6544TIP3   OH219595   4.007   6.804   1.748 -0.3228  0.0571  0.0071
 6544TIP3    H119596   3.938   6.850   1.700 -0.7076 -0.8681 -0.3521
 6544TIP3    H219597   3.977   6.713   1.751  0.6761 -0.2714  0.2356
 6545TIP3   OH219598   5.043   3.133   2.278 -0.0444  0.2424  0.1856
 6545TIP3    H119599   4.982   3.206   2.283 -0.3243 -0.0025  0.3463
 6545TIP3    H219600   5.004   3.074   2.214 -0.4057 -0.3123  0.9099
 6546TIP3   OH219601   1.878   6.393   1.011 -0.1436 -0.4709 -0.2496
 6546TIP3    H119602   1.914   6.480   1.029  1.0248 -1.1070  0.6259
 6546TIP3    H219603   1.785   6.401   1.032  0.1469  0.2857  0.8543
 6547TIP3   OH219604   3.556   2.475   4.169 -0.3185  0.1237 -0.4595
 6547TIP3    H119605   3.471   2.440   4.142 -1.0615  0.8628  0.8430
 6547TIP3    H219606   3.536   2.533   4.242  1.4344 -0.5154  0.5876
 6548TIP3   OH219607   3.396   3.955   3.838  0.5364  0.6515  0.0255
 6548TIP3    H119608   3.357   3.976   3.922  0.6069  1.4156 -0.1314
 6548TIP3    H219609   3.345   3.881   3.805  0.1899  0.6794  0.5031
 6549TIP3   OH219610   6.685   4.830   5.833 -0.1451  0.5710 -0.2820
 6549TIP3    H119611   6.601   4.804   5.796 -1.2761  1.1065  1.7976
 6549TIP3    H219612   6.685   4.925   5.828 -0.2596  0.6453  0.9280
 6550TIP3   OH219613   0.201   1.845   5.801  0.1924  0.1497 -0.5325
 6550TIP3    H119614   0.260   1.849   5.726 -1.6699  0.1171 -2.0820
 6550TIP3    H219615   0.116   1.875   5.767 -1.2947 -2.0569  0.9193
 6551TIP3   OH219616   1.682   3.890   0.415  0.2126 -0.2044  0.0882
 6551TIP3    H119617   1.623   3.953   0.458  0.2499 -0.1198  0.0142
 6551TIP3    H219618   1.705   3.931   0.332 -0.8589 -0.9090 -0.5890
 6552TIP3   OH219619   2.834   0.828   2.687 -0.3574 -0.0701  0.1977
 6552TIP3    H119620   2.754   0.818   2.738  0.0441  0.3159  0.9179
 6552TIP3    H219621   2.820   0.908   2.636 -1.1040 -0.9174 -0.9652
 6553TIP3   OH219622   2.794   5.710   5.771  0.2601  0.6986 -0.1499
 6553TIP3    H119623   2.743   5.631   5.786  1.9495 -0.0529  2.3286
 6553TIP3    H219624   2.852   5.688   5.698  1.1028 -0.6183  0.8749
 6554TIP3   OH219625   2.305   5.609   3.749 -0.3967 -0.7174 -0.1511
 6554TIP3    H119626   2.316   5.624   3.655 -0.1759 -1.8665 -0.3176
 6554TIP3    H219627   2.219   5.646   3.769 -0.1471  0.1750 -0.6511
 6555TIP3   OH219628  -0.005   1.484   2.314  0.4728  0.1374 -0.4676
 6555TIP3    H119629   0.086   1.513   2.310  0.4712  0.7607  1.9872
 6555TIP3    H219630  -0.006   1.419   2.385 -0.9279 -0.0684 -0.6499
 6556TIP3   OH219631   4.873   5.391   1.233 -0.0371 -0.6769  0.0184
 6556TIP3    H119632   4.944   5.338   1.269  0.8602  0.4241 -0.0747
 6556TIP3    H219633   4.814   5.328   1.191 -0.6162 -1.8988  2.5074
 6557TIP3   OH219634   1.477   5.870   5.801  0.2074 -0.6191  0.0590
 6557TIP3    H119635   1.429   5.940   5.757  0.3537 -1.1792 -1.0222
 6557TIP3    H219636   1.459   5.883   5.894 -0.0416  0.6437 -0.1524
 6558TIP3   OH219637   3.057   2.924   0.203  0.2287  0.3613  0.2657
 6558TIP3    H119638   2.966   2.934   0.174 -0.6144 -0.7459  2.2781
 6558TIP3    H219639   3.096   2.865   0.140 -0.5571  0.5943 -0.4562
 6559TIP3   OH219640   0.786  -0.007   1.568  0.0069  0.0608 -0.4230
 6559TIP3    H119641   0.785   0.071   1.624 -1.1758 -0.8048  0.8167
 6559TIP3    H219642   0.864  -0.056   1.596  0.6355  0.6656 -1.0624
 6560TIP3   OH219643   3.723   3.655   2.335  0.0738 -0.2943 -0.5043
 6560TIP3    H119644   3.663   3.687   2.268  0.5794  1.5178 -0.1404
 6560TIP3    H219645   3.792   3.721   2.340  0.7281 -1.0310  0.9054
 6561TIP3   OH219646   5.610   0.505   1.885  0.0768  0.0595  0.3025
 6561TIP3    H119647   5.704   0.504   1.904 -0.4033  0.7557  3.2441
 6561TIP3    H219648   5.580   0.591   1.917 -1.3954  0.3859 -1.7500
 6562TIP3   OH219649   0.907   4.502   0.789  0.3604  0.3407 -0.0011
 6562TIP3    H119650   0.842   4.553   0.741 -0.4132  0.1808  0.8534
 6562TIP3    H219651   0.941   4.439   0.725  0.3072  0.9927 -0.6841
 6563TIP3   OH219652   6.505   3.756   3.845  0.1693  0.4549 -0.1383
 6563TIP3    H119653   6.588   3.799   3.867 -1.2389  2.2140  2.2947
 6563TIP3    H219654   6.487   3.784   3.755  1.5924  1.0956 -0.2562
 6564TIP3   OH219655   3.301   6.106   5.095  0.0165 -0.2371 -0.9002
 6564TIP3    H119656   3.356   6.182   5.078  0.1994  0.0074  0.6538
 6564TIP3    H219657   3.275   6.115   5.187 -0.8966 -1.4539 -1.0094
 6565TIP3   OH219658   4.818   2.703   2.148 -0.8704  0.0407 -0.4196
 6565TIP3    H119659   4.734   2.685   2.105 -1.2636  0.4683  0.1481
 6565TIP3    H219660   4.849   2.616   2.176 -1.3187 -0.0857 -0.2899
 6566TIP3   OH219661   3.321   0.387   5.701  0.5708 -0.0962  0.3786
 6566TIP3    H119662   3.376   0.454   5.660 -2.1066  0.5420 -2.5032
 6566TIP3    H219663   3.245   0.436   5.733  0.0385 -1.3805  1.1386
 6567TIP3   OH219664   6.326   6.721   5.422  0.1233 -0.2608 -0.5655
 6567TIP3    H119665   6.289   6.778   5.489 -1.4682 -0.8450 -0.9085
 6567TIP3    H219666   6.277   6.639   5.430  1.1072 -0.9409 -1.2935
 6568TIP3   OH219667   1.850   5.095   0.891 -0.2559 -0.5726  0.8140
 6568TIP3    H119668   1.897   5.056   0.817 -0.2052 -1.0648  1.0984
 6568TIP3    H219669   1.765   5.121   0.854 -1.5834 -3.7975  1.2338
 6569TIP3   OH219670   2.192   4.684   0.712 -0.3724  0.0634  0.0933
 6569TIP3    H119671   2.104   4.715   0.692 -0.3825  0.2935  0.4691
 6569TIP3    H219672   2.235   4.673   0.627 -0.6845  0.1819 -0.0792
 6570TIP3   OH219673   1.973   6.516   0.035  0.1280 -0.3352 -0.1626
 6570TIP3    H119674   2.009   6.436  -0.002  1.3343  0.7650 -1.4787
 6570TIP3    H219675   1.885   6.522  -0.003 -0.5075 -1.6896  1.0126
 6571TIP3   OH219676   7.166   3.744   1.359 -0.1757 -0.3931  0.0325
 6571TIP3    H119677   7.093   3.804   1.351 -0.6840 -1.1560 -1.4951
 6571TIP3    H219678   7.244   3.798   1.345 -0.4043  0.4503  1.8297
 6572TIP3   OH219679   3.409   1.047   2.022  0.3165 -0.5251 -0.1851
 6572TIP3    H119680   3.364   1.010   1.946  1.6517  0.3629 -1.4936
 6572TIP3    H219681   3.466   0.977   2.053  1.0003 -0.4100 -1.1010
 6573TIP3   OH219682   0.390   5.920   4.472  0.5888  0.3291  0.3371
 6573TIP3    H119683   0.337   5.999   4.474 -0.7844 -0.5661  1.9096
 6573TIP3    H219684   0.480   5.951   4.464  0.0868  2.0419  0.9989
 6574TIP3   OH219685   4.713   3.976   4.677  0.2140  0.0854  0.2227
 6574TIP3    H119686   4.641   3.950   4.735  0.4264 -0.4901  0.2387
 6574TIP3    H219687   4.777   4.017   4.735  0.9783 -1.5990  0.6194
 6575TIP3   OH219688   0.977   0.332   5.105  0.0790  0.2874  0.7964
 6575TIP3    H119689   0.899   0.282   5.130  0.2110  0.2220  1.0841
 6575TIP3    H219690   1.049   0.269   5.110  0.1185  0.2917  0.3120
 6576TIP3   OH219691   3.488   5.037   5.000  0.1022 -0.4197 -0.9042
 6576TIP3    H119692   3.529   5.032   5.086 -0.7366 -0.6307 -0.5027
 6576TIP3    H219693   3.543   4.982   4.944  1.9784  1.5035 -1.0882
 6577TIP3   OH219694   5.794   6.250   5.058  0.4122 -0.6526 -0.2276
 6577TIP3    H119695   5.799   6.324   4.997 -1.9512  0.1021  0.3642
 6577TIP3    H219696   5.730   6.278   5.124 -1.7903 -3.7314 -0.8091
 6578TIP3   OH219697   6.596   5.969   4.210  0.1649 -0.2244  0.0949
 6578TIP3    H119698   6.644   6.034   4.261  0.4949 -0.3636 -0.0365
 6578TIP3    H219699   6.626   5.885   4.246 -0.7147 -0.2984  0.6864
 6579TIP3   OH219700   5.237   5.422   5.694 -1.0041  0.1756 -0.0784
 6579TIP3    H119701   5.331   5.413   5.679 -1.0436 -0.7318  0.1537
 6579TIP3    H219702   5.219   5.516   5.682  0.3722  0.8538  2.3729
 6580TIP3   OH219703   3.079   0.719   2.603  0.3782 -0.0200 -0.0927
 6580TIP3    H119704   3.079   0.737   2.509 -0.6282 -0.2119 -0.1384
 6580TIP3    H219705   2.988   0.731   2.630 -0.8418 -5.6344 -0.3287
 6581TIP3   OH219706  -0.011   4.110   4.276  0.1625 -0.3136  0.0325
 6581TIP3    H119707   0.031   4.147   4.198 -1.1930 -0.1910 -0.6570
 6581TIP3    H219708   0.040   4.146   4.349  0.7177  0.5185 -0.7389
 6582TIP3   OH219709   4.760   3.093   3.341 -0.3661  0.6745  0.6600
 6582TIP3    H119710   4.803   3.041   3.409  2.0365 -0.7074 -1.7111
 6582TIP3    H219711   4.697   3.034   3.301  0.6942  0.2666 -0.4926
 6583TIP3   OH219712   7.004   2.472   5.022 -0.2369  0.1214  0.3992
 6583TIP3    H119713   6.929   2.414   5.034 -2.2008  2.6744  1.5761
 6583TIP3    H219714   7.074   2.432   5.073 -0.0152 -3.3697 -2.2686
 6584TIP3   OH219715   0.012   0.174   1.362  0.2766 -0.1545  0.5788
 6584TIP3    H119716   0.084   0.124   1.401 -1.2207 -1.6496  1.5745
 6584TIP3    H219717   0.027   0.167   1.268  1.1564 -0.8565  0.7492
 6585TIP3   OH219718   3.458   0.061   4.019  0.5633 -0.0715 -0.2368
 6585TIP3    H119719   3.495   0.135   3.969 -0.9223  0.8852  0.0140
 6585TIP3    H219720   3.516   0.051   4.094  0.1933  1.5836  0.3047
 6586TIP3   OH219721   0.606   2.593   4.765 -0.1845  0.4676 -0.5111
 6586TIP3    H119722   0.525   2.619   4.720 -1.5535  0.6998  1.9223
 6586TIP3    H219723   0.674   2.603   4.699 -1.6684  3.3059 -1.7832
 6587TIP3   OH219724   5.276   5.942   2.189  0.6335  0.7952 -0.2877
 6587TIP3    H119725   5.320   5.991   2.259  0.9383  2.2433 -1.4531
 6587TIP3    H219726   5.339   5.940   2.118  0.7086 -1.5253 -0.2203
 6588TIP3   OH219727   7.053   2.081   2.425  0.3803  0.0583  0.2524
 6588TIP3    H119728   6.991   2.153   2.425  0.6325  0.2990  1.4327
 6588TIP3    H219729   7.038   2.037   2.509 -0.5919 -1.9970 -0.9309
 6589TIP3   OH219730   1.745   3.679   1.526  0.4112 -0.1242 -0.1090
 6589TIP3    H119731   1.807   3.659   1.597 -0.4572 -0.1255  0.6617
 6589TIP3    H219732   1.690   3.601   1.520 -2.2882  1.4275  2.1644
 6590TIP3   OH219733   0.313   0.963   0.834  0.3241 -0.1865 -0.7399
 6590TIP3    H119734   0.340   0.884   0.882  1.2527  0.3502 -0.3638
 6590TIP3    H219735   0.283   1.023   0.902 -0.6928 -0.3226 -1.0548
 6591TIP3   OH219736   1.625   2.703   2.094 -0.0731  0.4111  0.4996
 6591TIP3    H119737   1.558   2.726   2.158  0.0104  1.3665  0.2478
 6591TIP3    H219738   1.602   2.753   2.016  1.9463  2.1922  0.9730
 6592TIP3   OH219739   2.004   5.658   3.274 -0.4774 -0.1908  0.2819
 6592TIP3    H119740   2.035   5.742   3.240 -1.5404 -0.3729 -1.2058
 6592TIP3    H219741   1.952   5.620   3.203 -1.5708 -1.2691  1.5927
 6593TIP3   OH219742   0.548   1.992   3.116  0.2065  0.3246 -0.2857
 6593TIP3    H119743   0.519   1.911   3.158  0.2461 -1.3930 -3.3152
 6593TIP3    H219744   0.468   2.040   3.099  0.1255  0.6436  0.9077
 6594TIP3   OH219745   1.853   6.305   5.880  0.1859  0.2616  0.3366
 6594TIP3    H119746   1.911   6.364   5.832  0.8932  0.8276  1.8234
 6594TIP3    H219747   1.889   6.218   5.863  1.1829  0.5648  0.8310
 6595TIP3   OH219748   2.577   5.455   5.522  0.4133 -0.8871  0.1167
 6595TIP3    H119749   2.532   5.390   5.576  0.4653  0.1461  1.4765
 6595TIP3    H219750   2.527   5.536   5.537  0.4966 -0.5508 -1.3358
 6596TIP3   OH219751   3.110   1.965   3.552 -0.1297 -0.0370 -0.4050
 6596TIP3    H119752   3.037   1.917   3.513  0.6431 -1.3634 -0.3074
 6596TIP3    H219753   3.083   2.056   3.551 -2.0840 -0.5547  0.2711
 6597TIP3   OH219754   6.404   1.274   3.113 -0.1595  0.1049  0.1867
 6597TIP3    H119755   6.326   1.329   3.108 -0.6462 -0.4038  1.5770
 6597TIP3    H219756   6.377   1.191   3.073 -0.6152 -0.3357  1.3509
 6598TIP3   OH219757   2.358   0.059   5.083  0.2672  0.6091  0.2336
 6598TIP3    H119758   2.391   0.029   5.167  1.6016  2.7575  0.5547
 6598TIP3    H219759   2.265   0.076   5.098 -0.2941 -2.1024  0.3060
 6599TIP3   OH219760   5.125   3.178   0.403  0.7644  0.2181 -0.1511
 6599TIP3    H119761   5.117   3.111   0.335 -0.2235 -0.8859  1.0066
 6599TIP3    H219762   5.060   3.243   0.380  1.2804  0.4860 -0.9216
 6600TIP3   OH219763   5.909   4.696   3.612 -0.2278  0.2678 -0.0816
 6600TIP3    H119764   5.847   4.754   3.658 -1.5479 -2.5147  1.9078
 6600TIP3    H219765   5.853   4.640   3.559  0.8287 -0.5248 -0.3756
 6601TIP3   OH219766   2.620   3.160   4.508  0.3380  0.1573 -0.2327
 6601TIP3    H119767   2.714   3.172   4.493  0.6436 -0.9112  0.6497
 6601TIP3    H219768   2.616   3.097   4.580 -1.0624 -0.1982 -0.6037
 6602TIP3   OH219769   5.176   3.162   3.437 -0.1844 -0.5688  0.5073
 6602TIP3    H119770   5.210   3.247   3.465 -0.8626 -0.2172  0.2905
 6602TIP3    H219771   5.222   3.143   3.356 -0.9204  0.1881 -0.1032
 6603TIP3   OH219772   5.013   3.658   3.927 -0.2444 -0.3580 -0.1817
 6603TIP3    H119773   5.049   3.570   3.935 -1.3190 -0.8601 -0.6155
 6603TIP3    H219774   5.003   3.689   4.017  0.6028 -0.4822 -0.0445
 6604TIP3   OH219775   0.029   2.305   2.392 -0.0641  0.3710  0.1025
 6604TIP3    H119776  -0.028   2.232   2.416  0.3730 -0.5033 -1.3836
 6604TIP3    H219777   0.027   2.306   2.296  1.4964  1.0788  0.0525
 6605TIP3   OH219778   2.699   4.887   3.703  0.4496 -0.0706  0.7115
 6605TIP3    H119779   2.699   4.882   3.798  0.5668 -1.0656  0.6680
 6605TIP3    H219780   2.621   4.839   3.676  0.7038 -0.2599  0.2959
 6606TIP3   OH219781   3.067   2.478   2.462 -0.3828  0.1100 -0.2892
 6606TIP3    H119782   3.123   2.529   2.520 -0.2603  1.3298 -1.4527
 6606TIP3    H219783   3.128   2.432   2.404 -0.5068 -1.0663  0.4799
 6607TIP3   OH219784   1.311   6.066   4.566 -0.9435 -0.1115 -0.5918
 6607TIP3    H119785   1.291   5.975   4.542 -2.2146  0.2523 -1.0214
 6607TIP3    H219786   1.250   6.085   4.637  0.4475 -0.0857  0.6400
 6608TIP3   OH219787   2.292   0.901   0.384 -0.4088  0.0590  0.5903
 6608TIP3    H119788   2.380   0.896   0.423  0.2994  0.4749 -0.8960
 6608TIP3    H219789   2.298   0.973   0.321 -1.1038 -1.4475 -1.2946
 6609TIP3   OH219790   2.126   3.846   4.115 -0.1712 -0.2046 -0.8566
 6609TIP3    H119791   2.106   3.927   4.068 -0.3440  1.2467  1.5844
 6609TIP3    H219792   2.041   3.812   4.142  0.0356  0.7067  1.0895
 6610TIP3   OH219793   0.520   5.294   5.185 -0.1133  0.2595 -0.4053
 6610TIP3    H119794   0.527   5.320   5.276  2.4407  1.2607 -0.7986
 6610TIP3    H219795   0.494   5.202   5.188  1.0371 -0.0495  1.3961
 6611TIP3   OH219796   6.473   3.920   2.124 -0.1332 -0.2736 -0.0395
 6611TIP3    H119797   6.566   3.939   2.109  0.8783 -3.0243  1.9135
 6611TIP3    H219798   6.440   3.996   2.171  1.6529  0.0335  0.8063
 6612TIP3   OH219799   6.850   1.492   1.919  0.0378  0.6256 -0.0082
 6612TIP3    H119800   6.793   1.423   1.953  1.4385 -0.2206  0.7308
 6612TIP3    H219801   6.807   1.574   1.944 -1.7422  0.0571 -1.0543
 6613TIP3   OH219802   4.512   4.343   2.912 -0.1687 -0.4633  0.1572
 6613TIP3    H119803   4.547   4.268   2.961  1.6391 -0.6907 -1.3631
 6613TIP3    H219804   4.572   4.415   2.932 -2.7454  1.1748  2.8452
 6614TIP3   OH219805   4.291   6.160   0.841  0.0182  0.5225  0.0709
 6614TIP3    H119806   4.309   6.096   0.773 -0.4502 -0.1855  0.6063
 6614TIP3    H219807   4.368   6.217   0.840  0.0090  0.5442 -1.0571
 6615TIP3   OH219808   0.280   4.212   1.283  0.3591  0.1049  0.6808
 6615TIP3    H119809   0.299   4.213   1.377 -0.5718  0.9032  0.8883
 6615TIP3    H219810   0.292   4.303   1.255  2.4468 -0.4569 -0.4000
 6616TIP3   OH219811   1.515   5.864   4.732 -0.0808  0.5471 -0.0259
 6616TIP3    H119812   1.502   5.916   4.652  0.3852  0.2505 -0.3002
 6616TIP3    H219813   1.476   5.916   4.802 -2.2082 -0.0186 -0.7107
 6617TIP3   OH219814   6.777   1.286   1.088 -0.7352  0.6291  0.3091
 6617TIP3    H119815   6.702   1.227   1.090  0.8256 -1.5081 -0.0922
 6617TIP3    H219816   6.840   1.248   1.150  0.9092  0.9739 -1.0575
 6618TIP3   OH219817   2.209   2.427   3.823  0.5902  0.1561 -0.0077
 6618TIP3    H119818   2.219   2.421   3.918  2.2298  0.3507 -0.1327
 6618TIP3    H219819   2.275   2.492   3.796 -1.4043  1.8866 -1.0446
 6619TIP3   OH219820   3.819   5.383   5.638 -0.2658 -0.1097  0.1872
 6619TIP3    H119821   3.750   5.433   5.681  0.0746  0.5788 -0.0420
 6619TIP3    H219822   3.774   5.339   5.565 -0.4478  0.4547 -0.0553
 6620TIP3   OH219823   5.120   2.568   4.786 -0.0356 -0.3021  0.2045
 6620TIP3    H119824   5.166   2.629   4.729 -1.2146  0.1379 -0.3045
 6620TIP3    H219825   5.033   2.606   4.796 -0.8976 -2.0356 -0.3419
 6621TIP3   OH219826   2.867   6.646   3.203 -0.0340 -0.0108  0.5293
 6621TIP3    H119827   2.886   6.568   3.151 -0.3078  1.2014 -1.5050
 6621TIP3    H219828   2.916   6.634   3.284  2.0216 -1.1040 -0.7970
 6622TIP3   OH219829   1.864   3.067   4.711 -0.1980 -0.0145  0.3157
 6622TIP3    H119830   1.887   3.157   4.735  2.0988 -1.3733  3.9916
 6622TIP3    H219831   1.932   3.042   4.648 -1.0410  0.8608 -0.9837
 6623TIP3   OH219832   1.886   4.795   2.562 -0.6812  0.4191 -0.2731
 6623TIP3    H119833   1.801   4.833   2.540 -0.4125  0.0589 -2.1112
 6623TIP3    H219834   1.921   4.853   2.629 -2.6218  0.2201  1.0082
 6624TIP3   OH219835   4.078   3.439   2.045 -0.2592 -0.1455 -0.3479
 6624TIP3    H119836   4.137   3.366   2.065  0.6532  0.9269  1.0573
 6624TIP3    H219837   4.126   3.517   2.072 -3.1858  0.6793  3.2176
 6625TIP3   OH219838   4.512   6.278   1.212 -0.3374  0.2039  0.1960
 6625TIP3    H119839   4.432   6.315   1.176  0.6599  1.0313 -1.2714
 6625TIP3    H219840   4.553   6.232   1.139  1.0004  0.6557  0.6186
 6626TIP3   OH219841   2.785   5.685   0.415 -0.2298  0.2797  0.4646
 6626TIP3    H119842   2.804   5.649   0.328 -0.5988  0.6374  0.2378
 6626TIP3    H219843   2.746   5.611   0.463  1.0961 -0.2805  0.7291
 6627TIP3   OH219844   1.225   5.943   0.095 -0.2512 -0.4043  0.1731
 6627TIP3    H119845   1.135   5.912   0.101 -0.5529  0.3720 -0.2717
 6627TIP3    H219846   1.230   6.014   0.159  0.2959 -1.0091  0.8199
 6628TIP3   OH219847   2.370   1.904   1.674 -0.3646 -0.0239  0.7734
 6628TIP3    H119848   2.358   1.995   1.701 -3.0431 -0.0478 -0.0684
 6628TIP3    H219849   2.300   1.857   1.720  0.0549 -1.4130  0.0249
 6629TIP3   OH219850   6.580   3.469   1.454  0.5343 -0.3103  0.0628
 6629TIP3    H119851   6.511   3.419   1.498 -0.1731  0.7674  0.2333
 6629TIP3    H219852   6.648   3.480   1.521 -0.9889  2.2309  1.3541
 6630TIP3   OH219853   3.942   3.642   5.625 -0.0051  0.2689 -0.2852
 6630TIP3    H119854   3.918   3.717   5.680  3.5560  0.8053  0.7852
 6630TIP3    H219855   3.945   3.678   5.536 -0.1763  0.9107 -0.0426
 6631TIP3   OH219856   3.998   3.661   2.752  0.0167  0.1218  0.0756
 6631TIP3    H119857   3.982   3.568   2.735 -1.3917  0.3847 -0.1369
 6631TIP3    H219858   4.037   3.694   2.671  1.4961 -0.4838  0.5130
 6632TIP3   OH219859   0.048   1.620   1.171 -0.5004 -0.4341 -0.1727
 6632TIP3    H119860  -0.034   1.611   1.122 -0.7627 -1.3015  0.4121
 6632TIP3    H219861   0.022   1.658   1.255 -0.3896 -1.2591  0.2400
 6633TIP3   OH219862   5.893   5.207   3.630  0.2993  0.4584  0.2078
 6633TIP3    H119863   5.941   5.137   3.675  0.0384 -0.8017 -1.4184
 6633TIP3    H219864   5.875   5.173   3.543 -2.5978  1.3293  0.3659
 6634TIP3   OH219865   2.457   1.569   4.830  0.2874 -0.7604 -0.5833
 6634TIP3    H119866   2.421   1.502   4.772 -0.3837 -1.1137  0.2077
 6634TIP3    H219867   2.495   1.634   4.772 -1.0433 -0.7233 -1.4389
 6635TIP3   OH219868   2.305   6.726   2.693  0.3701 -0.4973  0.1644
 6635TIP3    H119869   2.352   6.747   2.613 -0.0243 -0.5634 -0.0881
 6635TIP3    H219870   2.236   6.666   2.665 -0.8627  0.8249  0.2610
 6636TIP3   OH219871   1.467   0.055   3.594  0.2357 -0.1495  0.0858
 6636TIP3    H119872   1.459   0.119   3.524  0.5639  0.1094  0.2847
 6636TIP3    H219873   1.520   0.098   3.661 -0.3774 -0.2579  0.6561
 6637TIP3   OH219874   4.679   5.798   3.840 -0.2911  0.0956  0.6107
 6637TIP3    H119875   4.748   5.750   3.886  0.7955 -2.0330 -2.8475
 6637TIP3    H219876   4.641   5.734   3.780 -3.1034  2.0863  0.0710
 6638TIP3   OH219877   3.242   6.139   2.500  0.0275 -0.1219  0.0783
 6638TIP3    H119878   3.233   6.048   2.475  0.2196 -0.2791  0.5549
 6638TIP3    H219879   3.158   6.162   2.540 -0.2944  0.1420 -0.7304
 6639TIP3   OH219880   0.382   5.212   4.889 -0.2672 -0.3959  0.3578
 6639TIP3    H119881   0.339   5.224   4.805 -0.5048 -2.2874  0.1642
 6639TIP3    H219882   0.440   5.288   4.898  1.1195 -1.0174 -2.3732
 6640TIP3   OH219883   5.872   1.701   2.243 -0.2370  0.7015  0.5459
 6640TIP3    H119884   5.949   1.754   2.264 -0.5147  0.7154  1.5791
 6640TIP3    H219885   5.859   1.714   2.149  0.6448  1.1990  0.4829
 6641TIP3   OH219886   5.216   3.752   4.594 -0.6285 -0.1408 -0.3070
 6641TIP3    H119887   5.129   3.757   4.554 -0.2217 -0.1160 -1.2392
 6641TIP3    H219888   5.201   3.765   4.687 -1.6004  0.0652 -0.4789
 6642TIP3   OH219889   0.434   5.884   1.806  0.0009  0.7118  0.0604
 6642TIP3    H119890   0.502   5.940   1.769 -0.2727  0.3547 -0.9983
 6642TIP3    H219891   0.352   5.931   1.793 -0.0800  0.6790  0.4176
 6643TIP3   OH219892   4.216   2.636   2.321  0.2330  0.1531 -0.2356
 6643TIP3    H119893   4.180   2.668   2.238  0.3470  1.1438  0.0790
 6643TIP3    H219894   4.149   2.577   2.355 -0.5825  1.0403 -0.2457
 6644TIP3   OH219895   3.442   6.063   0.142  0.1124 -0.1764 -0.0098
 6644TIP3    H119896   3.382   6.048   0.070  0.5452  1.1917 -0.6879
 6644TIP3    H219897   3.404   6.016   0.216 -1.3467 -0.0190 -0.6355
 6645TIP3   OH219898   3.209   2.290   3.257  1.0330  0.8034  0.3274
 6645TIP3    H119899   3.175   2.374   3.226 -0.1624 -0.1312 -1.0266
 6645TIP3    H219900   3.299   2.287   3.223 -0.2767 -0.2848 -3.5837
 6646TIP3   OH219901   4.810   3.347   5.780  0.5356  0.0009 -0.7245
 6646TIP3    H119902   4.861   3.421   5.814  0.1334  0.6817 -1.5519
 6646TIP3    H219903   4.719   3.368   5.802  0.1814  0.7862 -2.6836
 6647TIP3   OH219904   6.289   2.518   1.818  0.0025  0.0864 -0.3771
 6647TIP3    H119905   6.299   2.484   1.907  1.8102  1.3505 -0.0359
 6647TIP3    H219906   6.366   2.486   1.771  0.0713  0.9983 -0.9238
 6648TIP3   OH219907   7.090   0.572   5.879 -0.2801  0.0215 -0.3705
 6648TIP3    H119908   7.081   0.529   5.794 -0.5132 -0.0693 -0.3005
 6648TIP3    H219909   7.166   0.629   5.869 -0.2630 -0.0435 -0.6175
 6649TIP3   OH219910   2.191   0.810   2.213 -0.2551 -0.2766  0.5725
 6649TIP3    H119911   2.222   0.853   2.134 -0.9895 -0.4873  0.1580
 6649TIP3    H219912   2.260   0.749   2.237  0.3104  0.3412  0.5411
 6650TIP3   OH219913   1.789   4.389   1.623 -0.1183  0.1290 -0.3110
 6650TIP3    H119914   1.753   4.302   1.637 -0.4479 -0.2872 -3.1942
 6650TIP3    H219915   1.840   4.407   1.702  0.2700 -2.8274  0.2176
 6651TIP3   OH219916   5.123   6.089   4.800 -0.0239 -0.1053  0.2957
 6651TIP3    H119917   5.098   6.022   4.864 -0.3435 -1.1086 -0.8480
 6651TIP3    H219918   5.163   6.040   4.729  1.6590  1.1279  0.3397
 6652TIP3   OH219919   2.205   2.494   0.699  0.3061  0.2812  0.2137
 6652TIP3    H119920   2.144   2.439   0.748  2.2787 -1.5748  0.7236
 6652TIP3    H219921   2.207   2.577   0.747 -1.3386  0.1981  0.4955
 6653TIP3   OH219922   1.491   2.448   4.554 -0.3925 -0.5881  0.5160
 6653TIP3    H119923   1.472   2.392   4.629 -0.9403 -0.8266  0.2002
 6653TIP3    H219924   1.558   2.400   4.505  1.2318  0.3402  1.7261
 6654TIP3   OH219925   6.980   2.791   3.812 -0.0371 -0.4818  0.3188
 6654TIP3    H119926   6.958   2.808   3.720  0.7202  0.9652  0.3804
 6654TIP3    H219927   7.063   2.836   3.826 -1.4549  1.7421  2.4165
 6655TIP3   OH219928   6.922   4.777   3.839  0.2516 -0.1720  0.1291
 6655TIP3    H119929   6.870   4.771   3.919 -0.2887 -1.1715 -0.2813
 6655TIP3    H219930   6.861   4.756   3.768  0.4071  1.8894 -0.6906
 6656TIP3   OH219931   1.919   0.152   2.375 -0.0761 -0.4750 -0.0578
 6656TIP3    H119932   1.971   0.074   2.397 -0.6247 -1.5609 -2.2749
 6656TIP3    H219933   1.841   0.116   2.332 -0.7238  1.2847 -0.4044
 6657TIP3   OH219934   6.265   5.220   1.523  0.0744 -0.5185 -0.5903
 6657TIP3    H119935   6.215   5.297   1.497 -0.6190 -1.4128 -2.0574
 6657TIP3    H219936   6.271   5.226   1.618 -1.0614  0.6700 -0.5689
 6658TIP3   OH219937   1.897   1.116   5.773 -0.0284  0.1490 -0.2710
 6658TIP3    H119938   1.952   1.188   5.742 -1.1519  1.5116  0.7706
 6658TIP3    H219939   1.934   1.092   5.858 -0.1725  0.0832 -0.2265
 6659TIP3   OH219940   4.011   4.795   5.196 -0.2779 -0.0671 -0.0792
 6659TIP3    H119941   3.940   4.753   5.149 -1.5280  0.0954  1.5775
 6659TIP3    H219942   4.034   4.872   5.143 -0.7458 -0.5882 -1.0505
 6660TIP3   OH219943   3.768   2.898   2.505  0.7945  0.2207  0.2629
 6660TIP3    H119944   3.850   2.876   2.549  0.0115 -1.0043  1.1871
 6660TIP3    H219945   3.779   2.863   2.416  2.0457  1.9418 -0.3184
 6661TIP3   OH219946   6.059   0.424   4.859  0.1754 -0.3014 -0.4549
 6661TIP3    H119947   6.093   0.403   4.946  1.1199 -1.7042 -1.1237
 6661TIP3    H219948   6.098   0.358   4.801 -0.8784  0.2440 -1.8558
 6662TIP3   OH219949   0.878   3.356   0.992 -0.1506  0.0396  0.1729
 6662TIP3    H119950   0.865   3.423   0.925  1.4627  0.8753  0.6453
 6662TIP3    H219951   0.821   3.383   1.065 -1.7842 -0.7845 -0.7520
 6663TIP3   OH219952   0.825   0.277   2.089 -0.5628 -0.0849 -0.0930
 6663TIP3    H119953   0.743   0.248   2.130 -0.4098 -0.6396 -0.1767
 6663TIP3    H219954   0.887   0.283   2.161 -0.3060 -1.0160 -0.2310
 6664TIP3   OH219955   5.557   6.137   3.740 -0.1858  0.3251 -0.1402
 6664TIP3    H119956   5.595   6.169   3.658 -1.1726 -1.2634 -1.2665
 6664TIP3    H219957   5.491   6.074   3.713 -0.9094  0.1344  1.8852
 6665TIP3   OH219958   6.826   2.442   1.011 -0.3865 -0.1256 -0.0817
 6665TIP3    H119959   6.875   2.523   1.025 -1.2552  0.3046  0.5946
 6665TIP3    H219960   6.769   2.461   0.937 -1.0868  0.1340  0.5108
 6666TIP3   OH219961   1.053   2.897   3.348 -0.3743 -0.1300 -0.1604
 6666TIP3    H119962   1.046   2.847   3.429 -1.7726  0.1645 -0.0678
 6666TIP3    H219963   1.140   2.877   3.314 -0.0654 -0.8552  1.0184
 6667TIP3   OH219964   0.800   4.219   0.292  0.1275  0.8098  0.4133
 6667TIP3    H119965   0.717   4.174   0.274  0.6799  0.0893 -0.3969
 6667TIP3    H219966   0.863   4.178   0.232  0.7572  2.3122  0.0087
 6668TIP3   OH219967   3.388   6.408   0.518  0.0139 -0.2740 -0.0776
 6668TIP3    H119968   3.409   6.468   0.447 -0.2564 -1.0688 -0.8337
 6668TIP3    H219969   3.328   6.458   0.574  0.0315  0.2653 -0.5321
 6669TIP3   OH219970   3.973   0.434   3.742 -0.4912 -0.2993  0.3033
 6669TIP3    H119971   3.927   0.426   3.825 -1.0067 -1.1279 -0.0443
 6669TIP3    H219972   4.059   0.396   3.759 -0.1451  0.6632  0.7803
 6670TIP3   OH219973   2.004   6.014   4.220  0.1367 -0.2644  0.0672
 6670TIP3    H119974   1.964   5.936   4.259 -0.1880  0.1087  0.4773
 6670TIP3    H219975   2.093   5.986   4.198  0.2105 -0.5827  0.7481
 6671TIP3   OH219976   0.351   4.528   3.764  0.1025  0.1518 -0.0394
 6671TIP3    H119977   0.415   4.551   3.696 -0.2625  0.1747 -0.3796
 6671TIP3    H219978   0.277   4.491   3.715  0.4735 -1.3108  0.4540
 6672TIP3   OH219979   6.631   1.358   2.086  0.3046  0.1543  0.3402
 6672TIP3    H119980   6.654   1.299   2.158  1.0030 -1.4595 -1.1391
 6672TIP3    H219981   6.542   1.388   2.107  0.0064 -1.2873  1.2451
 6673TIP3   OH219982   7.216   0.413   4.946  0.2831  0.6780  0.7733
 6673TIP3    H119983   7.182   0.451   5.027  0.3417  0.7042  0.7861
 6673TIP3    H219984   7.139   0.400   4.891  0.3086  1.1605  0.6238
 6674TIP3   OH219985   0.516   0.592   3.576  0.0789 -0.1034  0.8448
 6674TIP3    H119986   0.433   0.639   3.561 -0.6716 -1.6767 -0.2099
 6674TIP3    H219987   0.541   0.617   3.664 -1.6363  0.2542  1.2824
 6675TIP3   OH219988   6.969   3.059   5.214  0.1970 -0.4800 -0.3719
 6675TIP3    H119989   7.004   2.972   5.234  3.4797  1.1998  2.1911
 6675TIP3    H219990   7.045   3.117   5.220 -2.0901  2.7955 -0.5985
 6676TIP3   OH219991   0.851   0.802   0.517 -0.5672 -0.3826 -0.2615
 6676TIP3    H119992   0.917   0.741   0.485  0.3734 -0.3382  1.4619
 6676TIP3    H219993   0.783   0.802   0.450  0.3563 -1.7784 -1.2433
 6677TIP3   OH219994   4.861   2.436   0.201  0.6284 -0.1475 -0.1247
 6677TIP3    H119995   4.796   2.461   0.135 -0.5685  1.1154  1.4386
 6677TIP3    H219996   4.918   2.512   0.208 -0.0664  0.2978  1.1819
 6678TIP3   OH219997   3.437   4.279   0.955 -0.1551  0.0747 -0.4941
 6678TIP3    H119998   3.368   4.221   0.987 -0.1035 -0.4206 -1.2462
 6678TIP3    H219999   3.454   4.249   0.866 -0.2616  1.3752 -0.9811
 6679TIP3   OH220000   4.306   4.796   1.646 -0.0836 -0.2091  0.3564
 6679TIP3    H120001   4.317   4.817   1.739 -0.9316 -1.2669  0.7273
 6679TIP3    H220002   4.237   4.729   1.645 -0.5762  0.2697 -1.0940
 6680TIP3   OH220003   2.269   6.221   3.384 -0.3207 -0.2324  0.2699
 6680TIP3    H120004   2.329   6.252   3.316 -0.5877 -0.6363 -0.1506
 6680TIP3    H220005   2.273   6.289   3.451  1.3910 -0.7297  0.7260
 6681TIP3   OH220006   6.930   1.711   5.772 -0.0660 -0.0765 -0.0207
 6681TIP3    H120007   6.878   1.789   5.790  1.3493  1.2013 -1.2424
 6681TIP3    H220008   6.900   1.682   5.686 -0.2162 -0.5821  0.1979
 6682TIP3   OH220009   3.386   0.738   5.043  0.8929  0.1380 -0.1538
 6682TIP3    H120010   3.407   0.780   4.960 -0.0408 -1.4516 -1.2582
 6682TIP3    H220011   3.400   0.644   5.027 -0.4336 -0.3216  1.1040
 6683TIP3   OH220012   0.516   5.815   2.073 -0.2553 -0.0094  0.2448
 6683TIP3    H120013   0.518   5.853   1.986  0.9744  0.3995  0.4357
 6683TIP3    H220014   0.548   5.725   2.062 -1.1447 -0.3194  0.1185
 6684TIP3   OH220015   1.780   4.970   3.955  0.4985 -0.2236 -0.4219
 6684TIP3    H120016   1.852   4.948   4.014 -0.6288 -0.1264  1.0388
 6684TIP3    H220017   1.752   5.057   3.983  0.4180  0.1535 -1.6114
 6685TIP3   OH220018   0.819   2.873   2.897 -0.1236  0.3349 -0.5516
 6685TIP3    H120019   0.879   2.815   2.849 -0.5703 -0.5812 -0.0232
 6685TIP3    H220020   0.877   2.935   2.942  0.3206  0.9618 -1.9217
 6686TIP3   OH220021   6.727   1.589   2.915 -0.2467 -0.6282  0.3238
 6686TIP3    H120022   6.794   1.614   2.979 -0.4676 -1.1750  0.7811
 6686TIP3    H220023   6.760   1.621   2.832  0.6426 -0.9861  0.5267
 6687TIP3   OH220024   5.322   5.939   5.532  0.1264 -0.0248 -0.8552
 6687TIP3    H120025   5.238   5.957   5.489 -0.4778 -2.1835 -0.7202
 6687TIP3    H220026   5.386   5.989   5.481 -1.0795  0.6682 -1.7560
 6688TIP3   OH220027   3.913   0.925   0.288 -0.2380 -0.0121 -0.4633
 6688TIP3    H120028   3.818   0.927   0.295 -0.6591  1.1494 -4.1869
 6688TIP3    H220029   3.941   1.016   0.299  0.4878 -0.3289  0.5249
 6689TIP3   OH220030   4.156   0.116   5.074 -0.3760 -0.3318 -0.5786
 6689TIP3    H120031   4.171   0.029   5.036 -0.3956 -0.4996 -0.2077
 6689TIP3    H220032   4.070   0.109   5.116  0.0206 -0.4169  0.2397
 6690TIP3   OH220033   3.279   0.432   2.932  0.1192  0.2741 -0.0594
 6690TIP3    H120034   3.223   0.508   2.914  0.0369  0.1720 -0.2306
 6690TIP3    H220035   3.301   0.397   2.846  0.6086  0.4318 -0.0012
 6691TIP3   OH220036   5.378   6.799   4.876 -0.6040  0.3033  0.0643
 6691TIP3    H120037   5.425   6.747   4.941 -0.0086  1.4671  0.5881
 6691TIP3    H220038   5.424   6.782   4.794 -1.6720 -1.5801 -0.2002
 6692TIP3   OH220039   4.681   4.493   3.302 -0.5044  0.6814  0.3611
 6692TIP3    H120040   4.694   4.399   3.310  1.0204  0.7860 -0.5034
 6692TIP3    H220041   4.718   4.529   3.383  0.6709  0.6471 -0.1363
 6693TIP3   OH220042   3.598   3.984   5.630 -0.3046  0.0680  0.1645
 6693TIP3    H120043   3.542   3.913   5.597  0.0628  0.0505 -0.4320
 6693TIP3    H220044   3.599   3.970   5.725 -1.9560  0.5541  0.2823
 6694TIP3   OH220045   4.496   2.298   5.668  0.1968  0.6269 -0.2659
 6694TIP3    H120046   4.571   2.239   5.677  0.2254  0.9426  2.2068
 6694TIP3    H220047   4.438   2.253   5.607  1.5522 -0.5096 -0.7786
 6695TIP3   OH220048   4.674   1.883   2.468  0.0858 -0.4604  0.0515
 6695TIP3    H120049   4.601   1.836   2.507  1.0147 -1.6437  0.4129
 6695TIP3    H220050   4.671   1.859   2.375 -0.2444 -0.1559 -0.0171
 6696TIP3   OH220051   0.194   1.292   5.311 -0.1577  0.2987 -0.8551
 6696TIP3    H120052   0.221   1.325   5.397  1.3430 -0.0693 -1.1584
 6696TIP3    H220053   0.270   1.306   5.255 -0.7934 -0.3110 -1.8991
 6697TIP3   OH220054   5.982   6.683   2.839  0.7683  0.1010 -0.3979
 6697TIP3    H120055   5.902   6.649   2.880  0.5354  0.7168 -0.3293
 6697TIP3    H220056   5.976   6.656   2.748  0.3316  0.3904 -0.4609
 6698TIP3   OH220057   4.452   3.683   5.763  0.0683 -0.0193  0.2080
 6698TIP3    H120058   4.445   3.777   5.743  1.8007 -0.1008 -0.9556
 6698TIP3    H220059   4.391   3.641   5.702  1.7822  0.1283 -1.7005
 6699TIP3   OH220060   3.666   0.713   0.897 -0.6320 -0.5872 -0.2814
 6699TIP3    H120061   3.754   0.750   0.901  0.0380 -2.1095 -0.2613
 6699TIP3    H220062   3.613   0.771   0.952 -0.1282  1.5614 -1.9142
 6700TIP3   OH220063   3.656   2.156   1.224 -0.3153  0.1610 -0.3142
 6700TIP3    H120064   3.653   2.128   1.315  3.0282  3.1830  0.9912
 6700TIP3    H220065   3.695   2.082   1.177  1.8627 -0.0233  1.6024
 6701TIP3   OH220066   0.339   1.172   1.473  0.1395 -0.4070 -0.4410
 6701TIP3    H120067   0.320   1.088   1.431 -1.0815  0.5886 -2.0191
 6701TIP3    H220068   0.257   1.222   1.464  1.4522  1.7093 -1.4738
 6702TIP3   OH220069   1.144   1.047   1.638  0.0193  0.2047 -0.6021
 6702TIP3    H120070   1.173   0.959   1.661 -1.3896 -0.8885 -2.6532
 6702TIP3    H220071   1.057   1.055   1.676 -0.9874 -0.4041 -2.6155
 6703TIP3   OH220072   5.330   2.414   1.136 -0.1242  0.3571  0.0109
 6703TIP3    H120073   5.318   2.473   1.211 -1.7596  1.0326 -0.7319
 6703TIP3    H220074   5.419   2.431   1.106  1.5523 -1.7109  3.2302
 6704TIP3   OH220075   1.791   0.567   1.444  0.2140  0.4315 -0.0209
 6704TIP3    H120076   1.747   0.490   1.408  0.1848  0.3923  0.0980
 6704TIP3    H220077   1.847   0.598   1.373 -1.1706  1.4035 -0.7159
 6705TIP3   OH220078   6.539   2.228   0.902 -0.4534  0.2321 -0.2723
 6705TIP3    H120079   6.619   2.272   0.874 -0.9887  0.3017 -1.8070
 6705TIP3    H220080   6.514   2.174   0.827  1.0562 -4.1335  2.0262
 6706TIP3   OH220081   6.237   3.310   3.372  0.0155 -0.0516 -0.0020
 6706TIP3    H120082   6.202   3.301   3.283 -0.5598 -0.5202  0.2691
 6706TIP3    H220083   6.296   3.385   3.367  1.0920 -0.9110 -1.1302
 6707TIP3   OH220084   0.700   0.289   1.709 -0.4410  0.0942 -0.1283
 6707TIP3    H120085   0.668   0.379   1.709  0.3639  0.3877 -0.0942
 6707TIP3    H220086   0.647   0.244   1.776 -0.5804  0.6385  0.1274
 6708TIP3   OH220087   3.499   0.873   5.266  0.0455  0.3125  0.1047
 6708TIP3    H120088   3.474   0.823   5.189  1.7791  0.0622 -0.3545
 6708TIP3    H220089   3.514   0.962   5.234  3.1500 -0.2851 -0.4636
 6709TIP3   OH220090   6.073   0.864   5.311 -0.1745  0.2005  0.3781
 6709TIP3    H120091   6.145   0.836   5.254  0.2343  1.0435  0.4691
 6709TIP3    H220092   6.047   0.783   5.356  1.1965  0.0009  0.8732
 6710TIP3   OH220093   4.611   6.192   4.096 -0.7180 -0.4813 -0.0887
 6710TIP3    H120094   4.689   6.223   4.051 -0.6763  0.7387  0.7642
 6710TIP3    H220095   4.538   6.226   4.045 -0.6740  0.3892  0.4195
 6711TIP3   OH220096   1.120   1.598   5.594  0.3687 -0.3107  0.3596
 6711TIP3    H120097   1.195   1.628   5.542 -1.4213  3.4200 -0.3775
 6711TIP3    H220098   1.138   1.631   5.682  0.7388 -1.7126  0.8375
 6712TIP3   OH220099   2.229   0.134   1.095  0.3629  0.3105 -0.4898
 6712TIP3    H120100   2.261   0.208   1.043 -0.3807  0.3125 -0.9632
 6712TIP3    H220101   2.137   0.154   1.111  1.1168  1.6214  3.1389
 6713TIP3   OH220102   2.138   2.238   4.397  0.1896  0.1249  0.3754
 6713TIP3    H120103   2.101   2.245   4.309  3.7578  1.9197 -1.1658
 6713TIP3    H220104   2.194   2.161   4.393  1.1403  0.7845  0.7167
 6714TIP3   OH220105   3.063   1.007   4.982  0.2002  0.3732 -0.7018
 6714TIP3    H120106   3.008   0.932   4.960  1.7074  0.0046 -3.9240
 6714TIP3    H220107   3.003   1.072   5.018 -1.6252 -1.3579 -0.4554
 6715TIP3   OH220108   6.931   2.523   2.230 -0.0024 -0.4456  0.1295
 6715TIP3    H120109   6.898   2.462   2.164  0.5953  0.7470 -1.3427
 6715TIP3    H220110   7.017   2.487   2.253 -0.5708 -1.3390  0.9469
 6716TIP3   OH220111   0.142   3.458   4.693 -0.6314  0.2656  0.3334
 6716TIP3    H120112   0.180   3.458   4.605 -1.0173  1.7112  0.1490
 6716TIP3    H220113   0.054   3.495   4.681 -0.6856  0.4805  1.3252
 6717TIP3   OH220114   5.219   1.609   4.519  0.1902 -0.1836 -0.7817
 6717TIP3    H120115   5.206   1.654   4.602 -0.6059 -1.3902 -0.2199
 6717TIP3    H220116   5.152   1.540   4.518  3.0526 -3.2480 -0.2604
 6718TIP3   OH220117  -0.001   1.827   1.383  0.1277  0.2466  0.4786
 6718TIP3    H120118   0.092   1.826   1.407  0.5158  2.3010 -0.6913
 6718TIP3    H220119  -0.015   1.913   1.344 -2.4126  0.1926  1.0630
 6719TIP3   OH220120   1.350   5.125   3.777  0.3770  0.0114  0.3183
 6719TIP3    H120121   1.267   5.142   3.822  0.8888  1.4006  0.7788
 6719TIP3    H220122   1.413   5.108   3.847  0.9041  0.9571  0.0955
 6720TIP3   OH220123   1.834   1.013   2.748 -0.0710  0.1251  0.0470
 6720TIP3    H120124   1.928   0.999   2.742  0.1076  0.1319  2.0770
 6720TIP3    H220125   1.801   0.999   2.659  1.7115 -0.8219 -0.4966
 6721TIP3   OH220126   6.472   2.165   3.391  0.2070  0.2834 -0.1223
 6721TIP3    H120127   6.437   2.238   3.340  0.8782 -0.4188 -1.6468
 6721TIP3    H220128   6.398   2.106   3.403 -0.5190  1.4875  1.7264
 6722TIP3   OH220129   4.672   1.057   0.611  0.0497 -0.5687  0.1375
 6722TIP3    H120130   4.610   1.051   0.684  0.0391 -0.0075  0.1755
 6722TIP3    H220131   4.619   1.037   0.534 -0.1465 -0.2620  0.1892
 6723TIP3   OH220132   1.747   4.813   5.214 -0.4214  0.0356  0.0627
 6723TIP3    H120133   1.657   4.837   5.192  0.0875  1.5530 -0.4837
 6723TIP3    H220134   1.738   4.733   5.265 -2.0386 -0.2110 -0.5393
 6724TIP3   OH220135   5.632   3.443   2.896  0.3101 -0.1236  0.9840
 6724TIP3    H120136   5.586   3.481   2.821 -0.2868 -2.0626  0.3088
 6724TIP3    H220137   5.562   3.421   2.958  0.8468  2.1208  2.5039
 6725TIP3   OH220138   4.557   4.259   5.421 -0.2115 -0.4601 -0.1426
 6725TIP3    H120139   4.628   4.321   5.402  0.5321 -1.2127  0.1201
 6725TIP3    H220140   4.541   4.214   5.338 -0.6503 -0.0229 -0.2972
 6726TIP3   OH220141   5.570   4.615   0.155  0.0164 -0.1815  0.2947
 6726TIP3    H120142   5.648   4.562   0.140 -2.0018 -2.9961 -1.0119
 6726TIP3    H220143   5.512   4.559   0.207 -2.3902  0.4773 -1.4883
 6727TIP3   OH220144   5.475   5.463   2.222  0.4532 -0.2748  0.1383
 6727TIP3    H120145   5.540   5.432   2.285 -0.2925  0.5244  1.3365
 6727TIP3    H220146   5.390   5.444   2.263 -0.0816  3.2260  1.0102
 6728TIP3   OH220147   4.184   6.596   5.022  0.2863 -0.2833  0.3533
 6728TIP3    H120148   4.190   6.556   4.936  0.4865 -2.0438  1.1538
 6728TIP3    H220149   4.270   6.636   5.035 -0.2641  1.4468 -0.8920
 6729TIP3   OH220150   5.408   4.664   2.532 -0.5315  0.1303  0.0784
 6729TIP3    H120151   5.431   4.617   2.611 -0.1299 -0.5096 -0.4086
 6729TIP3    H220152   5.429   4.756   2.551 -0.4963 -0.0132  0.7267
 6730TIP3   OH220153   5.095   0.558   5.051  0.0242  0.0470  0.3747
 6730TIP3    H120154   5.077   0.465   5.064  0.3732 -0.2377 -1.0959
 6730TIP3    H220155   5.139   0.585   5.132  0.9038 -1.3246  0.3859
 6731TIP3   OH220156   0.138   3.407   3.255  0.2164  0.5221  0.4461
 6731TIP3    H120157   0.219   3.438   3.296  0.8156 -1.6546  1.0715
 6731TIP3    H220158   0.161   3.321   3.220 -1.6666  0.1372  0.0422
 6732TIP3   OH220159   6.741   6.289   4.015 -0.0268 -0.8283  0.3655
 6732TIP3    H120160   6.755   6.352   4.086  0.0690 -0.1045 -0.2792
 6732TIP3    H220161   6.778   6.207   4.047 -0.9436 -0.8001  1.5804
 6733TIP3   OH220162   0.680   0.345   2.598  0.1107  0.3488 -0.2382
 6733TIP3    H120163   0.655   0.437   2.601 -0.2896  0.2187  0.7644
 6733TIP3    H220164   0.773   0.345   2.620  0.3009  0.5803 -1.0356
 6734TIP3   OH220165   1.389   3.785   4.787  0.1368  0.6365 -0.2163
 6734TIP3    H120166   1.398   3.706   4.841 -1.5901  0.6954  0.2233
 6734TIP3    H220167   1.407   3.857   4.847 -0.6424  0.6549  0.0072
 6735TIP3   OH220168   1.372   2.243   5.057  0.2808 -0.3775  0.3716
 6735TIP3    H120169   1.278   2.241   5.075  0.2812 -0.0002  0.4220
 6735TIP3    H220170   1.412   2.210   5.137  0.1888 -0.6178  0.3201
 6736TIP3   OH220171   1.630   3.143   4.263 -0.7234  0.2734  0.0271
 6736TIP3    H120172   1.572   3.084   4.215  0.2697  0.2063 -1.1650
 6736TIP3    H220173   1.602   3.231   4.237  0.4819  0.2299 -1.6081
 6737TIP3   OH220174   6.039   0.592   3.016  0.6754  0.5583  0.0227
 6737TIP3    H120175   6.015   0.506   3.049  1.4666  0.2499 -0.1691
 6737TIP3    H220176   6.004   0.594   2.927  2.3526 -0.3711 -0.7028
 6738TIP3   OH220177   4.355   5.428   1.781 -0.0461 -0.0202 -0.0477
 6738TIP3    H120178   4.366   5.493   1.712 -1.5952  2.2182  1.6691
 6738TIP3    H220179   4.389   5.347   1.743 -0.1441  1.2410 -3.1176
 6739TIP3   OH220180   5.358   4.458   0.237 -0.1520  0.1413 -0.3356
 6739TIP3    H120181   5.389   4.389   0.178 -1.4508 -1.1812  0.4484
 6739TIP3    H220182   5.282   4.419   0.281 -1.4077  2.3434 -0.4058
 6740TIP3   OH220183   2.827   4.468   5.599 -0.1474 -0.8313  0.2377
 6740TIP3    H120184   2.845   4.464   5.505 -0.2979 -3.8214  0.2364
 6740TIP3    H220185   2.912   4.451   5.641 -0.4664 -1.7669  0.5433
 6741TIP3   OH220186   5.135   4.928   4.404 -0.1077 -0.0361 -0.2208
 6741TIP3    H120187   5.124   4.925   4.309 -1.9317 -0.4892 -0.0176
 6741TIP3    H220188   5.074   4.996   4.433  0.5465  0.2081  0.6276
 6742TIP3   OH220189   1.241   1.781   1.868  0.0532 -0.2389 -0.0446
 6742TIP3    H120190   1.181   1.823   1.930  1.8556  0.8600  1.0612
 6742TIP3    H220191   1.234   1.834   1.789 -0.0772  0.1790  0.2413
 6743TIP3   OH220192   4.641   5.448   1.414 -0.0249 -0.9748  0.3583
 6743TIP3    H120193   4.680   5.498   1.343 -1.4767  0.2659  0.3720
 6743TIP3    H220194   4.560   5.412   1.376 -1.1859  0.2855  1.5133
 6744TIP3   OH220195   2.549   5.242   2.686  0.3057  0.4507  0.1691
 6744TIP3    H120196   2.603   5.218   2.762  0.3573 -1.1081 -0.3177
 6744TIP3    H220197   2.576   5.180   2.618 -1.0165  0.6464 -0.5614
 6745TIP3   OH220198   3.773   6.282   1.097  0.1177  0.5129 -0.0163
 6745TIP3    H120199   3.828   6.206   1.117  0.1972  0.1764 -1.3922
 6745TIP3    H220200   3.686   6.256   1.125  0.4224  0.5531  1.0121
 6746TIP3   OH220201   0.889   5.132   4.551 -0.1148  0.6135  0.8657
 6746TIP3    H120202   0.978   5.145   4.585 -0.1216  0.1360  1.0695
 6746TIP3    H220203   0.858   5.220   4.531  0.7638  0.7256 -0.1286
 6747TIP3   OH220204   0.790   4.720   4.604  0.4038 -0.4188  0.4505
 6747TIP3    H120205   0.832   4.683   4.681  1.9205 -0.1726 -0.2169
 6747TIP3    H220206   0.776   4.646   4.546 -0.9318 -0.6366  1.0261
 6748TIP3   OH220207   2.123   4.188   5.288  0.5217 -0.6686  0.0193
 6748TIP3    H120208   2.135   4.225   5.201  2.4612  1.7974  1.2033
 6748TIP3    H220209   2.207   4.147   5.309  0.2172 -0.8805  0.8799
 6749TIP3   OH220210   1.943   5.322   3.763 -0.5149 -0.3625 -0.3007
 6749TIP3    H120211   1.899   5.403   3.738  1.6272 -0.0859 -3.7437
 6749TIP3    H220212   1.875   5.255   3.755 -1.6388  0.7050 -0.0290
 6750TIP3   OH220213   6.034   1.927   0.490  0.2408  0.5075  0.0244
 6750TIP3    H120214   5.978   1.887   0.557  1.2418 -0.4682  0.2973
 6750TIP3    H220215   6.047   1.857   0.425  1.8595  0.4170  0.4133
 6751TIP3   OH220216   3.514   6.660   3.629 -0.1020  0.6104  0.1980
 6751TIP3    H120217   3.517   6.572   3.665  0.6473 -1.0557 -3.4863
 6751TIP3    H220218   3.593   6.703   3.663  2.0865 -1.8087 -1.4448
 6752TIP3   OH220219   3.990   0.718   3.892 -1.0083  0.0485 -0.6312
 6752TIP3    H120220   3.983   0.697   3.985  0.3380  0.6741 -0.3739
 6752TIP3    H220221   4.069   0.673   3.862 -0.1987  1.6034 -0.9371
 6753TIP3   OH220222   0.823   5.559   5.401 -0.8498 -0.4311 -0.1669
 6753TIP3    H120223   0.919   5.562   5.398 -0.7526  2.7965  1.7543
 6753TIP3    H220224   0.797   5.546   5.310  1.3846 -0.7517 -0.8355
 6754TIP3   OH220225   5.546   6.343   0.508 -0.2437  0.2984 -0.3796
 6754TIP3    H120226   5.548   6.254   0.542 -0.7170  0.9403  1.4661
 6754TIP3    H220227   5.607   6.342   0.434  1.7694 -0.9405  1.1728
 6755TIP3   OH220228   0.192   5.983   1.720  0.2369 -0.4028 -0.0406
 6755TIP3    H120229   0.217   6.004   1.630  2.0795 -1.7336  0.0977
 6755TIP3    H220230   0.140   6.058   1.749  1.3779  1.0386 -1.5417
 6756TIP3   OH220231   0.463   6.538   0.086 -0.0657 -0.3609 -0.1668
 6756TIP3    H120232   0.445   6.574  -0.001 -1.5170 -0.2409  0.1660
 6756TIP3    H220233   0.559   6.543   0.094 -0.0538  1.5734 -0.9373
 6757TIP3   OH220234   0.740   6.561   2.114  0.3309 -0.0209  0.2190
 6757TIP3    H120235   0.649   6.554   2.086  0.7667 -0.8726 -1.0917
 6757TIP3    H220236   0.737   6.619   2.191 -1.2747  0.1112  0.0996
 6758TIP3   OH220237   0.041   3.237   1.666  0.4101  0.4565  0.1694
 6758TIP3    H120238  -0.025   3.180   1.705  0.2187  0.6121  0.0760
 6758TIP3    H220239   0.013   3.326   1.690 -0.2806  0.6293 -1.1704
 6759TIP3   OH220240   6.357   1.020   5.232 -0.4129 -0.1206  0.4236
 6759TIP3    H120241   6.351   0.924   5.224 -1.2900 -0.0907  0.6782
 6759TIP3    H220242   6.330   1.038   5.322  0.0125  0.3497  0.4602
 6760TIP3   OH220243   4.165   5.665   3.629 -0.1659  1.0248 -0.1214
 6760TIP3    H120244   4.227   5.680   3.558  2.5365  0.8479  2.0345
 6760TIP3    H220245   4.200   5.589   3.676  0.0832  3.0653  3.2953
 6761TIP3   OH220246   4.102   5.562   4.267 -0.7435  0.5139 -0.0667
 6761TIP3    H120247   4.183   5.575   4.219 -1.2982  1.6867 -0.7195
 6761TIP3    H220248   4.105   5.471   4.296  0.9022  0.6018  0.1215
 6762TIP3   OH220249   1.514   6.232   5.101 -0.0776 -0.5146  0.4333
 6762TIP3    H120250   1.566   6.275   5.032  0.1834  0.4482  1.2100
 6762TIP3    H220251   1.423   6.246   5.075 -0.0124  0.9374  0.8908
 6763TIP3   OH220252   5.893   5.610   3.604  0.1527  0.1060 -0.5802
 6763TIP3    H120253   5.951   5.550   3.649  1.3151  2.2573  0.9903
 6763TIP3    H220254   5.811   5.562   3.594  1.0204 -1.7047  0.5624
 6764TIP3   OH220255   5.211   4.017   0.295 -0.0403  0.0343  0.3266
 6764TIP3    H120256   5.287   4.072   0.278 -0.4153  0.2192 -0.8341
 6764TIP3    H220257   5.246   3.928   0.304  0.4539  0.3029  1.2366
 6765TIP3   OH220258   1.624   2.114   3.780  0.4354  0.3466 -0.0658
 6765TIP3    H120259   1.679   2.042   3.812 -0.3376 -0.0514  0.3908
 6765TIP3    H220260   1.590   2.083   3.696  0.7254  0.5015 -0.2414
 6766TIP3   OH220261   2.424   0.090   2.422 -0.3002 -0.7768  1.0147
 6766TIP3    H120262   2.471   0.034   2.360  0.5213 -1.0348  1.8507
 6766TIP3    H220263   2.477   0.088   2.501  0.4341  2.2030  0.7079
 6767TIP3   OH220264   7.214   6.211   3.446 -0.2417 -0.4236  0.0880
 6767TIP3    H120265   7.276   6.154   3.401 -1.4938 -0.0967 -2.1824
 6767TIP3    H220266   7.130   6.168   3.437 -0.8349  0.6287  0.4193
 6768TIP3   OH220267   0.901   4.817   3.893 -0.3508  0.7379  0.7156
 6768TIP3    H120268   0.981   4.832   3.943 -1.1357 -0.1734  2.3164
 6768TIP3    H220269   0.893   4.722   3.889 -0.7842  0.8073 -0.3906
 6769TIP3   OH220270   6.265   2.872   3.622 -0.3998 -0.3272  0.1241
 6769TIP3    H120271   6.248   2.918   3.704 -2.3267 -2.4524  0.9901
 6769TIP3    H220272   6.352   2.834   3.634 -1.0722 -1.4649  1.6291
 6770TIP3   OH220273   2.671   3.795   0.997 -0.2884 -0.5053 -0.1698
 6770TIP3    H120274   2.684   3.812   1.091  0.4644  0.4817 -0.4342
 6770TIP3    H220275   2.650   3.702   0.993  0.6246 -0.7942  0.9137
 6771TIP3   OH220276   3.365   2.111   4.161  0.0094  0.0035  0.0799
 6771TIP3    H120277   3.286   2.064   4.137  0.3563 -1.2521  1.2862
 6771TIP3    H220278   3.430   2.043   4.178  0.4581  0.8593  2.1004
 6772TIP3   OH220279   5.695   4.555   3.455 -0.1098  0.3669 -0.4840
 6772TIP3    H120280   5.616   4.510   3.486 -1.2076  0.1628 -3.2441
 6772TIP3    H220281   5.678   4.571   3.362  1.8100  3.1719 -0.4948
 6773TIP3   OH220282   3.304   4.594   3.131  0.5231  0.4307  0.1467
 6773TIP3    H120283   3.263   4.523   3.081  0.1842 -0.4995  1.6617
 6773TIP3    H220284   3.231   4.632   3.181  1.2935 -0.6101  2.1472
 6774TIP3   OH220285   2.326   1.239   1.981  0.2959 -0.1361 -0.0259
 6774TIP3    H120286   2.346   1.181   2.055 -0.1693 -1.5320 -0.9656
 6774TIP3    H220287   2.411   1.257   1.942  0.9417  2.7816  2.3010
 6775TIP3   OH220288   1.247   1.376   2.090 -0.1061 -0.0827  0.2165
 6775TIP3    H120289   1.210   1.376   2.001 -0.2097 -0.6443  0.2549
 6775TIP3    H220290   1.288   1.290   2.098  1.8509  0.7649 -0.0831
 6776TIP3   OH220291   2.670   0.189   3.327 -0.5857  0.0422  0.3074
 6776TIP3    H120292   2.675   0.266   3.384 -1.5115  0.3202  0.0308
 6776TIP3    H220293   2.735   0.128   3.363 -0.1765  0.7603  0.8131
 6777TIP3   OH220294   6.586   5.641   2.147  0.9670 -0.5458  0.0516
 6777TIP3    H120295   6.580   5.589   2.227 -0.1962 -0.0959  0.2764
 6777TIP3    H220296   6.597   5.731   2.178  1.4625 -0.4783 -0.3132
 6778TIP3   OH220297   1.437   4.390   4.694 -0.4511  0.4630  0.1199
 6778TIP3    H120298   1.477   4.476   4.704 -0.1430  0.2772  0.4837
 6778TIP3    H220299   1.506   4.336   4.657 -0.7049  0.4182 -0.2945
 6779TIP3   OH220300   4.633   2.710   5.093 -0.6538  0.3791  0.1759
 6779TIP3    H120301   4.620   2.656   5.016  1.1847  0.3216 -0.1467
 6779TIP3    H220302   4.661   2.648   5.161 -0.9596  0.6000  0.5048
 6780TIP3   OH220303   3.901   5.333   2.405 -0.1561  0.1973  0.2779
 6780TIP3    H120304   3.891   5.238   2.393  0.4020  0.3305 -1.4394
 6780TIP3    H220305   3.813   5.364   2.427 -0.2301 -0.7808  1.4720
 6781TIP3   OH220306   4.712   4.386   2.203  0.4304 -0.0282  0.6132
 6781TIP3    H120307   4.752   4.383   2.290  1.0839 -0.3842  0.3096
 6781TIP3    H220308   4.752   4.463   2.162  0.1406  0.1259  0.6207
 6782TIP3   OH220309   0.814   1.527   3.457 -0.0823  0.0422 -0.0757
 6782TIP3    H120310   0.827   1.503   3.549  0.7382  2.3206  0.4550
 6782TIP3    H220311   0.786   1.618   3.459  0.0173  0.1669 -2.1098
 6783TIP3   OH220312   0.548   2.185   4.303 -0.1570 -0.2689  0.1587
 6783TIP3    H120313   0.571   2.191   4.396 -2.0357 -0.0187  0.6455
 6783TIP3    H220314   0.453   2.176   4.302 -0.4402  1.9400 -1.8088
 6784TIP3   OH220315   1.219   5.503   2.709  0.4168  0.1899 -0.5145
 6784TIP3    H120316   1.226   5.586   2.662 -0.1596 -0.5400 -1.9323
 6784TIP3    H220317   1.244   5.437   2.645  1.7535 -0.6974  0.8547
 6785TIP3   OH220318   4.830   4.475   3.570  0.0603  0.2211  0.4339
 6785TIP3    H120319   4.920   4.450   3.547  0.2014  0.6060  0.5694
 6785TIP3    H220320   4.784   4.391   3.581  0.1960  0.0261 -0.4331
 6786TIP3   OH220321   3.826   0.142   2.382 -0.5380  0.6119  0.0758
 6786TIP3    H120322   3.867   0.099   2.308 -1.6412 -0.5188  0.0817
 6786TIP3    H220323   3.875   0.224   2.394 -0.4767  0.9135 -2.0080
 6787TIP3   OH220324   4.539   0.406   4.095 -0.1761  0.2850 -0.2597
 6787TIP3    H120325   4.616   0.393   4.040 -0.0770  0.5015 -0.1724
 6787TIP3    H220326   4.572   0.403   4.185 -0.2357  0.5626 -0.2252
 6788TIP3   OH220327   3.270   4.189   5.074 -0.3454  0.3633  0.8321
 6788TIP3    H120328   3.259   4.274   5.032 -0.9227  0.4866  1.2179
 6788TIP3    H220329   3.201   4.134   5.036 -0.3061  0.2238  0.9609
 6789TIP3   OH220330   6.350   2.711   3.340 -0.3921 -0.1640 -0.7965
 6789TIP3    H120331   6.336   2.645   3.408  0.8364 -1.1166 -1.4185
 6789TIP3    H220332   6.281   2.775   3.354 -0.4335 -0.5572  1.0826
 6790TIP3   OH220333   0.110   4.441   3.114 -0.1970 -0.1618 -0.3248
 6790TIP3    H120334   0.047   4.495   3.160  0.4817  1.8860 -1.6664
 6790TIP3    H220335   0.193   4.454   3.160  0.0819  0.3867 -0.9667
 6791TIP3   OH220336   5.499   0.462   5.401  0.5989 -0.4320  0.6522
 6791TIP3    H120337   5.508   0.474   5.496 -0.2134 -0.0662  0.6930
 6791TIP3    H220338   5.431   0.395   5.392  0.1021  0.1041  0.3272
 6792TIP3   OH220339   6.847   3.641   1.066 -0.4628 -0.0900 -0.8129
 6792TIP3    H120340   6.853   3.602   0.979 -2.1601 -0.5193 -0.7856
 6792TIP3    H220341   6.755   3.665   1.075 -0.3279 -0.0826  0.8694
 6793TIP3   OH220342   5.234   0.443   1.382 -0.0662 -0.3863  0.4345
 6793TIP3    H120343   5.168   0.395   1.333  0.4969  0.1717 -0.8985
 6793TIP3    H220344   5.194   0.456   1.469 -1.7241 -0.0342 -0.3396
 6794TIP3   OH220345   1.150   3.607   2.942 -0.2718  0.0473  0.1854
 6794TIP3    H120346   1.107   3.567   2.866  0.7432 -0.7937  0.0377
 6794TIP3    H220347   1.197   3.682   2.906 -1.0942  0.6088  0.2521
 6795TIP3   OH220348   3.976   6.655   0.649  0.1405  0.3755 -0.1635
 6795TIP3    H120349   3.968   6.572   0.695 -0.7894 -1.0386 -2.6507
 6795TIP3    H220350   3.890   6.695   0.656  0.3652  0.7792  0.3707
 6796TIP3   OH220351   6.964   3.246   2.547 -0.5523  0.0168  0.3694
 6796TIP3    H120352   6.925   3.171   2.591  1.5316 -0.6593  1.1857
 6796TIP3    H220353   6.906   3.263   2.473 -0.2889 -3.4290 -0.7932
 6797TIP3   OH220354   1.801   4.721   1.765 -0.0688  0.2446 -0.1153
 6797TIP3    H120355   1.886   4.678   1.757 -0.9259 -1.5560  0.0703
 6797TIP3    H220356   1.791   4.769   1.683  2.1307  2.5037  0.7925
 6798TIP3   OH220357   4.391   0.754   0.304  0.2754  0.2319  0.4134
 6798TIP3    H120358   4.405   0.738   0.210 -0.9533  2.9884 -0.3327
 6798TIP3    H220359   4.303   0.790   0.309  0.1232 -0.3111  2.7414
 6799TIP3   OH220360   7.051   5.923   1.842  0.3345  0.3378  0.9044
 6799TIP3    H120361   7.045   5.828   1.847  0.8431  0.2975  0.7969
 6799TIP3    H220362   7.056   5.943   1.749 -0.6884  0.5345  0.8845
 6800TIP3   OH220363   5.530   0.924   3.472  0.3039 -0.0179  0.2353
 6800TIP3    H120364   5.547   0.852   3.531  0.2902 -1.6470 -1.6372
 6800TIP3    H220365   5.453   0.897   3.422  0.8318  0.8691 -1.1191
 6801TIP3   OH220366   7.115   5.842   5.656  0.5982  0.2478  0.0265
 6801TIP3    H120367   7.096   5.784   5.730 -0.3426  1.1805  0.5370
 6801TIP3    H220368   7.029   5.868   5.624  0.9868  1.8919  0.2447
 6802TIP3   OH220369   7.136   2.226   1.530 -0.3584 -0.3950 -0.1113
 6802TIP3    H120370   7.043   2.248   1.530 -0.3362 -0.2667  0.6818
 6802TIP3    H220371   7.141   2.141   1.573 -0.1387 -0.5575 -0.4536
 6803TIP3   OH220372   0.997   0.275   1.166  0.2330 -0.1432 -0.1698
 6803TIP3    H120373   1.065   0.341   1.176 -1.1660  1.4126 -0.3842
 6803TIP3    H220374   0.919   0.315   1.205 -0.4793 -2.0063  0.4057
 6804TIP3   OH220375   5.258   2.362   5.046  0.0049  0.4954 -0.0992
 6804TIP3    H120376   5.212   2.333   5.124  1.0455  0.8831  0.6780
 6804TIP3    H220377   5.270   2.457   5.058  2.9154  0.1086  0.8079
 6805TIP3   OH220378   6.971   3.868   2.576  1.1238  0.6130  0.2450
 6805TIP3    H120379   6.936   3.782   2.551  2.6331 -0.9344  2.9288
 6805TIP3    H220380   6.970   3.919   2.495 -2.3256 -0.9682 -0.9007
 6806TIP3   OH220381   5.202   5.354   3.302 -0.1499  0.1209 -0.1131
 6806TIP3    H120382   5.205   5.447   3.279 -2.4134  0.6698  1.4853
 6806TIP3    H220383   5.130   5.347   3.365 -1.0444 -2.9692 -1.2952
 6807TIP3   OH220384   5.161   2.223   2.265  0.1325 -0.5909  0.1019
 6807TIP3    H120385   5.170   2.260   2.177  0.5288 -0.8468  0.0317
 6807TIP3    H220386   5.119   2.138   2.250 -1.0698 -0.0538  0.2904
 6808TIP3   OH220387   4.048   4.801   4.188  0.6065  0.3158  0.2621
 6808TIP3    H120388   4.096   4.867   4.138 -1.9711 -0.2277 -3.2905
 6808TIP3    H220389   4.081   4.717   4.156  0.5216 -0.1023  1.2248
 6809TIP3   OH220390   0.075   1.062   5.540 -0.3730 -0.1780  0.2513
 6809TIP3    H120391  -0.012   1.022   5.548 -1.2733  0.5189 -3.8531
 6809TIP3    H220392   0.123   1.005   5.480  1.3672  0.4143  1.0120
 6810TIP3   OH220393   6.626   3.393   3.706 -0.2307 -0.1163  0.2494
 6810TIP3    H120394   6.683   3.316   3.698  0.0815  0.0676  0.6295
 6810TIP3    H220395   6.559   3.381   3.639  0.8029  0.1396 -0.8586
 6811TIP3   OH220396   1.003   3.050   3.026 -0.0488  0.1715 -0.0359
 6811TIP3    H120397   1.083   3.022   2.981 -0.5624 -0.2659 -0.6958
 6811TIP3    H220398   1.033   3.081   3.111  1.0327  1.6649 -0.9136
 6812TIP3   OH220399   6.865   5.855   4.284 -0.7873  0.1384  0.5420
 6812TIP3    H120400   6.845   5.773   4.327 -0.7980  0.1714  0.6003
 6812TIP3    H220401   6.895   5.913   4.355  1.2696 -0.4629  0.2431
 6813TIP3   OH220402   6.209   2.965   0.271  0.0774 -0.3846  0.3386
 6813TIP3    H120403   6.117   2.978   0.248  0.5087  0.2026 -1.1485
 6813TIP3    H220404   6.246   2.915   0.198  0.9148 -0.7130  0.9691
 6814TIP3   OH220405   6.968   2.409   1.811 -0.2123 -0.1947  0.1518
 6814TIP3    H120406   6.983   2.317   1.787  0.2446  0.0505 -0.5248
 6814TIP3    H220407   6.882   2.429   1.775 -0.1673 -0.2661  0.0016
 6815TIP3   OH220408   1.195   4.471   5.651  0.0327 -0.2118  0.3949
 6815TIP3    H120409   1.173   4.386   5.613  1.1010 -0.8482  1.1668
 6815TIP3    H220410   1.215   4.526   5.576  1.3203 -1.2261 -0.0415
 6816TIP3   OH220411   1.523   4.274   4.986 -0.0113 -0.1934 -0.0216
 6816TIP3    H120412   1.607   4.287   4.942 -0.9338  2.4417 -1.2046
 6816TIP3    H220413   1.506   4.180   4.978  2.1426 -0.5494 -1.0004
 6817TIP3   OH220414   5.446   4.863   0.150  0.0841 -0.1378 -0.5846
 6817TIP3    H120415   5.394   4.855   0.230 -1.3015 -0.7199 -1.5134
 6817TIP3    H220416   5.515   4.797   0.160  0.7829  0.7337  0.7139
 6818TIP3   OH220417   0.029   5.392   5.873 -0.2460  0.4367 -0.1832
 6818TIP3    H120418   0.046   5.326   5.807  0.0556 -0.6079  0.8969
 6818TIP3    H220419   0.078   5.469   5.843 -1.2656  0.4624 -1.8667
 6819TIP3   OH220420   7.028   0.972   1.397  0.2356 -0.1817  0.3136
 6819TIP3    H120421   7.052   0.894   1.348  1.2873  0.6908 -0.6301
 6819TIP3    H220422   6.974   0.940   1.469  0.8435 -1.7905  0.0938
 6820TIP3   OH220423   0.249   0.977   3.621  0.0476  0.3548 -0.2860
 6820TIP3    H120424   0.284   1.062   3.648 -0.5094 -0.1070  2.1714
 6820TIP3    H220425   0.319   0.915   3.643  1.1596  0.2246 -3.6285
 6821TIP3   OH220426   0.467   4.532   1.281 -0.5337 -0.0976  0.0776
 6821TIP3    H120427   0.539   4.481   1.319 -0.2262  0.5579  0.3989
 6821TIP3    H220428   0.452   4.493   1.195  0.5184  0.0417 -0.1815
 6822TIP3   OH220429   1.218   5.170   1.244 -0.2787  0.0011 -0.0494
 6822TIP3    H120430   1.245   5.101   1.184 -0.0799 -2.1178  2.3045
 6822TIP3    H220431   1.130   5.194   1.216  0.1716 -0.2246 -1.7223
 6823TIP3   OH220432   1.361   2.078   0.200  0.4848  0.0486  0.8608
 6823TIP3    H120433   1.318   2.064   0.285  0.6121  0.2991  0.9665
 6823TIP3    H220434   1.387   1.991   0.172  1.2247  0.0631  1.4893
 6824TIP3   OH220435   0.816   3.226   3.074 -0.1082  0.3751  0.1582
 6824TIP3    H120436   0.865   3.308   3.080 -0.3062  0.5474 -0.4771
 6824TIP3    H220437   0.880   3.162   3.042 -0.3120  0.6280 -0.7923
 6825TIP3   OH220438   3.572   3.677   0.388 -0.0297 -0.6314 -0.2290
 6825TIP3    H120439   3.505   3.695   0.455 -1.3371 -1.8515 -1.1580
 6825TIP3    H220440   3.642   3.634   0.436 -0.4865 -0.5400  0.5402
 6826TIP3   OH220441   3.568   6.831   1.034 -0.1639  0.7615 -0.7327
 6826TIP3    H120442   3.559   6.799   0.944 -3.1123 -0.3918 -0.1502
 6826TIP3    H220443   3.584   6.752   1.086 -0.1465  1.2012 -0.0545
 6827TIP3   OH220444   2.344   2.606   1.104  0.3724 -0.1000 -0.3381
 6827TIP3    H120445   2.293   2.582   1.182  0.1001 -0.2442 -0.5576
 6827TIP3    H220446   2.389   2.687   1.128 -0.5323  0.4271 -0.3819
 6828TIP3   OH220447   3.873   5.500   2.953 -0.0580  0.6028  0.0459
 6828TIP3    H120448   3.893   5.412   2.986  0.0446  0.6339  0.0673
 6828TIP3    H220449   3.958   5.544   2.949 -0.2101  1.0164  0.9654
 6829TIP3   OH220450   4.811   3.441   5.010  0.1802  0.2477 -0.6817
 6829TIP3    H120451   4.808   3.476   4.921  0.5635  1.0437 -0.3935
 6829TIP3    H220452   4.894   3.394   5.015 -0.0624 -0.2096 -0.8868
 6830TIP3   OH220453   6.387   0.982   2.714 -0.0687  0.3569  0.5804
 6830TIP3    H120454   6.346   0.906   2.674 -0.1313 -0.2193  1.6860
 6830TIP3    H220455   6.444   1.018   2.647 -2.1379  1.0184 -0.9309
 6831TIP3   OH220456   2.638   1.406   0.996 -0.3892  0.0101 -0.4464
 6831TIP3    H120457   2.626   1.444   1.083 -0.8377  2.0415 -1.3585
 6831TIP3    H220458   2.554   1.417   0.952  0.4587  1.0684 -1.8873
 6832TIP3   OH220459   1.206   3.283   4.049  0.5256  0.0910  0.1647
 6832TIP3    H120460   1.188   3.336   4.127  1.4913 -0.1163  0.5478
 6832TIP3    H220461   1.241   3.345   3.985 -1.3778  0.4873 -0.5675
 6833TIP3   OH220462   1.016   3.613   0.310  0.6084 -0.1373 -0.4823
 6833TIP3    H120463   1.078   3.580   0.375  0.3778 -1.6565 -0.9967
 6833TIP3    H220464   0.992   3.700   0.342  0.3601 -0.8955  1.5878
 6834TIP3   OH220465   5.450   5.784   3.447 -0.4539 -0.5270  0.4889
 6834TIP3    H120466   5.399   5.739   3.380  0.0304 -2.1156  1.1310
 6834TIP3    H220467   5.535   5.739   3.447  0.8822  1.8075 -0.3000
 6835TIP3   OH220468   5.457   3.982   1.616 -0.4405 -0.3757  0.1109
 6835TIP3    H120469   5.392   4.041   1.578 -1.6235 -0.8390  1.3604
 6835TIP3    H220470   5.445   3.990   1.711  1.5491 -0.2367  0.3989
 6836TIP3   OH220471   5.077   4.613   5.424 -0.5242 -0.3919 -0.0628
 6836TIP3    H120472   5.143   4.577   5.365 -1.1451 -0.8347 -0.4948
 6836TIP3    H220473   5.086   4.561   5.504  1.5137  1.3317  0.9596
 6837TIP3   OH220474   0.564   6.409   0.795 -0.5770 -0.1880  0.5586
 6837TIP3    H120475   0.597   6.320   0.789  1.8569  0.6498  0.4310
 6837TIP3    H220476   0.555   6.438   0.705 -0.8496 -0.1223  0.6054
 6838TIP3   OH220477   1.659   1.902   4.714 -0.1871 -0.4212 -0.2638
 6838TIP3    H120478   1.623   1.937   4.796  1.2502 -0.3718  0.3754
 6838TIP3    H220479   1.599   1.831   4.690 -0.6833 -0.3825  0.7915
 6839TIP3   OH220480   2.342   4.375   1.073  0.3563  0.0573 -0.4853
 6839TIP3    H120481   2.331   4.458   1.119 -0.6499 -0.1313 -0.3611
 6839TIP3    H220482   2.432   4.349   1.092  0.2045  0.3659  0.7592
 6840TIP3   OH220483   4.254   1.730   0.357 -0.0363  0.0481  0.0630
 6840TIP3    H120484   4.224   1.773   0.437 -2.4229 -1.6024  0.1932
 6840TIP3    H220485   4.253   1.637   0.379 -0.3279 -0.4148 -1.7454
 6841TIP3   OH220486   7.191   5.060   4.336 -0.1215 -0.1948  0.1324
 6841TIP3    H120487   7.176   4.973   4.298 -1.5010 -0.3926  1.0867
 6841TIP3    H220488   7.110   5.107   4.320  0.0023  0.3639  1.0946
 6842TIP3   OH220489   5.706   5.926   0.288 -0.8380 -0.4285 -0.2067
 6842TIP3    H120490   5.649   5.923   0.212  0.3187 -2.2625 -1.0727
 6842TIP3    H220491   5.740   5.836   0.297  1.5179  0.4425  0.5324
 6843TIP3   OH220492   0.493   1.707   1.370 -0.3443  0.2169  0.3479
 6843TIP3    H120493   0.527   1.750   1.449  0.5790  0.6420 -0.2662
 6843TIP3    H220494   0.498   1.613   1.390  1.5722  0.2268  0.1718
 6844TIP3   OH220495   3.786   2.572   1.532  0.1287  0.2335 -0.3929
 6844TIP3    H120496   3.786   2.656   1.487 -0.3782  0.9508  0.8754
 6844TIP3    H220497   3.839   2.515   1.477  1.2581  1.6364 -0.8379
 6845TIP3   OH220498   5.901   1.077   5.242  0.3752 -0.0267  0.3241
 6845TIP3    H120499   5.936   1.161   5.272 -0.7301  0.5423  0.0736
 6845TIP3    H220500   5.971   1.014   5.260  0.7381  0.7349  1.6676
 6846TIP3   OH220501   4.090   2.746   2.104  0.3234 -0.1332 -0.1287
 6846TIP3    H120502   4.103   2.836   2.074  0.3168 -0.4903 -1.2417
 6846TIP3    H220503   4.069   2.697   2.025 -2.6781 -0.5986  0.8419
 6847TIP3   OH220504   1.408   4.909   1.340  0.1511 -0.4450 -0.3938
 6847TIP3    H120505   1.343   4.840   1.355  0.6510 -1.1301 -1.2815
 6847TIP3    H220506   1.357   4.981   1.302 -0.2237 -0.6643 -0.3199
 6848TIP3   OH220507   1.868   1.661   3.152 -0.4587  0.0387  0.5527
 6848TIP3    H120508   1.862   1.708   3.235  0.4292  0.1563  0.5502
 6848TIP3    H220509   1.845   1.727   3.086 -0.8360  0.0308  0.6713
 6849TIP3   OH220510   2.733   2.829   4.100  0.1204 -0.4597  0.6393
 6849TIP3    H120511   2.661   2.821   4.038 -0.3015  0.2763  1.0175
 6849TIP3    H220512   2.806   2.785   4.057 -0.8218 -2.1492  0.7107
 6850TIP3   OH220513   3.691   3.273   4.443 -0.4911  0.0920  0.1316
 6850TIP3    H120514   3.663   3.300   4.356 -1.1729 -2.9136 -0.6697
 6850TIP3    H220515   3.786   3.287   4.443 -0.2351 -1.2995 -1.7008
 6851TIP3   OH220516   6.376   1.153   1.870  0.2108  0.7496  0.0571
 6851TIP3    H120517   6.470   1.147   1.856  0.0793  0.6882 -0.8610
 6851TIP3    H220518   6.357   1.247   1.869 -0.0530  0.7240 -2.1604
 6852TIP3   OH220519   6.058   5.433   3.767 -0.2840 -0.1506  0.0064
 6852TIP3    H120520   6.041   5.505   3.828 -0.6197  0.7053 -1.0827
 6852TIP3    H220521   6.006   5.360   3.803  1.7742 -0.6090  2.3741
 6853TIP3   OH220522   3.219   1.205   0.077 -0.3096  1.1831  0.1658
 6853TIP3    H120523   3.234   1.128   0.133  0.8538  1.1462 -0.1864
 6853TIP3    H220524   3.172   1.266   0.134  0.8790  1.1589  1.2279
 6854TIP3   OH220525   2.600   5.381   4.206  0.3472 -0.1996  0.5704
 6854TIP3    H120526   2.657   5.367   4.282 -0.5326  0.7419  1.4391
 6854TIP3    H220527   2.512   5.367   4.240 -0.1662  1.5631  0.0928
 6855TIP3   OH220528   6.949   6.157   5.073  0.0455 -0.2916 -0.2117
 6855TIP3    H120529   6.934   6.251   5.067 -0.5352 -0.3706 -0.0780
 6855TIP3    H220530   6.929   6.123   4.986  4.2972  0.1945 -1.6444
 6856TIP3   OH220531   4.120   4.527   0.933 -0.0336  0.2147  0.4327
 6856TIP3    H120532   4.124   4.622   0.925  0.0657  0.1660 -0.1875
 6856TIP3    H220533   4.038   4.503   0.891 -0.3463  0.0726  1.1151
 6857TIP3   OH220534   2.774   2.192   2.739 -0.2296  0.4264 -0.4281
 6857TIP3    H120535   2.860   2.220   2.710  0.6447 -1.0235  0.6195
 6857TIP3    H220536   2.756   2.245   2.817  0.0201  0.2901 -0.2751
 6858TIP3   OH220537   0.500   1.944   4.716 -0.0381 -0.0428 -0.4341
 6858TIP3    H120538   0.547   2.023   4.742 -0.1974  0.4150 -1.4798
 6858TIP3    H220539   0.444   1.923   4.791  1.4763 -0.3438  0.6481
 6859TIP3   OH220540   6.663   1.674   1.461  0.0834 -0.6557  0.6288
 6859TIP3    H120541   6.621   1.706   1.541 -1.4638  1.1065 -0.7692
 6859TIP3    H220542   6.594   1.679   1.395  2.3274  2.2667 -1.8096
 6860TIP3   OH220543   5.128   1.922   5.027  0.4851 -0.3467  0.2868
 6860TIP3    H120544   5.123   1.834   5.064 -0.3654 -0.3909  0.0856
 6860TIP3    H220545   5.219   1.931   4.999  0.8383 -0.7693  1.2547
 6861TIP3   OH220546   4.127   2.696   2.859  0.4827  0.0875  0.4238
 6861TIP3    H120547   4.092   2.674   2.945  0.2908 -0.1723  0.2797
 6861TIP3    H220548   4.058   2.672   2.797 -0.5446  2.8650  0.3557
 6862TIP3   OH220549   3.229   6.751   3.050 -0.1400  0.5768 -0.2727
 6862TIP3    H120550   3.157   6.811   3.069  0.4828  1.6305 -1.0431
 6862TIP3    H220551   3.218   6.729   2.958 -1.2090 -1.7380  0.3604
 6863TIP3   OH220552   0.580   2.264   1.123 -0.3387  0.2153  0.2959
 6863TIP3    H120553   0.532   2.289   1.202 -0.2949  3.8890 -0.6457
 6863TIP3    H220554   0.672   2.279   1.145 -0.1506 -0.6354  0.1192
 6864TIP3   OH220555   6.190   2.588   4.247  0.3055  0.3162  0.1638
 6864TIP3    H120556   6.119   2.562   4.305 -0.1848  0.7110 -0.2500
 6864TIP3    H220557   6.218   2.673   4.280  0.7294  0.0690  0.4517
 6865TIP3   OH220558   2.019   3.641   3.807 -0.5951  0.4177  0.0208
 6865TIP3    H120559   2.094   3.693   3.776  0.8606 -0.8058  1.2814
 6865TIP3    H220560   1.947   3.704   3.813  1.2342  2.4970  2.0902
 6866TIP3   OH220561   2.249   0.833   3.189  0.1875 -0.3494 -0.1395
 6866TIP3    H120562   2.337   0.812   3.222  0.1211  0.3403  0.5005
 6866TIP3    H220563   2.199   0.857   3.267 -0.4801 -0.4147 -0.5414
 6867TIP3   OH220564   1.223   1.748   3.494 -0.2670 -0.3338 -0.7877
 6867TIP3    H120565   1.297   1.793   3.535 -1.1909  0.8849 -0.3661
 6867TIP3    H220566   1.224   1.660   3.531 -0.8137  0.5762  1.6328
 6868TIP3   OH220567   5.117   5.419   0.817 -0.4920 -0.6384 -0.0269
 6868TIP3    H120568   5.100   5.492   0.756  2.0818 -0.6445 -0.8614
 6868TIP3    H220569   5.062   5.348   0.784  0.3871 -0.4593 -2.0982
 6869TIP3   OH220570   1.433   4.765   3.851 -0.0991  0.4701  0.0460
 6869TIP3    H120571   1.422   4.695   3.915 -2.5330 -0.4579 -1.2660
 6869TIP3    H220572   1.441   4.845   3.904  2.3399 -0.6848  1.5423
 6870TIP3   OH220573   2.597   0.891   2.178 -0.2251 -0.4666  0.3571
 6870TIP3    H120574   2.672   0.947   2.160 -1.8103  1.6359 -0.1325
 6870TIP3    H220575   2.569   0.916   2.267 -1.0652 -0.2926  0.0585
 6871TIP3   OH220576   3.661   5.341   5.139  0.1414  0.3442  0.3313
 6871TIP3    H120577   3.715   5.275   5.094 -0.5269 -0.4389  0.6565
 6871TIP3    H220578   3.693   5.424   5.105  0.6102 -0.1694 -0.5436
 6872TIP3   OH220579   1.882   0.327   4.269  0.1970 -0.1313 -0.0094
 6872TIP3    H120580   1.940   0.352   4.341 -0.4999  0.2930  0.4047
 6872TIP3    H220581   1.911   0.238   4.245  1.5578  0.3749 -0.3624
 6873TIP3   OH220582   4.292   0.420   5.568  0.2292 -0.0349  0.4839
 6873TIP3    H120583   4.349   0.377   5.631  0.3515  1.4318  1.4358
 6873TIP3    H220584   4.290   0.512   5.597 -0.9834  0.3492 -0.7238
 6874TIP3   OH220585   2.920   0.233   3.152  0.4669 -0.2226 -0.0274
 6874TIP3    H120586   2.946   0.295   3.083  0.3906 -0.0975  0.0557
 6874TIP3    H220587   2.843   0.273   3.192 -0.0798 -0.7776 -0.5144
 6875TIP3   OH220588   4.309   4.294   4.058  0.1441 -0.0342 -0.1355
 6875TIP3    H120589   4.353   4.349   3.994  3.3581 -1.4931  0.6161
 6875TIP3    H220590   4.287   4.214   4.010  0.0857 -0.0548 -0.0746
 6876TIP3   OH220591   0.516   3.205   1.855  0.5719 -0.0913 -0.2576
 6876TIP3    H120592   0.555   3.187   1.941  0.4061 -2.4973 -0.6121
 6876TIP3    H220593   0.574   3.161   1.793 -0.9947 -1.0707 -1.0750
 6877TIP3   OH220594   6.014   4.616   0.913  0.1908  0.5435 -0.3925
 6877TIP3    H120595   6.008   4.706   0.882 -0.0399  0.6295 -0.0984
 6877TIP3    H220596   5.934   4.574   0.882 -0.4582  0.8543  0.8022
 6878TIP3   OH220597   5.658   5.359   4.309 -0.1069  0.0592  0.2348
 6878TIP3    H120598   5.729   5.397   4.361  0.2057  0.5466 -0.5256
 6878TIP3    H220599   5.641   5.425   4.241  1.2938 -1.6651 -1.9012
 6879TIP3   OH220600   2.071   0.365   2.365  0.1950 -0.4492 -0.1366
 6879TIP3    H120601   2.013   0.440   2.354  0.9500  0.1458 -0.1922
 6879TIP3    H220602   2.014   0.289   2.361 -0.4910  0.0862 -0.9006
 6880TIP3   OH220603   6.873   3.168   0.207  0.3532  0.1727 -0.5421
 6880TIP3    H120604   6.783   3.180   0.175 -0.0723  0.3100  0.6266
 6880TIP3    H220605   6.861   3.130   0.294  1.4527 -0.1819 -0.5398
 6881TIP3   OH220606   3.892   6.027   3.140  0.3277  0.3641 -0.2097
 6881TIP3    H120607   3.916   6.012   3.049  3.1807 -1.0093  0.6333
 6881TIP3    H220608   3.902   6.122   3.152  1.0461  0.4127 -1.0770
 6882TIP3   OH220609   5.740   3.501   4.656 -0.3469 -0.2256 -0.6457
 6882TIP3    H120610   5.806   3.499   4.586 -0.2453  1.1438 -0.6224
 6882TIP3    H220611   5.767   3.573   4.712 -3.4130  2.4072 -2.2245
 6883TIP3   OH220612   6.714   1.910   2.620 -0.2694  0.5071 -0.0806
 6883TIP3    H120613   6.732   1.868   2.536 -0.6116 -0.8637  0.5091
 6883TIP3    H220614   6.799   1.943   2.650  0.2555 -0.8994  0.0360
 6884TIP3   OH220615   5.050   4.600   4.311  0.0828  0.5997  0.6723
 6884TIP3    H120616   5.099   4.612   4.392 -2.2967 -2.2776  2.7915
 6884TIP3    H220617   5.094   4.528   4.266 -0.4779 -0.0444  1.1321
 6885TIP3   OH220618   5.362   5.157   3.931 -0.0290  0.5397 -0.2440
 6885TIP3    H120619   5.374   5.247   3.900 -0.8701  0.9465  0.5587
 6885TIP3    H220620   5.356   5.166   4.027 -2.3517 -0.0756 -0.2822
 6886TIP3   OH220621   0.145   5.599   5.049 -0.1242  0.0480 -0.2984
 6886TIP3    H120622   0.193   5.520   5.073 -1.3118 -0.9505 -1.1367
 6886TIP3    H220623   0.076   5.569   4.990  0.6410  1.9599 -2.3224
 6887TIP3   OH220624   0.699   5.482   3.685  0.0087  0.7977  0.2975
 6887TIP3    H120625   0.678   5.417   3.752  0.6756  1.0353  0.7433
 6887TIP3    H220626   0.627   5.475   3.622 -0.0209 -0.2421  0.4301
 6888TIP3   OH220627   4.496   3.889   5.555  0.3485  0.9389 -0.2060
 6888TIP3    H120628   4.548   3.829   5.502 -1.1678 -0.9682  0.3519
 6888TIP3    H220629   4.426   3.918   5.496 -0.6206 -0.2124  0.3328
 6889TIP3   OH220630   0.259   5.057   1.072 -0.0662 -0.4882 -0.2817
 6889TIP3    H120631   0.200   5.121   1.111  0.0100  0.4224 -1.5952
 6889TIP3    H220632   0.241   5.061   0.978  2.1556 -0.0692 -0.7640
 6890TIP3   OH220633   0.607   1.311   2.913 -0.0882 -0.4532 -0.0607
 6890TIP3    H120634   0.512   1.307   2.903 -0.1405  0.8563 -0.3366
 6890TIP3    H220635   0.625   1.403   2.931  1.0447 -0.8710  1.0773
 6891TIP3   OH220636   5.638   3.051   0.327  0.2723  0.3993 -0.3813
 6891TIP3    H120637   5.667   3.036   0.417  0.5445 -2.3100 -0.8259
 6891TIP3    H220638   5.547   3.080   0.336  0.0402 -0.6018  0.7764
 6892TIP3   OH220639   4.316   0.150   0.219  0.3666  0.3924  0.5712
 6892TIP3    H120640   4.339   0.243   0.221  0.6439  0.3509 -0.2056
 6892TIP3    H220641   4.312   0.129   0.126 -1.4357  0.0517  0.6861
 6893TIP3   OH220642   3.113   2.024   3.832  0.6199 -0.2452 -0.3177
 6893TIP3    H120643   3.148   2.042   3.745 -0.8760 -1.6412 -1.2805
 6893TIP3    H220644   3.078   2.108   3.862 -1.6095 -0.3114 -2.4464
 6894TIP3   OH220645   3.584   4.256   5.808 -0.1099 -0.4152 -0.7923
 6894TIP3    H120646   3.670   4.293   5.830 -1.1923  2.5027 -0.9408
 6894TIP3    H220647   3.522   4.310   5.858 -1.8669 -2.8240 -0.2128
 6895TIP3   OH220648   0.400   0.723   4.524  0.2156  0.4896 -0.3001
 6895TIP3    H120649   0.472   0.670   4.557  0.9444  0.8973 -1.1744
 6895TIP3    H220650   0.354   0.666   4.463  0.3632  0.5242 -0.4443
 6896TIP3   OH220651   4.349   3.184   0.192 -0.0405 -0.1102 -0.4914
 6896TIP3    H120652   4.393   3.121   0.249  0.4694 -0.1406 -0.9128
 6896TIP3    H220653   4.256   3.166   0.205  0.0810 -0.4377 -0.0316
 6897TIP3   OH220654   0.632   3.678   3.668  0.5024  0.2279 -0.3282
 6897TIP3    H120655   0.717   3.716   3.691  1.0622 -0.0872 -1.7353
 6897TIP3    H220656   0.617   3.611   3.735  1.5025  0.1020 -0.2102
 6898TIP3   OH220657   0.646   3.490   3.410 -0.4120 -0.6478 -0.5663
 6898TIP3    H120658   0.671   3.540   3.487 -0.4951  0.6909 -1.3677
 6898TIP3    H220659   0.682   3.403   3.425 -0.0712 -0.2969  0.7861
 6899TIP3   OH220660   3.380   4.927   0.363  0.6864  0.3604  0.2191
 6899TIP3    H120661   3.460   4.885   0.395 -0.0855 -1.2094  0.1727
 6899TIP3    H220662   3.405   4.965   0.278  1.4705  0.2382  0.3862
 6900TIP3   OH220663   6.492   3.367   1.775  0.2114  0.1114  0.0157
 6900TIP3    H120664   6.572   3.409   1.743 -0.7920  1.9716 -0.2210
 6900TIP3    H220665   6.493   3.382   1.869  0.9777 -1.4257  0.2731
 6901TIP3   OH220666   4.157   1.653   1.524 -0.0243 -0.3753  0.3973
 6901TIP3    H120667   4.113   1.704   1.591 -0.1666  0.8660 -0.6056
 6901TIP3    H220668   4.229   1.709   1.494  0.2189 -1.0258 -0.2778
 6902TIP3   OH220669   3.484   5.733   0.103 -0.2328  0.3172 -0.8543
 6902TIP3    H120670   3.525   5.652   0.133  0.8595  1.0070 -0.4453
 6902TIP3    H220671   3.486   5.726   0.007 -2.2318 -1.1388 -0.8600
 6903TIP3   OH220672   3.612   1.238   1.955 -0.0089 -0.0992  0.1668
 6903TIP3    H120673   3.567   1.311   1.912  0.0647 -1.4697 -2.4621
 6903TIP3    H220674   3.543   1.173   1.969  0.1053  0.0634  1.5717
 6904TIP3   OH220675   3.164   4.109   5.325  0.1689 -0.1381 -0.0350
 6904TIP3    H120676   3.173   4.180   5.389 -0.3567  0.3820 -0.5221
 6904TIP3    H220677   3.198   4.146   5.244  2.1400 -1.2576  0.2171
 6905TIP3   OH220678   5.282   0.081   1.121  0.8939 -0.3671  0.9454
 6905TIP3    H120679   5.201   0.046   1.085 -0.0688  2.4070  0.1987
 6905TIP3    H220680   5.342   0.084   1.046  0.2100  1.6362  0.4331
 6906TIP3   OH220681   2.603   3.578   1.731  0.1959  0.3167 -0.1677
 6906TIP3    H120682   2.612   3.634   1.809  0.9896 -0.4185  0.2964
 6906TIP3    H220683   2.650   3.497   1.755 -3.5960 -1.9479  0.4808
 6907TIP3   OH220684   0.495   6.208   3.174 -0.0536  0.5954  0.2861
 6907TIP3    H120685   0.587   6.214   3.202 -0.2978  0.3769  1.1559
 6907TIP3    H220686   0.495   6.141   3.107  0.4440  0.6639  0.2115
 6908TIP3   OH220687   4.198   3.762   4.195 -0.1456  0.0844 -0.0018
 6908TIP3    H120688   4.250   3.693   4.237 -1.4550 -1.6671 -1.0964
 6908TIP3    H220689   4.210   3.838   4.251  1.1453 -1.1006  1.4439
 6909TIP3   OH220690   2.766   3.723   0.375  0.0669 -0.3403 -0.1040
 6909TIP3    H120691   2.719   3.691   0.452 -0.7201  0.0353 -0.4209
 6909TIP3    H220692   2.829   3.654   0.355 -2.2524 -2.2315 -1.3854
 6910TIP3   OH220693   1.859   2.363   5.820  0.7311  0.1350  0.0203
 6910TIP3    H120694   1.773   2.390   5.787 -0.0188 -1.4191  0.5820
 6910TIP3    H220695   1.918   2.373   5.745  0.5827  3.2851  0.2084
 6911TIP3   OH220696   3.040   2.031   1.271  0.4111 -0.1473  0.1684
 6911TIP3    H120697   3.097   1.973   1.220 -0.6321 -1.4008  0.3749
 6911TIP3    H220698   3.047   1.999   1.361 -1.5151 -1.1530  0.0229
 6912TIP3   OH220699   2.904   1.803   2.954 -0.4727 -0.6685  0.4095
 6912TIP3    H120700   2.998   1.787   2.963 -0.6310 -1.9440 -0.0446
 6912TIP3    H220701   2.887   1.792   2.860 -1.1922 -1.1759  0.5905
 6913TIP3   OH220702   4.599   2.408   4.351 -0.0181  0.4937  0.4245
 6913TIP3    H120703   4.650   2.382   4.274  0.3080 -0.3629  0.9231
 6913TIP3    H220704   4.610   2.503   4.355  2.5854  0.2413  1.2202
 6914TIP3   OH220705   0.396   3.837   4.570  0.5609 -0.6177 -0.5575
 6914TIP3    H120706   0.407   3.762   4.628  0.7190  0.6414  1.1168
 6914TIP3    H220707   0.442   3.909   4.614  2.0552  0.0541 -3.0236
 6915TIP3   OH220708   5.379   4.594   0.519 -0.2992  0.3180 -0.7644
 6915TIP3    H120709   5.317   4.534   0.478 -0.6795 -1.3625  2.0626
 6915TIP3    H220710   5.465   4.556   0.501 -0.2755  0.7677 -1.7178
 6916TIP3   OH220711   5.718   1.084   5.708 -0.3576 -0.1489  0.3240
 6916TIP3    H120712   5.633   1.097   5.751 -0.0000 -3.9986  2.6596
 6916TIP3    H220713   5.700   1.026   5.635  0.1725 -0.5921  0.5356
 6917TIP3   OH220714   1.987   2.941   1.367  0.5101 -0.0180 -0.1028
 6917TIP3    H120715   1.984   2.866   1.427  1.4721 -0.1298 -0.1854
 6917TIP3    H220716   2.038   2.910   1.293  1.6981  0.9946  0.2682
 6918TIP3   OH220717   1.390   6.665   1.824  0.3744  0.1543 -0.4596
 6918TIP3    H120718   1.327   6.717   1.773  2.1228 -0.0985 -3.1044
 6918TIP3    H220719   1.344   6.644   1.905 -1.4410  3.4223 -0.4521
 6919TIP3   OH220720   6.974   5.141   1.609  0.4580 -0.1190 -0.1349
 6919TIP3    H120721   6.985   5.048   1.591  2.6174 -0.0578  0.6395
 6919TIP3    H220722   6.968   5.182   1.523  1.9736 -0.7506 -0.5746
 6920TIP3   OH220723   2.296   3.958   1.903 -0.0821 -0.0167 -0.0182
 6920TIP3    H120724   2.205   3.944   1.879 -0.7597  2.0507  1.0559
 6920TIP3    H220725   2.341   3.877   1.878 -2.1679 -1.0281 -0.6972
 6921TIP3   OH220726   6.529   4.407   4.157 -0.9240 -0.0219 -0.3124
 6921TIP3    H120727   6.595   4.352   4.200 -1.4324 -0.2942  0.1383
 6921TIP3    H220728   6.544   4.394   4.064  0.1419  0.5075 -0.2299
 6922TIP3   OH220729   6.076   0.253   3.189 -0.2922  0.6912  0.1174
 6922TIP3    H120730   6.013   0.185   3.169  0.0865 -0.0531  1.3286
 6922TIP3    H220731   6.087   0.301   3.107 -2.6168  1.0309 -0.0580
 6923TIP3   OH220732   6.943   0.113   1.824  0.3367  0.4314 -0.2693
 6923TIP3    H120733   6.897   0.049   1.770 -0.1583  0.6030 -0.0566
 6923TIP3    H220734   7.012   0.063   1.867  0.6639  0.2696 -0.9677
 6924TIP3   OH220735   0.942   4.861   3.414  0.3917 -0.4258 -0.2543
 6924TIP3    H120736   1.022   4.913   3.417  0.0864  0.0335 -0.0154
 6924TIP3    H220737   0.882   4.905   3.474  0.2251 -1.2172  0.1855
 6925TIP3   OH220738   2.166   3.095   1.241 -0.0955 -0.6507 -0.5485
 6925TIP3    H120739   2.091   3.096   1.300  1.4785 -0.0690  1.5946
 6925TIP3    H220740   2.237   3.058   1.293  1.4623  0.1524 -1.9867
 6926TIP3   OH220741   0.991   3.024   2.614 -0.5787  0.5327 -0.3011
 6926TIP3    H120742   0.967   2.958   2.679 -0.6937  1.0209  0.1552
 6926TIP3    H220743   1.087   3.022   2.612 -0.5709  0.6183 -0.0152
 6927TIP3   OH220744   3.631   6.055   1.466  0.4570 -0.2297  0.7535
 6927TIP3    H120745   3.577   6.075   1.542  2.2929 -0.3643  2.1662
 6927TIP3    H220746   3.609   5.965   1.443 -0.2547 -0.1200  0.9891
 6928TIP3   OH220747   3.442   6.335   3.500 -0.0361 -0.0355  0.1931
 6928TIP3    H120748   3.378   6.406   3.499 -1.9312 -1.5440  2.6435
 6928TIP3    H220749   3.480   6.338   3.588  1.2948 -0.8793 -0.3190
 6929TIP3   OH220750   7.022   2.519   2.603  0.5048  0.0253  0.2978
 6929TIP3    H120751   7.007   2.455   2.673  1.0085  0.8387  1.1699
 6929TIP3    H220752   6.934   2.543   2.574  0.1789  1.2601  2.1458
 6930TIP3   OH220753   0.671   4.700   0.079 -0.4944  0.1073 -0.1381
 6930TIP3    H120754   0.659   4.621   0.026  1.5860  0.7869 -1.7717
 6930TIP3    H220755   0.729   4.755   0.027 -0.7492  2.1337  1.5848
 6931TIP3   OH220756   1.266   3.520   0.201 -0.1652  0.2436  0.2104
 6931TIP3    H120757   1.294   3.600   0.157 -1.2368  1.1265  1.0745
 6931TIP3    H220758   1.176   3.537   0.229  0.4506 -0.2303  2.7422
 6932TIP3   OH220759   4.373   4.097   2.209 -0.0804  0.3232  0.4987
 6932TIP3    H120760   4.460   4.061   2.192 -0.3199 -0.3283  0.6134
 6932TIP3    H220761   4.349   4.061   2.294 -1.1759 -0.9108 -0.2981
 6933TIP3   OH220762   4.349   5.477   5.764  0.2446  0.7129 -0.4399
 6933TIP3    H120763   4.335   5.498   5.672 -0.8699 -0.9249 -0.6851
 6933TIP3    H220764   4.302   5.546   5.812 -1.2425  0.2522 -1.1654
 6934TIP3   OH220765   0.399   3.729   0.564  0.2642  0.1865  0.0407
 6934TIP3    H120766   0.356   3.814   0.576  0.7003  0.1618  2.3227
 6934TIP3    H220767   0.489   3.750   0.542  0.0235  0.2836 -0.8752
 6935TIP3   OH220768   3.231   5.219   1.403  0.7809  0.3433 -0.1818
 6935TIP3    H120769   3.279   5.173   1.334  1.9304 -0.8178  1.3604
 6935TIP3    H220770   3.174   5.153   1.441  0.7916  0.7638  0.5682
 6936TIP3   OH220771   1.081   1.503   2.641  0.2112 -0.3237  0.4436
 6936TIP3    H120772   1.044   1.586   2.612  1.1510 -0.1716 -0.3567
 6936TIP3    H220773   1.156   1.488   2.583 -0.0172 -1.7896  0.4910
 6937TIP3   OH220774   3.704   1.860   5.861 -0.0997  0.8859 -0.7430
 6937TIP3    H120775   3.692   1.949   5.895  1.4355  0.5712  0.7988
 6937TIP3    H220776   3.786   1.864   5.811  0.5188  0.1605  0.1709
 6938TIP3   OH220777   3.295   2.920   5.559  0.1991  0.2782  0.2362
 6938TIP3    H120778   3.321   2.828   5.565 -0.3738  0.1325  0.6144
 6938TIP3    H220779   3.376   2.967   5.539  0.5701 -0.2635  0.4403
 6939TIP3   OH220780   6.504   5.513   4.689 -0.5546 -0.2829 -0.0091
 6939TIP3    H120781   6.589   5.518   4.732 -0.2145  0.9455 -0.7932
 6939TIP3    H220782   6.471   5.426   4.713  0.7325 -0.6256  0.6311
 6940TIP3   OH220783   4.139   1.271   4.360 -0.1051 -0.2883 -0.0313
 6940TIP3    H120784   4.167   1.346   4.306  0.9251  0.4502  1.4742
 6940TIP3    H220785   4.158   1.194   4.306  0.5310  0.4466 -0.8816
 6941TIP3   OH220786   2.348   0.156   0.780  0.8063  0.3262  0.5238
 6941TIP3    H120787   2.345   0.187   0.690 -0.2320  1.3426  0.8866
 6941TIP3    H220788   2.281   0.087   0.784  1.8045 -0.6954  0.1953
 6942TIP3   OH220789   4.490   0.992   1.985 -0.4387  0.2385  0.0549
 6942TIP3    H120790   4.443   1.069   2.016 -1.3833 -1.1139  2.2152
 6942TIP3    H220791   4.526   0.951   2.064 -1.5496 -2.5354 -0.7376
 6943TIP3   OH220792   1.696   3.698   4.917  0.0929  0.0791 -0.2860
 6943TIP3    H120793   1.633   3.701   4.989 -0.6118  0.6802 -0.9060
 6943TIP3    H220794   1.701   3.605   4.894  0.1096 -0.0857  0.3459
 6944TIP3   OH220795   5.170   5.618   0.624 -0.3441 -0.7742 -0.1400
 6944TIP3    H120796   5.137   5.697   0.580  1.1646 -0.4638 -0.7778
 6944TIP3    H220797   5.211   5.567   0.553  0.8260 -0.9711  0.6555
 6945TIP3   OH220798   1.387   5.720   5.220  0.0574  0.3545 -0.4889
 6945TIP3    H120799   1.310   5.670   5.193  0.4710 -0.8541  0.4965
 6945TIP3    H220800   1.432   5.664   5.283  1.2667  1.4176 -0.3555
 6946TIP3   OH220801   3.504   3.223   3.774 -0.3412  0.4913  0.2134
 6946TIP3    H120802   3.413   3.253   3.775  0.1604  2.0629  0.4007
 6946TIP3    H220803   3.523   3.199   3.864 -0.7304 -0.4417  0.0679
 6947TIP3   OH220804   2.585   4.613   0.291 -0.0103 -0.0723 -0.1463
 6947TIP3    H120805   2.639   4.552   0.241  0.4584  1.1883 -1.2318
 6947TIP3    H220806   2.498   4.607   0.251  0.4114  1.0822 -1.3150
 6948TIP3   OH220807   6.134   6.634   0.758 -0.9147  0.1817  0.1374
 6948TIP3    H120808   6.046   6.599   0.745 -1.1097  0.4675  0.6630
 6948TIP3    H220809   6.158   6.670   0.673 -0.9259 -0.7341 -0.2632
 6949TIP3   OH220810   0.602   4.169   1.410 -0.3113  0.0432  0.3389
 6949TIP3    H120811   0.632   4.260   1.412 -2.1097  0.7015 -0.6663
 6949TIP3    H220812   0.521   4.169   1.460 -1.1809 -0.6406 -0.9970
 6950TIP3   OH220813   6.438   2.801   1.754 -0.2022  0.0991 -0.0387
 6950TIP3    H120814   6.521   2.830   1.792  0.5398  0.0688 -1.5900
 6950TIP3    H220815   6.404   2.738   1.818  1.8310 -1.2153 -0.1536
 6951TIP3   OH220816   2.576   2.330   2.548  0.4217  0.0763  0.0094
 6951TIP3    H120817   2.610   2.325   2.637  0.2062  1.2022  0.1719
 6951TIP3    H220818   2.617   2.258   2.502  2.6671  1.0864  0.3088
 6952TIP3   OH220819   6.242   4.097   4.062  0.4611  0.3107 -0.1435
 6952TIP3    H120820   6.252   4.189   4.086 -0.0108  0.6854 -1.2944
 6952TIP3    H220821   6.186   4.099   3.984  0.8305 -0.9184 -0.4616
 6953TIP3   OH220822   1.816   6.368   2.242 -0.1067 -0.8180  0.2495
 6953TIP3    H120823   1.818   6.331   2.154  2.0446  0.7568 -0.4399
 6953TIP3    H220824   1.738   6.423   2.243  0.3666 -0.0823 -1.0457
 6954TIP3   OH220825   6.995   0.035   5.393  0.2354  0.3900  0.2118
 6954TIP3    H120826   6.927  -0.030   5.377 -0.3339  0.9844  0.1460
 6954TIP3    H220827   7.018   0.068   5.306 -1.9032  2.6603  0.3653
 6955TIP3   OH220828   4.881   4.800   5.501  0.1395  0.3678  0.0302
 6955TIP3    H120829   4.835   4.819   5.419 -0.0836 -1.7113 -0.3945
 6955TIP3    H220830   4.949   4.738   5.476  1.1973  1.0210  1.1716
 6956TIP3   OH220831   1.720   0.042   3.752 -0.0686 -0.3411 -0.6513
 6956TIP3    H120832   1.723   0.081   3.664 -0.3369 -1.6124 -1.2529
 6956TIP3    H220833   1.803   0.067   3.792  0.7674 -1.0263 -1.8596
 6957TIP3   OH220834   4.463   5.637   4.770 -0.6085 -0.0281  0.5189
 6957TIP3    H120835   4.480   5.706   4.834  0.9158 -0.2129  0.3471
 6957TIP3    H220836   4.426   5.684   4.694  0.2809  0.6077  0.4556
 6958TIP3   OH220837   0.857   0.593   4.008  0.2060  0.3130 -0.0228
 6958TIP3    H120838   0.950   0.574   3.996  0.0758 -0.6962  0.4614
 6958TIP3    H220839   0.842   0.584   4.102 -0.5523 -0.3803 -0.2017
 6959TIP3   OH220840   4.708   5.661   5.649  0.2503  0.4766  0.0737
 6959TIP3    H120841   4.795   5.681   5.617  0.1679 -1.2034 -1.3780
 6959TIP3    H220842   4.721   5.637   5.740  1.4379 -0.4693 -0.3220
 6960TIP3   OH220843   3.392   6.180   3.875 -0.1188  0.5284 -0.5129
 6960TIP3    H120844   3.442   6.118   3.928  2.0251  0.1606 -2.8076
 6960TIP3    H220845   3.319   6.128   3.840  0.8033 -0.3272 -1.2004
 6961TIP3   OH220846   0.509   4.967   3.670  0.7778  0.9350  0.0805
 6961TIP3    H120847   0.438   4.980   3.733  0.5677  1.0811 -0.1871
 6961TIP3    H220848   0.541   5.055   3.651  1.5022  0.8276  0.7373
 6962TIP3   OH220849   1.681   5.339   3.012  0.7043  0.1908  0.1710
 6962TIP3    H120850   1.654   5.268   3.069 -0.2197  1.0813  0.8931
 6962TIP3    H220851   1.617   5.338   2.941  0.6699  0.3036  0.1993
 6963TIP3   OH220852   7.177   3.795   2.949  0.0824  0.0871 -0.0980
 6963TIP3    H120853   7.155   3.705   2.973  0.7554 -0.3743 -1.1427
 6963TIP3    H220854   7.186   3.841   3.033 -0.2419 -0.8205  0.4437
 6964TIP3   OH220855   6.368   1.773   1.591 -0.1971  0.3797 -0.1723
 6964TIP3    H120856   6.288   1.826   1.599 -0.0937  0.4327  0.5507
 6964TIP3    H220857   6.336   1.683   1.580 -0.3593  0.3039  0.8484
 6965TIP3   OH220858   1.112   4.467   0.602  0.1575 -0.4390 -0.7415
 6965TIP3    H120859   1.157   4.389   0.636  2.0217  1.1694  0.7277
 6965TIP3    H220860   1.145   4.476   0.512  0.8659 -0.6686 -0.5104
 6966TIP3   OH220861   4.350   5.744   1.808  0.4089 -0.0664  0.6406
 6966TIP3    H120862   4.303   5.684   1.751  0.1338  1.0783 -0.3882
 6966TIP3    H220863   4.379   5.814   1.750  0.8376  0.7243  1.7733
 6967TIP3   OH220864   6.571   0.295   1.098  0.3117 -0.0158 -0.1705
 6967TIP3    H120865   6.523   0.296   1.180  0.4684  0.5370 -0.0781
 6967TIP3    H220866   6.535   0.369   1.048  0.2317 -0.3324 -0.5893
 6968TIP3   OH220867   0.513   3.520   1.705 -0.0786 -0.2451  0.2244
 6968TIP3    H120868   0.606   3.520   1.729  0.3350  0.4417 -1.2536
 6968TIP3    H220869   0.480   3.437   1.739  1.0419 -0.4645  0.8514
 6969TIP3   OH220870   4.913   0.843   2.587  0.6205  0.2372 -0.1359
 6969TIP3    H120871   4.845   0.798   2.638  0.8609 -0.7812 -0.6747
 6969TIP3    H220872   4.975   0.773   2.563  0.7258  0.7527 -1.4626
 6970TIP3   OH220873   1.997   0.327   1.308  0.1131  0.0028 -0.0477
 6970TIP3    H120874   2.014   0.312   1.215  0.6082  1.8468 -0.2971
 6970TIP3    H220875   2.058   0.397   1.333 -0.9552  0.5002  1.3146
 6971TIP3   OH220876   3.513   5.481   5.837 -0.3115 -0.2176  0.7534
 6971TIP3    H120877   3.477   5.403   5.878 -2.8819  0.3028 -0.3125
 6971TIP3    H220878   3.541   5.536   5.910 -0.3964 -1.2552  1.5966
 6972TIP3   OH220879   5.122   5.654   5.117  0.0847 -0.8425 -0.2776
 6972TIP3    H120880   5.153   5.564   5.113  1.2825 -0.5418  1.0751
 6972TIP3    H220881   5.201   5.707   5.103 -0.5903 -0.0077 -0.9874
 6973TIP3   OH220882   0.288   1.630   4.890 -0.0705 -0.2070 -0.3198
 6973TIP3    H120883   0.252   1.600   4.973  1.4217 -3.0849 -0.5660
 6973TIP3    H220884   0.371   1.582   4.882 -0.0154  0.2216 -3.3063
 6974TIP3   OH220885   0.470   1.383   4.252 -0.1349 -0.1671 -0.0862
 6974TIP3    H120886   0.513   1.469   4.250 -0.2569 -0.1074 -0.1173
 6974TIP3    H220887   0.527   1.330   4.308 -0.2390  0.0293  0.2089
 6975TIP3   OH220888   0.760   6.602   4.158  0.6911 -0.0833  0.6995
 6975TIP3    H120889   0.733   6.627   4.246 -0.7398  1.3333 -0.1052
 6975TIP3    H220890   0.749   6.681   4.105  0.6778 -1.1180 -0.9371
 6976TIP3   OH220891   3.106   0.280   1.360  0.1320 -0.2657  0.6413
 6976TIP3    H120892   3.109   0.247   1.450 -1.6176  1.3532  1.3613
 6976TIP3    H220893   3.094   0.202   1.306 -1.5670 -1.0568  2.0570
 6977TIP3   OH220894   2.565   1.341   5.283  0.2608  0.7115 -0.5451
 6977TIP3    H120895   2.585   1.250   5.262  2.5311  1.1726 -0.6993
 6977TIP3    H220896   2.546   1.341   5.377 -0.3276  0.0134 -0.6592
 6978TIP3   OH220897   0.180   5.860   3.574 -0.0018  0.1701  0.1751
 6978TIP3    H120898   0.182   5.872   3.669 -2.3507  2.2658  0.0650
 6978TIP3    H220899   0.095   5.819   3.557 -0.4934  1.6629 -1.1472
 6979TIP3   OH220900   5.411   4.009   1.887  0.7458 -0.1918  0.1410
 6979TIP3    H120901   5.383   4.099   1.904  0.3132 -0.0548 -1.2133
 6979TIP3    H220902   5.339   3.955   1.919  0.5855 -0.0069  0.0956
 6980TIP3   OH220903   1.137   6.258   0.890  0.0207  0.2370  0.5780
 6980TIP3    H120904   1.130   6.331   0.951  1.3819 -0.0486  1.0983
 6980TIP3    H220905   1.192   6.194   0.935  0.1367 -0.4493 -0.5077
 6981TIP3   OH220906   1.057   6.242   5.594  0.2104  0.3812  0.3556
 6981TIP3    H120907   1.122   6.243   5.523 -0.8006 -0.5665 -0.6380
 6981TIP3    H220908   1.047   6.334   5.619  1.2825  0.6325 -0.0638
 6982TIP3   OH220909   0.006   2.211   5.529 -0.3184  0.4674  0.2317
 6982TIP3    H120910   0.074   2.265   5.569  0.8616 -0.5958 -0.2649
 6982TIP3    H220911  -0.030   2.265   5.459  1.5188  0.3022 -0.8999
 6983TIP3   OH220912   0.041   5.546   2.826  0.0499  0.1263 -0.4535
 6983TIP3    H120913   0.040   5.535   2.731 -0.1309 -1.7008 -0.2782
 6983TIP3    H220914  -0.045   5.514   2.855  0.8026 -1.1791  0.4603
 6984TIP3   OH220915   3.450   2.571   1.803 -0.3910  0.0035  0.6297
 6984TIP3    H120916   3.497   2.536   1.879  1.9763  0.8028 -0.3955
 6984TIP3    H220917   3.447   2.665   1.817 -0.0990  0.1390 -0.1550
 6985TIP3   OH220918   2.584   2.435   4.345  0.0534  0.3129 -0.4416
 6985TIP3    H120919   2.640   2.418   4.269 -1.0116 -0.0016 -1.1877
 6985TIP3    H220920   2.596   2.359   4.402  2.6632  1.5987  0.9086
 6986TIP3   OH220921   0.468   3.424   0.847  0.4486 -0.1012 -0.4208
 6986TIP3    H120922   0.492   3.364   0.918 -0.5490  0.9594  0.8675
 6986TIP3    H220923   0.530   3.496   0.855  0.1844  0.1323 -0.4669
 6987TIP3   OH220924   2.438   2.603   5.329  0.3065 -0.5310  0.9700
 6987TIP3    H120925   2.456   2.697   5.327 -3.1437  0.2741 -0.4200
 6987TIP3    H220926   2.433   2.577   5.237  2.8496 -2.5698  1.2909
 6988TIP3   OH220927   3.907   0.186   5.744 -0.7318 -0.7428 -0.4436
 6988TIP3    H120928   3.818   0.195   5.776 -0.9555 -1.5604 -0.8082
 6988TIP3    H220929   3.912   0.248   5.670 -0.9467 -0.5840 -0.3265
 6989TIP3   OH220930   4.890   4.160   3.137  0.8035 -0.6389 -0.4510
 6989TIP3    H120931   4.947   4.226   3.095  0.5361 -0.4862 -0.5730
 6989TIP3    H220932   4.934   4.077   3.120  0.6902 -0.5812 -1.0475
 6990TIP3   OH220933   2.834   5.413   4.351  0.0168  0.5463  0.1030
 6990TIP3    H120934   2.810   5.494   4.395 -1.4197 -0.1890  0.7339
 6990TIP3    H220935   2.875   5.360   4.419 -0.5686  0.1091  0.1231
 6991TIP3   OH220936   2.313   5.127   0.788 -0.4554 -0.0031 -0.2935
 6991TIP3    H120937   2.305   5.131   0.693  1.1859  0.5030 -0.4485
 6991TIP3    H220938   2.309   5.033   0.809 -1.5205 -0.0721 -0.7719
 6992TIP3   OH220939   3.899   2.121   0.009 -0.5504  0.1944 -0.2413
 6992TIP3    H120940   3.906   2.047  -0.052 -2.3029  1.2430 -1.8162
 6992TIP3    H220941   3.985   2.125   0.051 -0.1455 -2.2168 -0.6752
 6993TIP3   OH220942   6.238   1.334   5.342 -0.2111  0.7408  0.1878
 6993TIP3    H120943   6.145   1.328   5.319 -0.0483 -3.0138 -0.0228
 6993TIP3    H220944   6.282   1.346   5.258 -0.3703  0.1572  0.0185
 6994TIP3   OH220945   2.407   5.764   2.780  0.0628 -0.2511  0.2108
 6994TIP3    H120946   2.423   5.673   2.803  1.0882  0.2740  1.7097
 6994TIP3    H220947   2.466   5.782   2.707 -0.5628 -0.9183 -0.4799
 6995TIP3   OH220948   6.465   1.668   4.115  0.1302 -0.3973  0.2127
 6995TIP3    H120949   6.551   1.674   4.073  0.1792 -1.7719  0.0551
 6995TIP3    H220950   6.470   1.587   4.167 -0.9378 -0.2949  0.4904
 6996TIP3   OH220951   6.993   3.202   3.370  0.3748  0.3606 -0.1161
 6996TIP3    H120952   7.074   3.250   3.387  0.3820  0.3020  0.0091
 6996TIP3    H220953   7.022   3.123   3.324  0.2644  1.0310 -1.3965
 6997TIP3   OH220954   5.960   0.751   0.566  0.2885  0.0402  0.4755
 6997TIP3    H120955   5.936   0.752   0.474 -0.3886  0.4055  0.6447
 6997TIP3    H220956   6.052   0.727   0.567  0.3659  0.2704 -0.3105
 6998TIP3   OH220957   5.819   2.051   5.447  0.3310 -0.1433 -0.0834
 6998TIP3    H120958   5.731   2.050   5.410 -0.1534 -1.7965  1.0277
 6998TIP3    H220959   5.815   2.117   5.517  0.1800  0.2576 -0.4635
 6999TIP3   OH220960   2.731   0.174   4.996  0.0775  0.1702 -0.1881
 6999TIP3    H120961   2.683   0.106   4.948 -0.3995  1.1663 -1.1823
 6999TIP3    H220962   2.820   0.169   4.961  1.0264 -2.2580  2.2751
 7000TIP3   OH220963   5.193   2.986   5.643 -0.1491 -0.4142 -0.9269
 7000TIP3    H120964   5.173   3.058   5.703  3.3573  0.3006 -0.3765
 7000TIP3    H220965   5.248   3.026   5.575  0.7981 -2.2946 -1.3297
 7001TIP3   OH220966   4.560   3.438   5.801  0.0554  0.7021  0.4674
 7001TIP3    H120967   4.515   3.406   5.880  2.3803  1.4085  2.2067
 7001TIP3    H220968   4.528   3.527   5.789 -1.4305  0.0959 -0.3594
 7002TIP3   OH220969   3.230   4.447   4.260  0.7462  0.5624  0.1843
 7002TIP3    H120970   3.138   4.435   4.237  0.8344  2.0879 -1.1510
 7002TIP3    H220971   3.272   4.363   4.240 -0.3866 -0.2702  1.1675
 7003TIP3   OH220972   0.106   6.590   0.107 -0.3127 -0.2829  0.2403
 7003TIP3    H120973   0.127   6.665   0.050  0.4773 -0.5626  0.1611
 7003TIP3    H220974   0.010   6.591   0.111 -0.3061  1.0501  0.6588
 7004TIP3   OH220975   6.650   3.743   5.487  0.0687 -0.3188 -0.6649
 7004TIP3    H120976   6.571   3.794   5.503  0.7948 -0.1474  3.4099
 7004TIP3    H220977   6.625   3.653   5.507  1.1442 -0.0673  2.1715
 7005TIP3   OH220978   5.488   1.991   4.686 -0.1919 -0.1183  0.5209
 7005TIP3    H120979   5.471   2.069   4.634  1.3536  1.0019  1.5954
 7005TIP3    H220980   5.438   2.004   4.766  0.6724  0.1755  1.0300
 7006TIP3   OH220981   5.668   6.762   4.434  0.3996  0.0822 -0.2600
 7006TIP3    H120982   5.585   6.732   4.472  0.5506 -0.8494 -0.6563
 7006TIP3    H220983   5.656   6.857   4.423 -1.3455 -0.2707 -2.0467
 7007TIP3   OH220984   1.186   0.416   0.724 -0.2490 -0.0822  0.1412
 7007TIP3    H120985   1.246   0.483   0.760 -0.1351 -0.7670  1.2783
 7007TIP3    H220986   1.236   0.335   0.730 -1.3645 -0.7173  1.3856
 7008TIP3   OH220987   0.315   3.496   2.906 -0.5337 -0.2233  0.4426
 7008TIP3    H120988   0.409   3.482   2.919  0.5459  2.0621 -3.3155
 7008TIP3    H220989   0.285   3.538   2.986  1.2797 -2.1644  2.2626
 7009TIP3   OH220990   2.677   3.984   0.783  0.3884  0.1851  0.5395
 7009TIP3    H120991   2.680   3.933   0.864  2.0906 -1.0566 -0.2259
 7009TIP3    H220992   2.584   4.000   0.768 -0.0192 -0.4267  2.2047
 7010TIP3   OH220993   2.529   3.653   3.598 -0.2377 -0.3209 -0.1388
 7010TIP3    H120994   2.560   3.682   3.512  2.1885  1.5749  1.2590
 7010TIP3    H220995   2.593   3.586   3.625 -1.6162 -1.7306 -0.2046
 7011TIP3   OH220996   1.326   1.607   4.258  0.8509  0.2309  0.1656
 7011TIP3    H120997   1.278   1.612   4.176  1.9182 -2.5827 -0.7654
 7011TIP3    H220998   1.260   1.587   4.324  0.3858 -1.3332 -0.7162
 7012TIP3   OH220999   3.750   4.186   4.563  0.3411 -0.1015 -0.1658
 7012TIP3    H121000   3.772   4.246   4.492 -0.5099  1.2974  0.6931
 7012TIP3    H221001   3.820   4.200   4.627  1.0656 -1.3019 -0.6671
 7013TIP3   OH221002   2.551   0.370   1.510  0.1438  0.4021 -0.5172
 7013TIP3    H121003   2.564   0.458   1.476  1.9782  0.6839  0.7568
 7013TIP3    H221004   2.480   0.334   1.457 -0.2775  2.4307 -1.4260
 7014TIP3   OH221005   6.181   3.028   1.863 -0.1620  0.2357  0.1630
 7014TIP3    H121006   6.276   3.030   1.853 -0.2138 -0.8545 -0.6484
 7014TIP3    H221007   6.161   2.937   1.882 -1.3175 -0.2497 -2.8625
 7015TIP3   OH221008   6.753   2.593   3.833  0.1715 -0.8710  0.2903
 7015TIP3    H121009   6.793   2.506   3.831  0.9690 -0.5188  0.5289
 7015TIP3    H221010   6.827   2.654   3.838 -0.3841 -0.1903  0.4513
 7016TIP3   OH221011   2.782   5.675   1.399 -0.5682  0.3155  0.3367
 7016TIP3    H121012   2.856   5.680   1.460 -0.7470  0.8136  0.5198
 7016TIP3    H221013   2.808   5.608   1.336  0.0559  0.5066  0.3809
 7017TIP3   OH221014   5.291   4.872   5.520 -0.1154 -0.0089 -0.0744
 7017TIP3    H121015   5.291   4.940   5.588  2.6677  1.6674 -1.5379
 7017TIP3    H221016   5.206   4.881   5.477 -1.4521 -0.3012  2.3353
 7018TIP3   OH221017   1.104   1.696   0.952 -0.2604  0.1800 -0.3021
 7018TIP3    H121018   1.021   1.694   1.000 -0.1138  0.8504 -0.0073
 7018TIP3    H221019   1.123   1.789   0.941  0.1212  0.0285 -0.9557
 7019TIP3   OH221020   6.811   1.970   2.153 -0.4851 -0.4588  0.1130
 7019TIP3    H121021   6.905   1.989   2.161 -0.0677 -2.0327 -0.5969
 7019TIP3    H221022   6.776   2.043   2.104  0.8938 -1.0633 -1.9122
 7020TIP3   OH221023   4.890   1.583   5.480  0.2325 -0.1803  0.4556
 7020TIP3    H121024   4.931   1.585   5.394 -0.6205 -3.2959 -0.1527
 7020TIP3    H221025   4.960   1.557   5.540  0.1544 -1.1309  0.1482
 7021TIP3   OH221026   3.201   1.411   1.992  0.6144  0.4842 -0.0085
 7021TIP3    H121027   3.130   1.474   1.976  1.2673  1.7440  1.7810
 7021TIP3    H221028   3.165   1.327   1.962 -1.6547  1.0717  0.8747
 7022TIP3   OH221029   6.168   5.462   4.700  0.2267 -0.2868 -0.2212
 7022TIP3    H121030   6.202   5.489   4.785 -0.5354 -2.2157  0.7569
 7022TIP3    H221031   6.213   5.519   4.637  0.7679  1.2174  1.4456
 7023TIP3   OH221032   3.356   0.647   5.371 -0.7710  0.0634  0.1643
 7023TIP3    H121033   3.298   0.706   5.419  1.2771  0.8501  1.7920
 7023TIP3    H221034   3.400   0.703   5.307  0.2552  0.0844  0.8661
 7024TIP3   OH221035   5.456   4.534   4.779  0.5593  0.0860 -0.6307
 7024TIP3    H121036   5.508   4.576   4.711 -0.3471  1.3549 -0.5704
 7024TIP3    H221037   5.386   4.596   4.799  0.8578 -0.1824  1.5385
 7025TIP3   OH221038   1.276   5.220   5.225  0.1028 -0.2056 -0.5180
 7025TIP3    H121039   1.236   5.177   5.150 -0.9678 -0.3329  0.1139
 7025TIP3    H221040   1.360   5.253   5.192 -0.4816 -0.0087 -1.8357
 7026TIP3   OH221041   0.229   3.424   4.964 -0.3437  0.3295 -0.6047
 7026TIP3    H121042   0.217   3.425   4.869 -0.5054 -0.1363 -0.5921
 7026TIP3    H221043   0.178   3.349   4.994 -1.6574  1.4390  0.0491
 7027TIP3   OH221044   4.895   2.729   4.858  0.1028 -0.0423  0.7724
 7027TIP3    H121045   4.836   2.665   4.896  0.4133 -0.2880  0.8464
 7027TIP3    H221046   4.838   2.800   4.828 -0.0973  0.4423  2.2311
 7028TIP3   OH221047   4.844   6.376   4.653  0.1302  0.3101 -0.5039
 7028TIP3    H121048   4.778   6.362   4.585  1.3357  1.9754 -2.0704
 7028TIP3    H221049   4.920   6.326   4.624 -0.0432 -0.7533  0.7713
 7029TIP3   OH221050   5.445   3.774   3.840 -0.0386  0.1807  0.2265
 7029TIP3    H121051   5.519   3.825   3.806  2.2631 -3.5152 -0.9350
 7029TIP3    H221052   5.476   3.739   3.923  0.0757 -2.2938 -0.7781
 7030TIP3   OH221053   3.178   4.999   2.401  0.2171  0.6688  0.3548
 7030TIP3    H121054   3.096   5.048   2.399  0.0811  0.5411  2.0264
 7030TIP3    H221055   3.224   5.031   2.478  1.3538  0.0998 -0.0611
 7031TIP3   OH221056   0.174   5.504   4.076 -0.1091  0.1840  0.1710
 7031TIP3    H121057   0.216   5.532   3.995  0.4159  1.3673  0.8173
 7031TIP3    H221058   0.203   5.568   4.141 -1.8672  0.2629  0.9339
 7032TIP3   OH221059   3.322   5.378   0.220 -0.0462 -1.1582 -0.1355
 7032TIP3    H121060   3.415   5.361   0.206  0.2120 -2.0464  2.2194
 7032TIP3    H221061   3.278   5.300   0.184  0.2948 -1.6937  0.5851
 7033TIP3   OH221062   1.686   1.401   5.210 -0.0525 -0.1480  0.4467
 7033TIP3    H121063   1.671   1.493   5.188  1.8347  0.0192 -0.2911
 7033TIP3    H221064   1.676   1.354   5.128  0.7850 -0.3484  0.4465
 7034TIP3   OH221065   5.273   5.194   2.044 -0.4604 -0.3153  0.1666
 7034TIP3    H121066   5.180   5.208   2.026 -0.2105 -0.6758 -1.5869
 7034TIP3    H221067   5.287   5.101   2.024  0.4207 -0.0936 -0.2724
 7035TIP3   OH221068   3.957   5.178   1.460 -0.1381 -0.0753 -0.1048
 7035TIP3    H121069   3.987   5.245   1.521  0.1594  1.2613 -1.6522
 7035TIP3    H221070   3.872   5.210   1.429 -0.8295 -1.3164  0.4465
 7036TIP3   OH221071   1.537   6.329   2.951 -0.7356  0.4893 -0.5868
 7036TIP3    H121072   1.478   6.385   3.001  0.5182  1.2216  0.1309
 7036TIP3    H221073   1.622   6.339   2.994 -0.0458 -0.4226 -1.6709
 7037TIP3   OH221074   6.617   2.807   5.117  0.0549 -0.3018 -0.1756
 7037TIP3    H121075   6.631   2.888   5.165  0.1214 -0.2649 -0.2575
 7037TIP3    H221076   6.546   2.763   5.164  0.8741 -0.7921  0.6342
 7038TIP3   OH221077   4.771   0.068   4.652  0.0436  0.8863  0.6384
 7038TIP3    H121078   4.735   0.146   4.695  0.5632  0.5789  1.6570
 7038TIP3    H221079   4.844   0.102   4.599 -0.2571  1.1958  0.4166
 7039TIP3   OH221080   1.342   6.580   2.747  0.3557 -0.3763  0.4192
 7039TIP3    H121081   1.367   6.628   2.826  2.0616 -0.6295  0.0788
 7039TIP3    H221082   1.393   6.622   2.677 -0.6197 -0.5911 -0.4403
 7040TIP3   OH221083   3.949   1.085   1.054 -0.0674  0.2498 -0.0107
 7040TIP3    H121084   4.028   1.128   1.088  0.5355 -0.7825 -0.0722
 7040TIP3    H221085   3.981   1.026   0.986 -0.6859 -1.4345  1.1062
 7041TIP3   OH221086   4.207   3.108   2.211 -0.6008  0.4768  0.0693
 7041TIP3    H121087   4.236   3.156   2.133  0.6154 -1.1250 -0.4989
 7041TIP3    H221088   4.112   3.123   2.213 -0.3961  2.1708 -0.5638
 7042TIP3   OH221089   5.465   3.393   1.102 -0.2515  0.0363 -0.7224
 7042TIP3    H121090   5.561   3.394   1.102 -0.1257 -2.4031  0.9742
 7042TIP3    H221091   5.440   3.469   1.154  0.9295 -0.6730  0.9963
 7043TIP3   OH221092   4.934   5.069   4.888  0.2530 -0.4372 -0.1540
 7043TIP3    H121093   4.934   5.141   4.825 -2.5499  0.2043  0.4317
 7043TIP3    H221094   4.966   5.108   4.969 -2.8447  0.7798  0.6302
 7044TIP3   OH221095   0.821   2.795   4.363 -0.3742  0.1314  0.2912
 7044TIP3    H121096   0.751   2.772   4.424 -1.9214  1.5555 -0.8371
 7044TIP3    H221097   0.857   2.877   4.398 -0.4092  0.2854 -0.0327
 7045TIP3   OH221098   3.527   5.938   3.667 -0.1008 -0.2873 -0.1946
 7045TIP3    H121099   3.499   5.933   3.758  1.4436 -0.4440  0.2938
 7045TIP3    H221100   3.454   5.981   3.622 -0.2440  1.2714  1.3952
 7046TIP3   OH221101   2.462   1.704   4.190  0.1098 -0.4128 -0.2021
 7046TIP3    H121102   2.500   1.707   4.278 -0.2363  1.5762 -0.0709
 7046TIP3    H221103   2.455   1.796   4.163 -0.0595 -0.9484 -2.2053
 7047TIP3   OH221104   4.259   3.224   1.960  0.4021  0.4108 -0.7074
 7047TIP3    H121105   4.345   3.246   1.923 -0.7244  4.0241 -1.5715
 7047TIP3    H221106   4.199   3.225   1.885 -0.8294  0.7579  0.2494
 7048TIP3   OH221107   6.674   0.976   2.765  0.0384  0.8236 -0.0277
 7048TIP3    H121108   6.590   1.006   2.799  1.0366  1.2210  2.3121
 7048TIP3    H221109   6.658   0.958   2.673 -2.5258  1.1403  0.2897
 7049TIP3   OH221110   4.968   3.894   2.755 -0.4708  0.3427  0.0468
 7049TIP3    H121111   4.876   3.903   2.730 -0.3769  0.2709 -0.3256
 7049TIP3    H221112   5.010   3.975   2.724 -0.4148  0.3913  0.2471
 7050TIP3   OH221113   3.596   6.727   1.668  0.1264  0.0101  0.0283
 7050TIP3    H121114   3.501   6.739   1.678  0.3056  1.9322 -0.2275
 7050TIP3    H221115   3.624   6.690   1.752 -0.9194 -1.1703 -0.1201
 7051TIP3   OH221116   4.202   3.033   0.508  0.3126  0.6671  0.1679
 7051TIP3    H121117   4.239   2.962   0.559  0.1230  0.4604  0.0208
 7051TIP3    H221118   4.244   3.112   0.542 -0.6958  0.6700  1.4771
 7052TIP3   OH221119   4.133   6.282   5.846 -0.2315 -0.6171  0.3017
 7052TIP3    H121120   4.120   6.206   5.788  0.2430  0.4127 -1.2346
 7052TIP3    H221121   4.193   6.338   5.797 -0.2826  0.5825  1.5717
 7053TIP3   OH221122   2.930   5.846   2.915 -0.0430  0.2555  0.2214
 7053TIP3    H121123   3.020   5.847   2.881 -0.3677  0.9325 -0.6653
 7053TIP3    H221124   2.877   5.819   2.840 -0.6352  0.3832  0.5904
 7054TIP3   OH221125   5.156   4.223   3.390 -0.1705 -0.4382  0.2169
 7054TIP3    H121126   5.064   4.206   3.409 -0.0108 -1.1306  0.3988
 7054TIP3    H221127   5.179   4.158   3.323 -0.3737  1.0921 -1.4150
 7055TIP3   OH221128   5.517   6.387   4.425 -0.1741 -0.2975  0.4572
 7055TIP3    H121129   5.548   6.410   4.513  0.8023  0.0725  0.0327
 7055TIP3    H221130   5.467   6.464   4.397  1.6809  0.6951 -0.2976
 7056TIP3   OH221131   2.909   1.618   3.714  0.4329 -0.0173 -0.5032
 7056TIP3    H121132   2.827   1.608   3.665  0.6980 -0.8323 -0.7944
 7056TIP3    H221133   2.975   1.634   3.646  0.5908  0.1902 -0.3026
 7057TIP3   OH221134   0.290   4.045   3.679 -0.2159 -0.0482 -0.2749
 7057TIP3    H121135   0.216   4.073   3.626 -2.2109 -1.1080  1.7845
 7057TIP3    H221136   0.322   3.966   3.635  1.1772  1.5703 -2.3651
 7058TIP3   OH221137   4.273   6.695   0.126 -0.5312  0.6391  0.1492
 7058TIP3    H121138   4.243   6.635   0.195  1.1984 -0.7797 -0.2714
 7058TIP3    H221139   4.201   6.694   0.062 -0.6936 -0.7613  0.3018
 7059TIP3   OH221140   0.187   2.454   4.478  0.5894 -0.4151 -0.3599
 7059TIP3    H121141   0.264   2.463   4.421 -0.2417  1.3661 -1.2819
 7059TIP3    H221142   0.130   2.394   4.431  1.0697 -1.1388 -0.0397
 7060TIP3   OH221143   7.152   1.851   5.147 -0.1396 -0.2947 -0.1869
 7060TIP3    H121144   7.237   1.812   5.169 -0.7844 -0.8795  1.4812
 7060TIP3    H221145   7.168   1.945   5.145  0.1971 -0.2448  2.1142
 7061TIP3   OH221146   2.378   0.734   3.927  0.2234 -0.1906 -0.1125
 7061TIP3    H121147   2.290   0.711   3.957  0.7270 -0.5819  1.1281
 7061TIP3    H221148   2.368   0.822   3.890 -0.4925  0.2617  1.0608
 7062TIP3   OH221149   1.135   0.894   0.214 -0.3479  0.0720 -0.1224
 7062TIP3    H121150   1.216   0.913   0.167 -1.7310  1.0947 -2.2606
 7062TIP3    H221151   1.145   0.938   0.298  1.2326  0.3316 -0.4105
 7063TIP3   OH221152   0.108   4.780   0.152 -0.1354 -0.5184 -0.2395
 7063TIP3    H121153   0.200   4.752   0.151 -0.1387 -0.5286 -1.7234
 7063TIP3    H221154   0.113   4.875   0.160  0.0025 -0.5168 -0.3423
 7064TIP3   OH221155   3.695   3.851   5.149  0.4820  0.0071 -0.3506
 7064TIP3    H121156   3.617   3.895   5.114  0.5367 -1.0878 -1.9535
 7064TIP3    H221157   3.768   3.903   5.115  0.4919 -0.2033 -0.6604
 7065TIP3   OH221158   2.714   1.484   0.254  0.2335 -0.3748  0.5834
 7065TIP3    H121159   2.653   1.530   0.197  0.3654 -1.8471 -0.8133
 7065TIP3    H221160   2.660   1.450   0.325 -0.7277 -2.0269 -0.8539
 7066TIP3   OH221161   0.596   6.131   4.464  0.4707 -0.2061  0.3751
 7066TIP3    H121162   0.655   6.159   4.534  1.0766  1.2163 -0.6451
 7066TIP3    H221163   0.538   6.207   4.451  0.3216 -0.4754 -0.5948
 7067TIP3   OH221164   6.837   5.799   0.042 -0.2969 -0.2370 -0.0375
 7067TIP3    H121165   6.784   5.727   0.075  1.2546 -0.5075  1.9853
 7067TIP3    H221166   6.859   5.773  -0.048 -2.8427 -0.4756 -0.6722
 7068TIP3   OH221167   1.026   1.989   2.794  0.1761 -0.0795  0.0631
 7068TIP3    H121168   0.949   2.044   2.780  0.5674  0.5985  0.4961
 7068TIP3    H221169   1.073   2.032   2.865  0.7216 -0.7380  0.1093
 7069TIP3   OH221170   5.739   3.398   4.070 -0.1473  0.8659  0.0600
 7069TIP3    H121171   5.794   3.324   4.096  0.2076  0.5690 -1.4236
 7069TIP3    H221172   5.793   3.475   4.089  0.9104  0.5723 -1.5350
 7070TIP3   OH221173   0.401   4.404   1.052  0.1679 -0.1159  0.3021
 7070TIP3    H121174   0.381   4.311   1.053  0.6213 -0.2148  0.2910
 7070TIP3    H221175   0.340   4.442   0.989  1.3019 -0.7103 -1.2071
 7071TIP3   OH221176   2.768   5.649   5.394 -0.2894  0.0798  0.2125
 7071TIP3    H121177   2.717   5.638   5.473 -0.5703  0.6386  0.1133
 7071TIP3    H221178   2.705   5.640   5.322  0.0633 -1.0092  0.0278
 7072TIP3   OH221179   0.676   4.710   1.887 -0.1005  0.2642 -0.0917
 7072TIP3    H121180   0.751   4.662   1.851 -0.2067 -0.7005  0.9102
 7072TIP3    H221181   0.611   4.709   1.818 -0.3165 -1.5816  0.1047
 7073TIP3   OH221182   5.646   3.735   4.375  0.0251  0.3234  0.2009
 7073TIP3    H121183   5.659   3.644   4.348 -0.5223  1.1822 -3.4847
 7073TIP3    H221184   5.585   3.771   4.310  1.1593  3.6383  0.7842
 7074TIP3   OH221185   5.653   1.255   3.645  0.1718  0.2015 -0.0019
 7074TIP3    H121186   5.622   1.280   3.558  1.4457  0.6783 -0.3354
 7074TIP3    H221187   5.699   1.172   3.631 -0.4158 -0.2012  0.3887
 7075TIP3   OH221188   4.108   1.401   2.671 -0.3993  0.2298 -0.5649
 7075TIP3    H121189   4.061   1.449   2.739 -0.5406 -1.7360  0.8260
 7075TIP3    H221190   4.200   1.423   2.685 -0.4701  0.1690  0.0104
 7076TIP3   OH221191   6.815   3.550   4.077  0.3986 -0.9167  0.5934
 7076TIP3    H121192   6.876   3.511   4.015  0.5606 -0.8587  0.7155
 7076TIP3    H221193   6.754   3.480   4.098 -0.5990 -0.5084 -0.8218
 7077TIP3   OH221194   1.966   2.779   1.904 -0.6245 -0.1860  0.1654
 7077TIP3    H121195   1.931   2.833   1.834 -0.7212  1.1220  1.1896
 7077TIP3    H221196   2.027   2.719   1.860 -1.6526 -0.2862 -1.1903
 7078TIP3   OH221197   0.724   6.118   2.981  0.1897 -0.0513 -0.1298
 7078TIP3    H121198   0.671   6.188   2.945 -0.3565  0.4649  1.5691
 7078TIP3    H221199   0.662   6.048   3.000  0.5687 -0.5771 -0.7833
 7079TIP3   OH221200   5.240   3.106   2.770 -0.3048 -0.5567 -0.0304
 7079TIP3    H121201   5.159   3.110   2.720 -0.8821  1.1030  0.9513
 7079TIP3    H221202   5.232   3.025   2.821 -0.7431 -1.0632 -0.8814
 7080TIP3   OH221203   2.570   0.841   0.454 -0.3860  0.5170 -0.1733
 7080TIP3    H121204   2.575   0.845   0.550 -1.0953  3.7496 -0.1574
 7080TIP3    H221205   2.656   0.868   0.424  0.4501 -2.2839 -0.5691
 7081TIP3   OH221206   2.414   4.878   1.874 -0.0042 -0.0006  0.0418
 7081TIP3    H121207   2.382   4.803   1.924 -0.2936  0.3268  0.3482
 7081TIP3    H221208   2.335   4.924   1.846  0.1783  1.6358  2.0311
 7082TIP3   OH221209   4.499   1.033   0.813  0.2362  0.4999  1.2220
 7082TIP3    H121210   4.493   0.940   0.836  1.6872  0.3332  1.0223
 7082TIP3    H221211   4.480   1.079   0.895 -1.6859  0.0846  1.0557
 7083TIP3   OH221212   2.934   4.438   4.247  0.1407 -0.6142 -0.4298
 7083TIP3    H121213   2.847   4.405   4.271  0.5255 -2.2941 -1.1880
 7083TIP3    H221214   2.958   4.497   4.319 -1.8341  0.3262 -0.4817
 7084TIP3   OH221215   1.770   2.529   0.594  0.0679  0.1543  0.4964
 7084TIP3    H121216   1.822   2.609   0.595 -1.1007  1.0057  3.0541
 7084TIP3    H221217   1.759   2.508   0.501  3.6593  0.6981 -0.1866
 7085TIP3   OH221218   5.380   3.979   2.311  0.0016  0.2782 -0.3874
 7085TIP3    H121219   5.424   4.047   2.259 -0.1269  0.6247 -0.0449
 7085TIP3    H221220   5.372   3.905   2.251 -0.6522  0.8706 -1.0559
 7086TIP3   OH221221   2.504   6.253   4.911  0.0369 -0.1566 -0.2159
 7086TIP3    H121222   2.490   6.180   4.851 -1.0370 -0.8398  0.8236
 7086TIP3    H221223   2.423   6.304   4.907 -0.5314 -0.8506  1.4649
 7087TIP3   OH221224   1.497   5.304   5.093 -0.0842  0.5071  0.0621
 7087TIP3    H121225   1.529   5.369   5.156  0.2734 -1.5955  2.2144
 7087TIP3    H221226   1.542   5.326   5.012  2.1194  1.3387  1.4097
 7088TIP3   OH221227   6.592   6.269   0.301 -0.2899  0.0098 -0.2469
 7088TIP3    H121228   6.664   6.279   0.238  0.7390 -1.8788  0.5475
 7088TIP3    H221229   6.628   6.213   0.370 -2.0868  0.2187  0.9228
 7089TIP3   OH221230   0.215   6.382   2.795 -0.1104 -0.0204 -0.3732
 7089TIP3    H121231   0.128   6.419   2.784  0.1723  0.3747 -1.3506
 7089TIP3    H221232   0.224   6.370   2.890 -1.2137 -0.0597 -0.2653
 7090TIP3   OH221233   3.221   3.809   3.028 -0.4509 -0.4403  0.3259
 7090TIP3    H121234   3.205   3.734   2.970 -0.2797  0.0640 -0.3805
 7090TIP3    H221235   3.155   3.800   3.097 -1.0172 -0.7430 -0.2437
 7091TIP3   OH221236   4.360   6.456   5.374  0.6450 -0.4031 -0.9197
 7091TIP3    H121237   4.331   6.547   5.366  0.8347 -0.1893  0.4763
 7091TIP3    H221238   4.407   6.437   5.293  1.3543  1.0371 -0.8669
 7092TIP3   OH221239   5.237   3.382   1.311 -0.5090 -0.0739 -0.5725
 7092TIP3    H121240   5.198   3.418   1.231  1.6101  3.5298 -0.2160
 7092TIP3    H221241   5.162   3.346   1.359 -2.4357  1.0023 -2.5550
 7093TIP3   OH221242   1.395   6.332   2.199 -0.1732  0.1200 -0.5710
 7093TIP3    H121243   1.403   6.280   2.119  1.0998 -0.6010 -0.0060
 7093TIP3    H221244   1.437   6.278   2.267 -0.2820  1.1783  0.3673
 7094TIP3   OH221245   5.297   4.879   2.015 -0.3698 -0.1203 -0.4011
 7094TIP3    H121246   5.325   4.923   2.096 -0.7360  0.1323 -0.4091
 7094TIP3    H221247   5.358   4.805   2.006 -2.5526 -2.4199  2.1103
 7095TIP3   OH221248   2.100   5.885   3.163  0.3475  0.1278  0.2147
 7095TIP3    H121249   2.037   5.874   3.092  1.0306 -0.1049 -0.3684
 7095TIP3    H221250   2.139   5.971   3.148 -0.2746  0.5580  0.9513
 7096TIP3   OH221251   1.207   3.870   1.175  0.4329 -0.4147  0.8526
 7096TIP3    H121252   1.263   3.848   1.100  0.7217 -0.0688  0.9662
 7096TIP3    H221253   1.229   3.805   1.242 -0.3230 -1.1599  0.4038
 7097TIP3   OH221254   2.700   1.079   5.318 -0.2595  0.5989 -0.3851
 7097TIP3    H121255   2.794   1.096   5.314 -0.5795  2.3676 -1.3460
 7097TIP3    H221256   2.692   0.985   5.300  1.2696  0.5879 -1.2010
 7098TIP3   OH221257   1.305   2.756   0.868  0.4420 -0.0607 -0.0875
 7098TIP3    H121258   1.329   2.712   0.786  3.0537  0.2028  0.4543
 7098TIP3    H221259   1.255   2.691   0.917  0.4710 -0.8786 -1.1092
 7099TIP3   OH221260   4.777   6.570   2.295  0.2276  0.0388  0.4503
 7099TIP3    H121261   4.735   6.487   2.316  1.2307 -0.7348 -0.4280
 7099TIP3    H221262   4.708   6.623   2.256  0.1493 -1.5219 -1.7957
 7100TIP3   OH221263   1.084   2.219   3.951  0.8015 -0.1146  0.2387
 7100TIP3    H121264   1.134   2.224   3.869  2.1410 -2.8921  0.7708
 7100TIP3    H221265   1.150   2.229   4.020  0.0820 -0.3999  0.9767
 7101TIP3   OH221266   5.588   6.419   4.691 -0.0154 -0.2374  0.2512
 7101TIP3    H121267   5.647   6.445   4.762  2.0101 -0.4986 -1.2521
 7101TIP3    H221268   5.608   6.327   4.675  0.7752  0.2290 -1.7258
 7102TIP3   OH221269   4.368   4.378   2.253 -0.6222 -0.3092 -0.3927
 7102TIP3    H121270   4.361   4.287   2.226 -0.5239 -0.3262 -0.3600
 7102TIP3    H221271   4.299   4.389   2.319  0.5151 -0.8419  0.9478
 7103TIP3   OH221272   5.710   1.779   3.666  0.2394 -0.0022  0.1460
 7103TIP3    H121273   5.776   1.710   3.659 -2.0223 -2.3570  0.4633
 7103TIP3    H221274   5.706   1.817   3.579  1.4319 -0.3551 -0.0847
 7104TIP3   OH221275   5.571   2.316   2.378 -0.3567  0.7967  0.3609
 7104TIP3    H121276   5.494   2.369   2.355  0.4482  1.3807 -1.2231
 7104TIP3    H221277   5.553   2.283   2.466 -2.2962  1.1111  0.1296
 7105TIP3   OH221278   3.014   1.700   4.099  0.1575 -0.1239 -0.3794
 7105TIP3    H121279   3.047   1.655   4.177  1.0476 -0.1600 -0.7639
 7105TIP3    H221280   2.963   1.633   4.053 -2.3357  0.5018  1.2826
 7106TIP3   OH221281   1.605   2.913   0.756 -0.2989  0.3345  0.4200
 7106TIP3    H121282   1.643   2.869   0.832 -1.1368 -0.2713  0.5003
 7106TIP3    H221283   1.558   2.844   0.709 -1.7244  1.1428  0.5888
 7107TIP3   OH221284   2.044   5.759   5.791 -0.1353  0.1364  0.2911
 7107TIP3    H121285   2.069   5.669   5.769  0.0190 -0.0088  1.0310
 7107TIP3    H221286   2.104   5.814   5.740 -0.3278 -0.1768 -0.2733
 7108TIP3   OH221287   5.188   2.833   4.389  0.1840 -0.6302  0.3537
 7108TIP3    H121288   5.141   2.750   4.397  0.8721 -0.9255  1.5556
 7108TIP3    H221289   5.194   2.866   4.479  0.6089  0.3358 -0.0162
 7109TIP3   OH221290   2.655   5.212   0.749 -0.0443  0.1799 -0.1425
 7109TIP3    H121291   2.560   5.200   0.756 -0.0819  1.3599  2.0166
 7109TIP3    H221292   2.683   5.145   0.685 -2.7327  2.0879 -3.6984
 7110TIP3   OH221293   7.055   2.836   0.794  0.1356 -0.2435  0.1953
 7110TIP3    H121294   7.069   2.924   0.759  0.5600 -0.1786  0.5178
 7110TIP3    H221295   7.120   2.828   0.864 -0.2149 -0.6418  0.4756
 7111TIP3   OH221296   3.565   6.558   1.438  0.1529  0.1028 -0.0146
 7111TIP3    H121297   3.566   6.633   1.497 -0.6821 -0.3224  0.5527
 7111TIP3    H221298   3.624   6.495   1.479 -1.1836 -0.5798  0.9012
 7112TIP3   OH221299   2.734   4.761   0.538 -0.5573  0.3680 -0.0806
 7112TIP3    H121300   2.650   4.721   0.560  0.2277 -1.6837 -0.5475
 7112TIP3    H221301   2.794   4.730   0.607  0.2345  0.1237 -0.8573
 7113TIP3   OH221302   4.199   4.465   3.303 -0.7459  0.0158 -0.5199
 7113TIP3    H121303   4.235   4.444   3.217 -0.7039 -2.7752  0.0803
 7113TIP3    H221304   4.184   4.380   3.345 -0.3244  1.2520  2.4396
 7114TIP3   OH221305   5.884   2.185   0.710 -0.0892 -0.2794 -0.4996
 7114TIP3    H121306   5.919   2.195   0.622  0.8852  0.4008 -0.0538
 7114TIP3    H221307   5.924   2.256   0.760 -1.1185 -0.2709  0.3424
 7115TIP3   OH221308   4.775   5.834   3.524 -0.3230 -0.3349  0.1453
 7115TIP3    H121309   4.833   5.843   3.448 -0.8934 -1.4987 -0.4508
 7115TIP3    H221310   4.687   5.849   3.489 -0.3930  2.3690  1.2201
 7116TIP3   OH221311   6.468   5.086   5.221 -0.2485  0.0303 -0.7940
 7116TIP3    H121312   6.537   5.037   5.177 -0.7561 -1.6277  0.1545
 7116TIP3    H221313   6.406   5.019   5.250 -0.9274  1.2329  0.6825
 7117TIP3   OH221314   1.497   2.865   3.426 -0.3920  0.0170  0.0788
 7117TIP3    H121315   1.457   2.828   3.505 -1.2218  2.2291  0.7800
 7117TIP3    H221316   1.566   2.923   3.459 -1.5627  1.9267 -0.7054
 7118TIP3   OH221317   3.676   1.763   0.860 -0.3541 -0.2650 -0.2904
 7118TIP3    H121318   3.668   1.777   0.765  0.2797 -2.2227 -0.6708
 7118TIP3    H221319   3.602   1.811   0.897  0.2366  1.8341 -1.6051
 7119TIP3   OH221320   5.356   0.400   2.316  0.5112 -0.1107 -0.7723
 7119TIP3    H121321   5.390   0.438   2.397 -0.8707 -1.1095  0.3317
 7119TIP3    H221322   5.323   0.474   2.266  1.6643  0.5500 -0.5767
 7120TIP3   OH221323   4.125   3.242   1.719 -0.0701 -0.0673 -0.4310
 7120TIP3    H121324   4.112   3.148   1.704  0.2501 -0.3074  0.7289
 7120TIP3    H221325   4.142   3.278   1.632  0.8872 -1.2548 -0.7613
 7121TIP3   OH221326   0.191   4.476   0.394  0.4989 -0.4146  0.0383
 7121TIP3    H121327   0.228   4.565   0.398  0.4192 -0.4274  2.4690
 7121TIP3    H221328   0.253   4.423   0.444 -1.5272 -0.8892  2.2125
 7122TIP3   OH221329   3.788   0.702   0.106  0.0720 -0.0342 -0.6697
 7122TIP3    H121330   3.769   0.794   0.089 -0.4265 -0.2084 -1.0530
 7122TIP3    H221331   3.808   0.699   0.200  1.4703  0.6917 -0.9056
 7123TIP3   OH221332   7.075   0.206   5.844  0.9216  0.4723  0.5276
 7123TIP3    H121333   7.050   0.270   5.911 -0.3328  0.7828 -0.1959
 7123TIP3    H221334   7.025   0.232   5.766 -0.2319 -1.8318  0.4224
 7124TIP3   OH221335   2.589   3.321   2.367 -0.1938  0.1736 -0.1994
 7124TIP3    H121336   2.561   3.362   2.285 -0.8004  0.1216 -0.0285
 7124TIP3    H221337   2.644   3.248   2.341 -1.1325 -0.4078 -0.6027
 7125TIP3   OH221338   6.206   1.800   1.936  0.5760 -0.3752 -0.5234
 7125TIP3    H121339   6.168   1.842   1.859  1.6217 -0.3286 -1.0279
 7125TIP3    H221340   6.143   1.731   1.959  0.0674 -0.1451 -1.1816
 7126TIP3   OH221341   1.681   5.471   3.659 -0.1456 -0.3373  0.1363
 7126TIP3    H121342   1.687   5.557   3.702  0.4246 -0.0076 -0.5645
 7126TIP3    H221343   1.619   5.422   3.712  0.4629  0.0817  1.2818
 7127TIP3   OH221344   3.796   2.948   4.761  0.3733 -1.0672 -0.5383
 7127TIP3    H121345   3.744   3.016   4.719 -0.1116 -1.2262 -0.2104
 7127TIP3    H221346   3.789   2.872   4.704  1.8530 -0.5318 -1.5042
 7128TIP3   OH221347   3.886   3.066   1.459  0.8645  0.8164 -0.1462
 7128TIP3    H121348   3.942   3.131   1.417  1.8200  0.7070  0.9205
 7128TIP3    H221349   3.875   3.098   1.549  0.8790 -0.1858  0.2278
 7129TIP3   OH221350   4.439   6.583   1.949 -0.0691 -0.4301 -0.3493
 7129TIP3    H121351   4.392   6.522   1.893  0.9217 -0.4767 -1.1436
 7129TIP3    H221352   4.373   6.649   1.973 -0.3418  0.0421 -2.2192
 7130TIP3   OH221353   1.637   6.563   2.264  0.0527  0.3209  0.2896
 7130TIP3    H121354   1.556   6.512   2.273  0.6074 -0.4303  1.2461
 7130TIP3    H221355   1.667   6.576   2.354  0.3030  1.7574  0.0227
 7131TIP3   OH221356   5.015   6.683   3.682 -0.1668  0.1073 -0.0808
 7131TIP3    H121357   5.016   6.597   3.642  1.7919 -1.7150  3.4304
 7131TIP3    H221358   5.085   6.731   3.638  0.1731 -0.8840 -0.6450
 7132TIP3   OH221359   5.244   5.625   1.366  0.0560 -0.0286  0.1706
 7132TIP3    H121360   5.259   5.550   1.308 -0.8576 -0.5261  0.5679
 7132TIP3    H221361   5.299   5.694   1.330  0.4921 -0.7229 -0.5267
 7133TIP3   OH221362   3.727   5.284   5.404 -0.1599 -0.4956  0.1912
 7133TIP3    H121363   3.652   5.306   5.349  0.3574 -2.0294 -1.1986
 7133TIP3    H221364   3.762   5.204   5.366  1.0862 -0.8341  1.9304
 7134TIP3   OH221365   4.751   4.024   4.271 -0.3510 -0.5879  0.0133
 7134TIP3    H121366   4.687   4.045   4.339 -0.2810  1.0953 -0.4012
 7134TIP3    H221367   4.835   4.020   4.316  0.2094  3.6376 -0.2896
 7135TIP3   OH221368   5.098   0.455   1.655  0.5359 -0.3796 -0.7245
 7135TIP3    H121369   5.074   0.364   1.671 -0.3645 -0.3404 -1.7212
 7135TIP3    H221370   5.167   0.473   1.718  0.2963 -1.5632 -0.0896
 7136TIP3   OH221371   2.323   5.628   4.282 -0.2880  0.1888 -0.2070
 7136TIP3    H121372   2.369   5.701   4.325  0.8126 -0.8921  0.5227
 7136TIP3    H221373   2.355   5.628   4.192 -1.2804  1.3904 -0.5812
 7137TIP3   OH221374   7.153   6.493   0.962  0.6502  0.4950  0.4880
 7137TIP3    H121375   7.081   6.556   0.960  0.6351  0.4725  0.2289
 7137TIP3    H221376   7.196   6.503   0.877  0.1059 -0.4534  0.0819
 7138TIP3   OH221377   1.354   4.794   2.908 -0.4651 -0.2347  0.1037
 7138TIP3    H121378   1.375   4.819   2.818  0.8667 -0.9561  0.1886
 7138TIP3    H221379   1.342   4.878   2.953  0.9508  0.2231 -0.2961
 7139TIP3   OH221380   1.632   4.884   1.570 -0.0605 -0.2356  0.1579
 7139TIP3    H121381   1.577   4.957   1.540  0.1446 -0.6190 -1.2065
 7139TIP3    H221382   1.580   4.842   1.639 -0.6939  0.4984  0.1418
 7140TIP3   OH221383   6.840   1.700   4.185  1.0584  0.4870  0.9146
 7140TIP3    H121384   6.931   1.729   4.190  0.9368  0.8117  1.2593
 7140TIP3    H221385   6.822   1.694   4.091  1.2372  1.0492  0.8423
 7141TIP3   OH221386   1.849   1.651   0.323 -0.2016 -0.2334  0.1495
 7141TIP3    H121387   1.849   1.725   0.262 -2.5158  0.9513  1.4543
 7141TIP3    H221388   1.940   1.644   0.352  0.2519  1.5105 -0.6876
 7142TIP3   OH221389   3.241   1.539   0.980  0.2220  0.9765  0.0555
 7142TIP3    H121390   3.272   1.561   0.892  0.7680 -1.0785 -0.3234
 7142TIP3    H221391   3.313   1.490   1.020 -1.2218 -1.0376  0.3692
 7143TIP3   OH221392   1.477   1.799   2.545 -0.5806  0.1029 -0.6838
 7143TIP3    H121393   1.498   1.719   2.592 -1.6035  1.3910  2.2295
 7143TIP3    H221394   1.400   1.777   2.493  0.0299 -1.1661 -1.0823
 7144TIP3   OH221395   0.096   4.863   5.596 -0.0913  0.4473 -0.3617
 7144TIP3    H121396   0.011   4.876   5.553 -0.7971 -1.1513  0.4504
 7144TIP3    H221397   0.074   4.823   5.680  1.4935 -0.5316 -0.3743
 7145TIP3   OH221398   6.954   6.656   1.125 -0.0990  0.4074  0.2451
 7145TIP3    H121399   7.018   6.726   1.113 -1.8687  1.7480 -2.5101
 7145TIP3    H221400   6.889   6.693   1.186  1.1860 -0.6291  2.3528
 7146TIP3   OH221401   6.027   6.121   3.399 -0.0719  0.5179 -0.3504
 7146TIP3    H121402   6.000   6.173   3.475 -1.8157 -0.7432 -0.0541
 7146TIP3    H221403   5.952   6.124   3.340 -0.1074 -1.3630 -0.4549
 7147TIP3   OH221404   2.497   3.394   4.644  0.0610  0.1526 -0.6349
 7147TIP3    H121405   2.406   3.422   4.651 -0.2797 -1.0110 -0.1494
 7147TIP3    H221406   2.497   3.329   4.574  0.3321 -0.5352 -0.0121
 7148TIP3   OH221407   3.647   2.750   3.707 -0.3706 -0.2004 -0.3489
 7148TIP3    H121408   3.687   2.784   3.787 -1.4602  0.3163 -0.0128
 7148TIP3    H221409   3.608   2.667   3.733 -0.1599 -0.3454 -0.4977
 7149TIP3   OH221410   2.501   3.442   0.030  0.3603  0.0930  0.2242
 7149TIP3    H121411   2.429   3.501   0.006  0.4157 -0.3723 -1.2276
 7149TIP3    H221412   2.580   3.488   0.000  0.4683 -0.3484 -0.1770
 7150TIP3   OH221413   3.093   2.573   3.187 -0.4451  0.4261  1.2025
 7150TIP3    H121414   3.021   2.617   3.141  1.5697  3.2801  0.4565
 7150TIP3    H221415   3.064   2.567   3.278 -2.4155 -0.4780  0.5682
 7151TIP3   OH221416   3.911   6.415   3.123  0.4611 -0.1698 -0.1590
 7151TIP3    H121417   3.840   6.356   3.097 -0.1705 -0.2150  1.5198
 7151TIP3    H221418   3.958   6.434   3.042 -0.3768 -1.5861 -1.0097
 7152TIP3   OH221419   6.883   2.157   5.303 -0.5108 -0.6206  0.1915
 7152TIP3    H121420   6.955   2.217   5.282 -0.8217 -1.0121 -2.1960
 7152TIP3    H221421   6.825   2.210   5.358  0.0394  0.7523 -0.4811
 7153TIP3   OH221422   3.698   1.898   2.137 -0.4490 -0.1920  0.1251
 7153TIP3    H121423   3.756   1.903   2.062 -1.0964  2.2552 -0.2930
 7153TIP3    H221424   3.615   1.935   2.106 -0.7682  0.7758  1.9838
 7154TIP3   OH221425   4.137   3.699   2.525  0.5157  0.0417  0.3577
 7154TIP3    H121426   4.226   3.693   2.489 -0.1151 -2.0280 -1.0480
 7154TIP3    H221427   4.087   3.744   2.458  0.2373  0.1208  0.6164
 7155TIP3   OH221428   1.114   0.765   3.629  0.4894  0.0172 -0.3086
 7155TIP3    H121429   1.066   0.683   3.643 -0.1987  0.4632 -0.0041
 7155TIP3    H221430   1.121   0.804   3.715  2.0637 -0.3787 -0.2311
 7156TIP3   OH221431   6.564   5.367   1.007  0.2093  0.1374 -0.8102
 7156TIP3    H121432   6.572   5.463   1.012  0.1111  0.0948  1.8182
 7156TIP3    H221433   6.654   5.336   1.012  0.1400  0.0904  0.4074
 7157TIP3   OH221434   4.234   3.576   1.481 -0.0622  0.2088  0.6450
 7157TIP3    H121435   4.179   3.500   1.462  1.8886 -1.0815 -0.1621
 7157TIP3    H221436   4.223   3.591   1.575 -3.0455  1.1251  0.2767
 7158TIP3   OH221437   2.767   2.932   3.681 -0.5905 -0.2924 -0.3367
 7158TIP3    H121438   2.685   2.980   3.666 -1.1084 -1.5529 -1.8659
 7158TIP3    H221439   2.771   2.869   3.609  1.4328 -0.6865  0.0625
 7159TIP3   OH221440   4.386   1.227   4.788  0.1259  0.0455  0.0791
 7159TIP3    H121441   4.291   1.211   4.787  0.2412 -0.6495 -0.5975
 7159TIP3    H221442   4.420   1.166   4.854  0.2140 -0.4376 -0.4031
 7160TIP3   OH221443   6.132   4.266   1.710 -0.4577 -0.5160  0.0915
 7160TIP3    H121444   6.172   4.338   1.662 -1.3639 -1.6746 -2.5735
 7160TIP3    H221445   6.198   4.239   1.774  0.6037  1.4368 -0.1197
 7161TIP3   OH221446   2.251   6.394   2.680 -0.0444  0.8432  0.1945
 7161TIP3    H121447   2.321   6.429   2.625  0.9878 -0.2922  0.7325
 7161TIP3    H221448   2.175   6.448   2.660  0.1110  0.1208 -2.8244
 7162TIP3   OH221449   4.530   0.930   2.758  0.0160  0.2096 -0.0946
 7162TIP3    H121450   4.478   0.854   2.734  0.1038  0.4902 -1.1989
 7162TIP3    H221451   4.621   0.902   2.748  0.0799  1.0702 -2.6931
 7163TIP3   OH221452   5.007   6.720   2.647 -0.4481  0.3888 -0.4606
 7163TIP3    H121453   5.016   6.634   2.607 -1.1846 -0.1692  0.5230
 7163TIP3    H221454   5.014   6.704   2.741 -2.2330  1.1457 -0.1482
 7164TIP3   OH221455   6.094   4.257   5.105  0.4494 -0.2568 -0.2896
 7164TIP3    H121456   6.184   4.230   5.090  0.1608 -1.9028  0.6236
 7164TIP3    H221457   6.047   4.176   5.125 -1.0998  0.6272 -0.0921
 7165TIP3   OH221458   4.532   0.498   3.631  0.2969  0.5412 -0.2871
 7165TIP3    H121459   4.594   0.533   3.695 -0.2020  0.6453  0.1462
 7165TIP3    H221460   4.546   0.403   3.635  0.3758  0.5581 -0.1377
 7166TIP3   OH221461   1.242   5.495   4.081  0.0388 -0.7867 -0.2323
 7166TIP3    H121462   1.221   5.490   3.988  0.7379 -0.7134 -0.4011
 7166TIP3    H221463   1.241   5.404   4.111 -2.3862 -0.6694  0.2150
 7167TIP3   OH221464   6.149   4.368   0.543 -0.2515  0.7428 -0.3999
 7167TIP3    H121465   6.120   4.459   0.550 -0.8305  0.7708 -2.5347
 7167TIP3    H221466   6.178   4.358   0.452  1.7064 -0.6925  0.2928
 7168TIP3   OH221467   2.768   3.730   2.673  0.2018 -0.0297 -0.0114
 7168TIP3    H121468   2.703   3.721   2.603  1.7851  0.6759 -1.6613
 7168TIP3    H221469   2.766   3.823   2.696 -0.5185 -0.3098  1.1325
 7169TIP3   OH221470   5.990   1.788   3.867 -0.4288 -0.0298  0.0333
 7169TIP3    H121471   5.915   1.846   3.872  0.8565  1.8842 -1.4326
 7169TIP3    H221472   5.962   1.707   3.911 -2.1371  1.7992  2.5641
 7170TIP3   OH221473   3.056   5.042   5.860  0.3954 -0.4554 -0.1266
 7170TIP3    H121474   2.995   5.082   5.922 -0.5123 -2.2514  0.2002
 7170TIP3    H221475   3.011   5.046   5.776  0.5182 -0.3424 -0.1869
 7171TIP3   OH221476   2.693   6.738   0.283 -0.0466 -0.1614 -0.4119
 7171TIP3    H121477   2.649   6.739   0.198 -1.3473 -0.3612  0.2438
 7171TIP3    H221478   2.658   6.813   0.329  0.3824 -0.2660  0.0970
 7172TIP3   OH221479   4.436   3.900   1.237 -0.2060 -0.3507  0.1610
 7172TIP3    H121480   4.441   3.841   1.312  0.0308  0.3519  0.7069
 7172TIP3    H221481   4.412   3.985   1.274  1.5722  0.4067 -0.3319
 7173TIP3   OH221482   4.629   4.210   0.437  0.0093 -0.4544 -0.2451
 7173TIP3    H121483   4.594   4.193   0.350  1.8647  0.2960 -1.1747
 7173TIP3    H221484   4.646   4.124   0.474 -0.9674 -0.7809 -0.5286
 7174TIP3   OH221485   3.212   4.878   4.065 -0.0720  0.5467 -0.6274
 7174TIP3    H121486   3.214   4.925   3.982 -3.1437 -0.8253 -1.6241
 7174TIP3    H221487   3.228   4.787   4.042  3.0898  0.5780  0.9345
 7175TIP3   OH221488   2.490   1.690   1.442  0.1619 -0.3941 -0.3243
 7175TIP3    H121489   2.495   1.733   1.527  0.3166  0.5367 -0.7914
 7175TIP3    H221490   2.411   1.727   1.402  1.5393  1.2316 -1.6650
 7176TIP3   OH221491   3.182   6.763   3.451  0.4157 -0.1210  0.2411
 7176TIP3    H121492   3.226   6.690   3.496 -0.2774 -1.3050 -0.9110
 7176TIP3    H221493   3.237   6.781   3.375  0.1148 -0.0533  0.0374
 7177TIP3   OH221494   6.301   0.947   0.655  0.6443  0.6800 -0.3858
 7177TIP3    H121495   6.368   0.892   0.695  0.9663  0.2727 -1.4630
 7177TIP3    H221496   6.350   1.021   0.617  0.6053 -0.0302 -1.8845
 7178TIP3   OH221497   1.181   2.547   4.588 -0.3235 -0.0248 -0.3183
 7178TIP3    H121498   1.165   2.452   4.595  0.4454 -0.0764  0.9622
 7178TIP3    H221499   1.129   2.574   4.512  0.0419 -1.6096 -1.1863
 7179TIP3   OH221500   1.933   1.633   1.583  0.7269 -0.1005  0.0737
 7179TIP3    H121501   1.934   1.566   1.515  0.3262  1.0209 -1.0890
 7179TIP3    H221502   1.855   1.685   1.563 -0.5640 -0.9409  2.6266
 7180TIP3   OH221503   3.535   4.475   1.225  0.4704 -0.4959  0.1969
 7180TIP3    H121504   3.535   4.486   1.130 -0.6987  1.3101  0.3583
 7180TIP3    H221505   3.474   4.403   1.240  1.8182 -1.8341 -0.4676
 7181TIP3   OH221506   4.347   2.702   3.104 -0.6493  0.0671  0.0903
 7181TIP3    H121507   4.263   2.662   3.081 -0.3762 -0.2964 -0.3034
 7181TIP3    H221508   4.337   2.794   3.081 -1.4330  0.3345  1.4004
 7182TIP3   OH221509   3.974   1.370   5.521  0.6908  0.3605 -0.1242
 7182TIP3    H121510   3.932   1.427   5.585  0.2040  1.6469 -1.5266
 7182TIP3    H221511   4.057   1.414   5.500  0.4419  0.4267 -1.0081
 7183TIP3   OH221512   6.207   2.094   0.846 -0.0154  0.5989  0.1623
 7183TIP3    H121513   6.178   2.103   0.755 -0.6851  0.4792  0.3580
 7183TIP3    H221514   6.235   2.182   0.871  2.3963  0.2122 -0.8710
 7184TIP3   OH221515   0.728   6.698   5.321  0.0636  0.2718 -0.3819
 7184TIP3    H121516   0.804   6.742   5.282  1.8468 -1.1219  1.2740
 7184TIP3    H221517   0.653   6.732   5.273  1.4967  3.3799 -0.6793
 7185TIP3   OH221518   3.182   0.875   4.486  0.3480 -0.0563  0.4272
 7185TIP3    H121519   3.109   0.828   4.527 -0.6519  0.6702 -0.4503
 7185TIP3    H221520   3.257   0.855   4.541 -0.5072 -0.8457  1.3581
 7186TIP3   OH221521   4.847   0.463   4.829 -0.2636 -0.0549  0.3003
 7186TIP3    H121522   4.863   0.466   4.735 -0.1394  1.9384  0.3478
 7186TIP3    H221523   4.924   0.505   4.868 -0.5083 -0.4780  1.2822
 7187TIP3   OH221524   5.729   2.134   4.470 -0.4844 -0.4030 -0.0891
 7187TIP3    H121525   5.673   2.201   4.509 -1.9344 -1.1254 -0.8354
 7187TIP3    H221526   5.676   2.098   4.399 -0.5187 -3.5942  1.3946
 7188TIP3   OH221527   2.194   5.009   2.398  0.4924  0.1194  0.6258
 7188TIP3    H121528   2.261   5.025   2.464  2.0572  1.5263 -1.1766
 7188TIP3    H221529   2.180   4.915   2.400  3.1605 -0.3641  0.5612
 7189TIP3   OH221530   3.589   0.550   4.029  0.6136  0.0052  0.3832
 7189TIP3    H121531   3.570   0.577   3.939 -0.7092 -0.1922  0.5827
 7189TIP3    H221532   3.503   0.539   4.069  1.1864  0.5662  1.8227
 7190TIP3   OH221533   5.052   6.646   3.250  0.0386  0.0072 -0.6135
 7190TIP3    H121534   5.052   6.729   3.298  1.0660  0.4997 -1.4163
 7190TIP3    H221535   5.130   6.600   3.283  0.3976  0.0805 -1.3321
 7191TIP3   OH221536   3.303   5.036   2.658  0.6089 -0.0218  0.2218
 7191TIP3    H121537   3.283   5.068   2.746 -0.4249 -1.8784  0.7217
 7191TIP3    H221538   3.339   4.948   2.673 -0.3971 -0.7123 -1.2207
 7192TIP3   OH221539   6.672   5.008   3.539 -0.2813  0.3982  0.1380
 7192TIP3    H121540   6.693   5.083   3.595 -2.0404  0.6040  0.5548
 7192TIP3    H221541   6.594   5.035   3.491 -1.4969 -1.4899  0.9530
 7193TIP3   OH221542   0.559   4.973   2.655  0.3199  0.2767  0.0511
 7193TIP3    H121543   0.601   5.058   2.670 -0.3160  0.6985 -0.5192
 7193TIP3    H221544   0.618   4.910   2.697  0.7045  1.0115  0.6438
 7194TIP3   OH221545   5.452   4.288   2.660 -0.0544 -0.3192  0.0879
 7194TIP3    H121546   5.443   4.366   2.715  0.3121 -0.4623  0.3552
 7194TIP3    H221547   5.509   4.230   2.710  0.4301 -0.3795 -0.5200
 7195TIP3   OH221548   4.518   5.919   0.438 -0.3155 -0.0512 -0.6508
 7195TIP3    H121549   4.528   5.889   0.348 -0.5054 -1.3827 -0.2537
 7195TIP3    H221550   4.554   6.008   0.438 -0.8288  0.1801 -2.1490
 7196TIP3   OH221551   6.545   1.863   0.516 -0.0155  0.6576 -0.1207
 7196TIP3    H121552   6.535   1.786   0.572 -2.6791 -0.4480 -1.8974
 7196TIP3    H221553   6.533   1.829   0.427 -1.0755  3.0522 -0.9862
 7197TIP3   OH221554   5.408   4.576   1.036 -0.1015 -0.7690 -0.2422
 7197TIP3    H121555   5.437   4.606   0.949  1.4630 -1.2470  0.0856
 7197TIP3    H221556   5.406   4.481   1.028 -1.0685 -0.7707 -0.0700
 7198TIP3   OH221557   3.432   0.197   1.196 -0.2109  0.3604  0.5679
 7198TIP3    H121558   3.476   0.129   1.145 -1.0814 -0.1461  0.4772
 7198TIP3    H221559   3.439   0.275   1.141  0.1151  0.1627  0.3192
 7199TIP3   OH221560   6.538   6.329   2.949 -0.3313  0.2268  0.1694
 7199TIP3    H121561   6.562   6.317   2.857 -1.6360 -1.4892  0.0044
 7199TIP3    H221562   6.443   6.315   2.951 -0.4992  1.3570  1.6217
 7200TIP3   OH221563   0.785   5.794   1.156 -0.0892  0.0800  0.4716
 7200TIP3    H121564   0.852   5.743   1.203 -0.0544  0.2539  0.6123
 7200TIP3    H221565   0.721   5.729   1.128  0.9117 -0.3181 -1.0101
 7201TIP3   OH221566   1.858   2.790   0.599  0.2574 -0.1147  0.2702
 7201TIP3    H121567   1.928   2.817   0.658 -0.5357  1.4910  0.5543
 7201TIP3    H221568   1.791   2.859   0.609 -1.9753 -2.2430  1.0238
 7202TIP3   OH221569   1.537   4.057   1.375 -0.4495 -0.3132 -0.2123
 7202TIP3    H121570   1.587   4.074   1.295  0.1865 -1.3130 -0.0388
 7202TIP3    H221571   1.496   4.141   1.395 -0.5002 -0.0020 -1.5005
 7203TIP3   OH221572   4.718   5.344   2.028 -0.3215 -0.3047  0.1589
 7203TIP3    H121573   4.637   5.295   2.012 -0.8050  0.5587 -0.0909
 7203TIP3    H221574   4.778   5.316   1.958 -1.3290  1.0507 -1.3188
 7204TIP3   OH221575   0.890   0.839   1.504  0.2037 -0.1912 -0.5979
 7204TIP3    H121576   0.978   0.836   1.465 -0.0707  0.9556 -1.3593
 7204TIP3    H221577   0.893   0.773   1.573  1.8248  0.1505 -0.2833
 7205TIP3   OH221578   0.227   4.395   5.057 -0.7805 -0.5221  0.1928
 7205TIP3    H121579   0.282   4.386   5.135 -1.6575  0.6176  0.9561
 7205TIP3    H221580   0.138   4.386   5.089 -1.1831  0.5891 -0.5662
 7206TIP3   OH221581   2.880   4.680   3.382  0.1249  0.2378 -0.2984
 7206TIP3    H121582   2.849   4.632   3.459  2.0739  0.4901  0.7282
 7206TIP3    H221583   2.810   4.741   3.361 -2.0887 -2.3996 -1.1296
 7207TIP3   OH221584   0.683   4.392   2.982  0.5341 -0.3132  0.4652
 7207TIP3    H121585   0.618   4.396   3.053 -0.6638 -0.9480 -0.5565
 7207TIP3    H221586   0.713   4.301   2.981 -1.3408 -0.9912 -1.4100
 7208TIP3   OH221587   4.668   2.652   0.602 -0.2558  0.0819  0.4489
 7208TIP3    H121588   4.590   2.598   0.618  0.0473 -0.2479  0.8272
 7208TIP3    H221589   4.738   2.606   0.647  1.2252 -2.2593 -3.7031
 7209TIP3   OH221590   0.288   3.666   1.297 -0.3190 -0.3516 -0.0190
 7209TIP3    H121591   0.380   3.690   1.302  0.0157 -1.5895  0.1589
 7209TIP3    H221592   0.262   3.649   1.388 -0.8944  0.5677  0.0001
 7210TIP3   OH221593   3.840   2.069   3.592 -0.6829 -0.3821  0.1021
 7210TIP3    H121594   3.894   2.006   3.544 -0.2809 -0.3204  0.4686
 7210TIP3    H221595   3.900   2.109   3.655 -1.1526 -0.3068  0.5066
 7211TIP3   OH221596   5.348   3.740   4.228 -0.2659 -0.2517  0.0543
 7211TIP3    H121597   5.364   3.691   4.309 -0.5242  1.1307  0.9758
 7211TIP3    H221598   5.354   3.674   4.158 -2.6088 -2.0148  1.3691
 7212TIP3   OH221599   0.131   1.349   4.800 -0.2532  0.2505  0.3059
 7212TIP3    H121600   0.096   1.410   4.865 -0.8998  0.6095 -0.3691
 7212TIP3    H221601   0.057   1.330   4.742  0.0021 -1.0111  0.3778
 7213TIP3   OH221602   4.223   1.308   5.654  0.3568 -0.2712  0.2389
 7213TIP3    H121603   4.185   1.340   5.735 -0.2137  0.0428 -0.1391
 7213TIP3    H221604   4.160   1.242   5.623 -0.1377  0.5813 -0.6279
 7214TIP3   OH221605   3.982   4.013   0.246 -0.7647 -0.6821 -0.5101
 7214TIP3    H121606   4.041   3.981   0.178  1.6158 -1.0908  1.6155
 7214TIP3    H221607   3.944   3.933   0.284  1.8944 -0.9311  1.9444
 7215TIP3   OH221608   4.939   6.340   2.815  0.0410 -0.0263  0.1534
 7215TIP3    H121609   5.030   6.367   2.825  0.7634 -1.8839 -0.8164
 7215TIP3    H221610   4.892   6.388   2.882  1.8619  0.4495  1.1599
 7216TIP3   OH221611   1.276   3.473   3.880  0.7364  0.2426 -0.2175
 7216TIP3    H121612   1.352   3.462   3.823  2.2470 -1.2436  1.9453
 7216TIP3    H221613   1.271   3.567   3.896  1.5048  0.4596 -1.1738
 7217TIP3   OH221614   5.356   3.037   5.449  0.4225 -0.3874  0.0086
 7217TIP3    H121615   5.415   2.968   5.479  1.9320  0.7832 -0.1560
 7217TIP3    H221616   5.413   3.099   5.403 -1.1611  0.0450 -1.4974
 7218TIP3   OH221617   4.360   6.203   3.465  0.2400  0.1672  0.4641
 7218TIP3    H121618   4.279   6.172   3.424 -0.2228 -0.9114  2.0983
 7218TIP3    H221619   4.407   6.248   3.395 -1.3425 -0.0078 -0.7552
 7219TIP3   OH221620   2.099   6.675   0.204 -0.7016 -0.2060  0.2137
 7219TIP3    H121621   2.025   6.733   0.185  0.5173  1.0237 -0.9664
 7219TIP3    H221622   2.093   6.606   0.138 -0.5717  0.1003 -0.1170
 7220TIP3   OH221623   4.365   2.396   3.855  0.9280  0.1544 -0.1419
 7220TIP3    H121624   4.451   2.434   3.835  1.0461  0.2691  0.5643
 7220TIP3    H221625   4.366   2.383   3.950 -0.6848  2.3025  0.2511
 7221TIP3   OH221626   3.677   3.847   4.597 -0.7841 -0.1103 -0.1149
 7221TIP3    H121627   3.620   3.853   4.521  0.8309  2.7381 -1.2931
 7221TIP3    H221628   3.755   3.801   4.566  0.7248  2.7451 -0.9632
 7222TIP3   OH221629   5.808   3.694   2.944  0.2803  0.3995 -0.2954
 7222TIP3    H121630   5.853   3.662   2.866 -0.3014  0.1921 -0.5573
 7222TIP3    H221631   5.730   3.638   2.951 -0.4812  1.4069 -0.4644
 7223TIP3   OH221632   5.912   2.202   4.007 -0.1175 -0.1157  0.1563
 7223TIP3    H121633   5.955   2.214   4.092  0.2677  0.8206 -0.1577
 7223TIP3    H221634   5.973   2.239   3.944 -1.2646  1.0251 -0.3266
 7224TIP3   OH221635   1.410   5.365   1.301  0.1950  0.4262  0.0538
 7224TIP3    H121636   1.362   5.284   1.284  0.9309 -0.3306  1.3885
 7224TIP3    H221637   1.346   5.423   1.342 -0.3139  0.5087 -0.8375
 7225TIP3   OH221638   0.193   2.576   2.130 -0.9414  0.3575 -0.3013
 7225TIP3    H121639   0.277   2.552   2.091 -0.4823  1.8310 -0.2896
 7225TIP3    H221640   0.209   2.577   2.224 -0.8486  1.0432 -0.3205
 7226TIP3   OH221641   1.737   2.780   1.706 -0.0019 -0.2624 -0.6393
 7226TIP3    H121642   1.667   2.742   1.758 -0.9010  0.2122 -1.4753
 7226TIP3    H221643   1.693   2.826   1.635  1.1300  0.6479 -0.7894
 7227TIP3   OH221644   2.049   6.491   3.413  0.0361  0.5924 -0.1707
 7227TIP3    H121645   2.074   6.467   3.324 -0.0639  1.5942 -0.4807
 7227TIP3    H221646   2.122   6.462   3.467  0.9908  1.6990 -0.8213
 7228TIP3   OH221647   1.069   6.722   5.520  0.2174  0.2141  0.4355
 7228TIP3    H121648   1.007   6.795   5.522  0.0456  0.0875 -0.0907
 7228TIP3    H221649   1.101   6.719   5.430 -1.5808 -1.8275 -0.2417
 7229TIP3   OH221650   0.955   1.895   0.701  0.9032  0.2583 -0.0656
 7229TIP3    H121651   0.973   1.975   0.652  0.7799 -0.4201 -1.2470
 7229TIP3    H221652   1.025   1.890   0.766  0.2781  1.9042  0.7787
 7230TIP3   OH221653   2.343   6.601   4.675  0.0117  0.9038  0.1651
 7230TIP3    H121654   2.387   6.563   4.600 -0.9788  0.2142 -0.0951
 7230TIP3    H221655   2.360   6.695   4.669 -0.3494  0.8987 -1.1240
 7231TIP3   OH221656   3.295   0.603   1.422  0.5016 -0.7733 -0.2911
 7231TIP3    H121657   3.253   0.576   1.504  0.9869 -0.5040  0.0497
 7231TIP3    H221658   3.370   0.544   1.414  0.5200 -0.7237 -0.4809
 7232TIP3   OH221659   3.058   1.403   1.119 -0.3768 -0.4306  0.2259
 7232TIP3    H121660   3.052   1.450   1.202  0.5334 -0.0495  0.0883
 7232TIP3    H221661   3.103   1.463   1.060 -0.6013 -0.8771 -0.4144
 7233TIP3   OH221662   0.964   3.288   2.758  0.0480 -0.0037  0.4481
 7233TIP3    H121663   0.971   3.205   2.711 -0.0032  0.7649 -0.9914
 7233TIP3    H221664   1.037   3.288   2.820  0.0890 -1.0725  0.4078
 7234TIP3   OH221665   0.931   0.637   1.717  0.3079 -0.1697 -0.1698
 7234TIP3    H121666   1.018   0.671   1.738  0.4759 -0.7609  0.1176
 7234TIP3    H221667   0.901   0.594   1.797 -0.6857  0.8917  0.0587
 7235TIP3   OH221668   6.077   6.473   0.966 -0.0886  0.1200  0.2868
 7235TIP3    H121669   6.110   6.384   0.955  3.3176  1.2115  0.3231
 7235TIP3    H221670   6.122   6.523   0.897 -2.6244  1.7209 -0.3564
 7236TIP3   OH221671   5.635   5.536   2.843 -0.0733  0.3071 -0.0889
 7236TIP3    H121672   5.685   5.617   2.857  2.8786 -1.2369 -0.8572
 7236TIP3    H221673   5.591   5.551   2.759  1.1565  0.8477 -0.6756
 7237TIP3   OH221674   2.159   1.626   2.971  0.4219  0.4544 -0.1648
 7237TIP3    H121675   2.201   1.583   3.045  0.8842 -0.3927 -0.8932
 7237TIP3    H221676   2.144   1.716   3.000  1.2551  0.3325  0.6860
 7238TIP3   OH221677   2.522   2.849   4.274 -0.1284 -0.3816  0.6147
 7238TIP3    H121678   2.538   2.891   4.358 -1.4848 -0.0759  0.7461
 7238TIP3    H221679   2.609   2.828   4.241  0.5978  1.8873  0.8677
 7239TIP3   OH221680   1.786   0.235   3.207 -0.4612 -0.0986 -0.1686
 7239TIP3    H121681   1.755   0.261   3.121  2.4738  0.7182 -1.1076
 7239TIP3    H221682   1.810   0.143   3.197 -0.1939 -0.0255 -0.2094
 7240TIP3   OH221683   2.080   5.495   2.905  1.0544  0.3259 -0.2067
 7240TIP3    H121684   1.987   5.490   2.925  1.2850  0.5542  1.0242
 7240TIP3    H221685   2.122   5.508   2.990  2.1583  0.9673 -0.8260
 7241TIP3   OH221686   3.248   2.752   0.599  0.0253 -0.1681 -0.2799
 7241TIP3    H121687   3.265   2.839   0.634  1.1371 -0.5521  0.1858
 7241TIP3    H221688   3.292   2.752   0.514 -0.4692 -0.0860 -0.5373
 7242TIP3   OH221689   4.289   3.381   5.400 -0.2632 -0.3261  0.3208
 7242TIP3    H121690   4.206   3.384   5.447 -0.1688 -1.5901  0.5916
 7242TIP3    H221691   4.349   3.432   5.454 -1.1738  1.8373 -0.5861
 7243TIP3   OH221692   4.395   5.606   3.490 -0.4404 -0.4733  0.2374
 7243TIP3    H121693   4.424   5.548   3.419 -1.9829  0.9555 -1.6818
 7243TIP3    H221694   4.421   5.694   3.461  0.8362 -0.0032  2.5370
 7244TIP3   OH221695   1.773   3.335   2.433 -0.2598 -0.4265  0.4057
 7244TIP3    H121696   1.825   3.342   2.353 -0.5326  0.1060  0.2730
 7244TIP3    H221697   1.757   3.241   2.443  0.0025 -0.5182 -0.0167
 7245TIP3   OH221698   4.166   4.130   5.072 -0.0595 -0.9256  0.1065
 7245TIP3    H121699   4.204   4.211   5.040  1.5377 -2.0595 -1.0452
 7245TIP3    H221700   4.239   4.084   5.113 -0.8580 -1.9303  0.4501
 7246TIP3   OH221701   3.885   4.376   0.033 -0.0234  0.0940  0.1921
 7246TIP3    H121702   3.923   4.392   0.120 -0.8593  2.7605  0.1594
 7246TIP3    H221703   3.809   4.320   0.050 -0.6805  1.2799  1.3316
 7247TIP3   OH221704   4.024   6.440   1.041 -0.1500 -0.1921 -0.5198
 7247TIP3    H121705   3.996   6.509   0.980  1.6819  0.0240 -1.1628
 7247TIP3    H221706   3.943   6.393   1.062 -1.3220  1.6737 -0.6448
 7248TIP3   OH221707   4.853   4.903   1.063  0.9241 -0.1694 -0.1852
 7248TIP3    H121708   4.881   4.906   0.972  0.7307 -1.0796 -0.2916
 7248TIP3    H221709   4.769   4.857   1.061 -0.4996  2.2389  0.1657
 7249TIP3   OH221710   4.476   4.331   1.530 -0.1141  0.0085  0.4366
 7249TIP3    H121711   4.515   4.418   1.516 -0.0102 -0.3403 -1.9371
 7249TIP3    H221712   4.441   4.335   1.619  0.0772  2.4003  0.4935
 7250TIP3   OH221713   2.149   0.265   0.131  0.1307 -0.0928  0.1626
 7250TIP3    H121714   2.156   0.359   0.144 -1.6994 -0.1380  2.0332
 7250TIP3    H221715   2.101   0.255   0.049 -0.9298  0.6687  0.6678
 7251TIP3   OH221716   6.925   3.324   1.858 -0.3694  0.0039  0.5447
 7251TIP3    H121717   6.883   3.289   1.936  0.4686 -1.3919  0.4042
 7251TIP3    H221718   6.964   3.247   1.815 -0.4864  0.7871 -1.0418
 7252TIP3   OH221719   6.720   1.152   1.359 -0.5761  0.3536  0.0463
 7252TIP3    H121720   6.789   1.102   1.316 -1.8083 -1.0935 -0.3251
 7252TIP3    H221721   6.761   1.237   1.378  0.5953  0.3945 -2.2608
 7253TIP3   OH221722   3.344   0.681   4.594 -0.2236 -0.5984 -0.6426
 7253TIP3    H121723   3.438   0.661   4.588 -0.0873 -0.7509  1.3354
 7253TIP3    H221724   3.309   0.613   4.652 -1.3078  0.2007 -0.3339
 7254TIP3   OH221725   1.980   5.636   0.812  0.3007  0.1000  0.1430
 7254TIP3    H121726   1.960   5.563   0.871  1.5241  0.0627  0.5409
 7254TIP3    H221727   2.072   5.655   0.829  0.0698  1.5566 -0.1648
 7255TIP3   OH221728   6.706   1.568   0.410 -0.1224 -0.0784 -0.4859
 7255TIP3    H121729   6.746   1.553   0.324 -2.8902  0.5396 -2.0070
 7255TIP3    H221730   6.739   1.497   0.465  2.0228 -0.2846 -1.9338
 7256TIP3   OH221731   0.296   0.275   5.834  0.0093  0.0983 -0.6693
 7256TIP3    H121732   0.256   0.233   5.758 -0.9764 -0.8619  0.3277
 7256TIP3    H221733   0.358   0.210   5.867 -0.9056 -0.2729  0.3877
 7257TIP3   OH221734   7.030   4.568   1.188  0.0713 -0.0278  0.6604
 7257TIP3    H121735   6.947   4.578   1.234 -0.8681 -1.8792 -0.5289
 7257TIP3    H221736   7.005   4.543   1.099  1.9046 -0.0006  0.0987
 7258TIP3   OH221737   7.103   0.694   1.900  0.4203 -0.6634 -0.3201
 7258TIP3    H121738   7.054   0.687   1.981  1.5941 -0.9025  0.3929
 7258TIP3    H221739   7.068   0.771   1.857 -0.4309 -0.7180  0.2636
 7259TIP3   OH221740   5.636   1.032   3.907 -0.0435  0.3000  0.0760
 7259TIP3    H121741   5.564   1.000   3.852  1.4989 -1.3727 -1.0981
 7259TIP3    H221742   5.595   1.095   3.966 -2.7383 -1.6298  0.4455
 7260TIP3   OH221743   3.652   1.847   5.134  0.4751  0.0091 -0.0867
 7260TIP3    H121744   3.683   1.862   5.224  0.8769  0.5541 -0.3061
 7260TIP3    H221745   3.646   1.752   5.126  2.3193 -0.1419 -0.0906
 7261TIP3   OH221746   2.967   5.687   0.730  0.6585  0.4030  0.2735
 7261TIP3    H121747   2.892   5.631   0.750 -0.6763  2.0572  0.1221
 7261TIP3    H221748   3.000   5.714   0.816 -0.7416  1.9329  0.3880
 7262TIP3   OH221749   2.730   6.355   2.635  0.2511  0.1175  0.3408
 7262TIP3    H121750   2.788   6.393   2.569  0.4166 -0.6612  0.0351
 7262TIP3    H221751   2.780   6.359   2.717  0.3117  0.4486  0.2882
 7263TIP3   OH221752   6.872   1.140   2.611  0.1848 -0.0114  0.2848
 7263TIP3    H121753   6.967   1.125   2.614  0.0601 -0.6926  2.2089
 7263TIP3    H221754   6.834   1.055   2.632 -0.9475 -0.1349 -1.9470
 7264TIP3   OH221755   5.040   3.367   4.555  0.4124 -0.5244  0.4039
 7264TIP3    H121756   5.036   3.428   4.481  1.1648 -1.4560 -0.4346
 7264TIP3    H221757   5.071   3.420   4.628 -0.6643  0.4944  0.1582
 7265TIP3   OH221758   4.553   4.631   1.220  0.2535  0.1978 -0.2766
 7265TIP3    H121759   4.538   4.611   1.312  1.3937 -0.5491 -0.2337
 7265TIP3    H221760   4.524   4.552   1.174  0.4303  0.2575 -0.4903
 7266TIP3   OH221761   3.781   4.014   5.410 -0.3629  0.0871  0.5395
 7266TIP3    H121762   3.775   3.926   5.374  1.7711  0.3933 -0.7694
 7266TIP3    H221763   3.717   4.016   5.480  0.4776 -2.9623  1.5423
 7267TIP3   OH221764   0.747   3.063   1.703 -0.2551 -0.0777  0.4346
 7267TIP3    H121765   0.791   3.049   1.619  0.7468  1.3866  0.6737
 7267TIP3    H221766   0.780   2.994   1.759  0.2454 -0.1442  0.0628
 7268TIP3   OH221767   0.950   4.057   1.674 -0.2316  0.1803 -0.0818
 7268TIP3    H121768   0.938   4.084   1.765  1.2002 -0.1821  0.2387
 7268TIP3    H221769   0.991   4.133   1.631  0.5538 -0.2131 -0.0346
 7269TIP3   OH221770   6.547   1.985   5.402 -0.2198 -0.5007 -0.1690
 7269TIP3    H121771   6.458   1.967   5.371 -1.1258  1.9671  0.7980
 7269TIP3    H221772   6.588   2.034   5.330  1.1595 -3.2772 -1.4609
 7270TIP3   OH221773   4.252   0.493   1.658 -0.5466  0.3501  0.0480
 7270TIP3    H121774   4.257   0.581   1.621  2.0716  0.6110  0.8394
 7270TIP3    H221775   4.161   0.484   1.688 -1.0429  2.4934 -0.6902
 7271TIP3   OH221776   2.733   2.700   3.141  0.3593 -0.1728  0.4561
 7271TIP3    H121777   2.697   2.698   3.053  0.3929 -1.6403  0.4496
 7271TIP3    H221778   2.791   2.776   3.142 -2.4365  2.1354  0.3907
 7272TIP3   OH221779   0.785   1.029   1.014  0.3174  0.4793  0.0594
 7272TIP3    H121780   0.876   1.057   1.026 -0.5852  2.9544  2.0150
 7272TIP3    H221781   0.788   0.934   1.024  2.4594  0.6585  2.0001
 7273TIP3   OH221782   4.310   2.582   4.579  0.2343  0.1188  0.2146
 7273TIP3    H121783   4.379   2.648   4.569  1.8116 -1.4919 -0.1200
 7273TIP3    H221784   4.357   2.502   4.604 -1.4597 -1.2064 -0.6183
 7274TIP3   OH221785   4.093   2.425   4.975 -1.1277 -0.3369 -0.0902
 7274TIP3    H121786   4.098   2.498   5.036  1.3631 -0.5986  0.1182
 7274TIP3    H221787   4.174   2.375   4.990 -0.9022 -1.0054 -2.8493
 7275TIP3   OH221788   1.012   3.998   0.750  0.0496  0.1312 -0.1473
 7275TIP3    H121789   1.003   3.976   0.842  1.2256  0.3508  0.0334
 7275TIP3    H221790   1.099   3.967   0.726 -0.3169 -0.0898 -1.2392
 7276TIP3   OH221791   1.848   6.100   0.532  1.0422 -0.5877  0.7161
 7276TIP3    H121792   1.921   6.160   0.516  1.9287 -1.3180  1.8750
 7276TIP3    H221793   1.843   6.092   0.628 -0.6401 -0.4802  0.6808
 7277TIP3   OH221794   3.933   4.268   3.598 -0.1950  0.2316 -0.0098
 7277TIP3    H121795   3.973   4.251   3.683 -0.5434  0.6194  0.2382
 7277TIP3    H221796   3.870   4.339   3.615 -0.2012  0.3743 -0.6070
 7278TIP3   OH221797   4.361   3.345   0.925 -0.1529  0.3114 -0.2295
 7278TIP3    H121798   4.431   3.396   0.965  1.5506 -3.3340  1.8329
 7278TIP3    H221799   4.295   3.337   0.994  0.1008 -1.0764 -0.1202
 7279TIP3   OH221800   6.343   5.821   3.086  0.1957  0.5608 -0.2707
 7279TIP3    H121801   6.312   5.850   3.172 -1.6131 -1.0962 -0.2867
 7279TIP3    H221802   6.398   5.745   3.105 -0.0964  0.2764 -0.5336
 7280TIP3   OH221803   2.238   6.189   4.718 -0.1421 -0.3792  0.3539
 7280TIP3    H121804   2.322   6.147   4.699 -0.0188  0.5851 -1.5029
 7280TIP3    H221805   2.191   6.125   4.771  0.3748 -2.5324 -1.6142
 7281TIP3   OH221806   1.580   2.917   1.550 -1.2185 -0.0201 -0.3851
 7281TIP3    H121807   1.549   2.834   1.515  0.1525 -0.8952  0.3686
 7281TIP3    H221808   1.619   2.962   1.475 -0.6027 -0.7491 -0.5156
 7282TIP3   OH221809   2.756   0.774   5.447 -0.1433 -0.1942  0.0449
 7282TIP3    H121810   2.700   0.698   5.459  0.6951 -1.0195 -1.0614
 7282TIP3    H221811   2.741   0.828   5.525 -2.4383 -0.3714 -0.2161
 7283TIP3   OH221812   0.866   3.921   0.263  0.1074  0.3284  0.0203
 7283TIP3    H121813   0.797   3.914   0.330  1.7924 -1.3200  1.7383
 7283TIP3    H221814   0.831   3.873   0.188 -1.6440  1.7909 -0.1481
 7284TIP3   OH221815   1.430   4.306   2.436  0.1905 -0.4478 -0.3814
 7284TIP3    H121816   1.500   4.244   2.454 -1.1843 -1.6019  1.2587
 7284TIP3    H221817   1.415   4.351   2.519 -2.2522 -1.5808 -0.1356
 7285TIP3   OH221818   1.657   1.613   2.409  0.1828 -0.0696  0.4097
 7285TIP3    H121819   1.627   1.699   2.438  0.8406  0.8351 -1.4204
 7285TIP3    H221820   1.577   1.568   2.381 -0.2393 -0.3218  1.9527
 7286TIP3   OH221821   5.100   4.424   2.661  0.8274  0.5365 -1.0542
 7286TIP3    H121822   5.073   4.376   2.583  1.6524  1.3566 -1.8782
 7286TIP3    H221823   5.149   4.360   2.713 -1.1856 -0.5119 -0.3117
 7287TIP3   OH221824   3.791   0.697   3.677  0.2612 -0.7115  0.0450
 7287TIP3    H121825   3.827   0.708   3.765 -1.3643  0.7309  0.5743
 7287TIP3    H221826   3.865   0.664   3.625  2.2898  1.8599  1.1116
 7288TIP3   OH221827   7.173   0.907   3.605 -0.2499 -0.1404 -0.0501
 7288TIP3    H121828   7.123   0.828   3.624 -1.0304  0.4400  0.3961
 7288TIP3    H221829   7.260   0.876   3.581 -0.6204 -1.1385 -0.1286
 7289TIP3   OH221830   2.137   3.710   4.413 -0.2840  0.1371 -0.1772
 7289TIP3    H121831   2.103   3.784   4.364  1.3522  1.2679  0.3015
 7289TIP3    H221832   2.165   3.647   4.346 -2.5125 -0.5168 -0.5768
 7290TIP3   OH221833   0.145   4.230   4.096 -0.2539  0.0634 -0.0925
 7290TIP3    H121834   0.192   4.313   4.099 -0.6384  0.2699  0.4486
 7290TIP3    H221835   0.208   4.168   4.058 -0.1084  0.6852 -0.8669
 7291TIP3   OH221836   6.129   3.305   2.474  0.1808 -0.5211 -0.6227
 7291TIP3    H121837   6.155   3.297   2.566  0.6699 -1.5435 -0.8370
 7291TIP3    H221838   6.158   3.392   2.448  1.9806 -1.0185 -0.3994
 7292TIP3   OH221839   1.620   0.344   3.685 -0.3026 -0.2460 -0.5104
 7292TIP3    H121840   1.583   0.343   3.773  1.0263  0.5972  0.0901
 7292TIP3    H221841   1.642   0.436   3.670 -0.6514 -0.3571 -1.7916
 7293TIP3   OH221842   3.892   6.406   5.748 -0.0777  0.3761  0.2293
 7293TIP3    H121843   3.835   6.345   5.702 -1.6601  2.9111 -1.4010
 7293TIP3    H221844   3.946   6.351   5.804 -5.0439 -2.2454  3.1078
 7294TIP3   OH221845   5.757   0.510   5.347 -0.3815 -0.2052 -0.3728
 7294TIP3    H121846   5.799   0.593   5.367 -1.3349  0.1411  0.2359
 7294TIP3    H221847   5.664   0.525   5.361 -0.6819 -1.0799 -1.2904
 7295TIP3   OH221848   3.280   5.162   3.227  0.2141  0.2634  0.5780
 7295TIP3    H121849   3.252   5.102   3.158  0.2624  0.8359  0.0464
 7295TIP3    H221850   3.219   5.146   3.299  0.4205 -0.6349  0.5659
 7296TIP3   OH221851   5.770   3.944   2.832  0.5610 -0.0300  0.2552
 7296TIP3    H121852   5.754   3.851   2.843 -0.9878 -0.0819 -1.8790
 7296TIP3    H221853   5.856   3.948   2.790  0.5480 -0.5122  0.1757
 7297TIP3   OH221854   1.492   4.062   0.571  0.4288 -0.1972 -0.2819
 7297TIP3    H121855   1.437   4.001   0.621  1.2124  0.0138  0.8861
 7297TIP3    H221856   1.549   4.102   0.637  1.0565  0.5851 -1.2698
 7298TIP3   OH221857   1.177   3.613   0.870  0.3939 -0.1417  0.1975
 7298TIP3    H121858   1.237   3.664   0.926 -0.2597  1.0850 -0.1675
 7298TIP3    H221859   1.196   3.522   0.891  0.3794  0.2757  2.2058
 7299TIP3   OH221860   4.562   5.146   4.639  0.2538 -0.5987 -0.4360
 7299TIP3    H121861   4.594   5.195   4.563  0.7924 -0.6216 -0.2288
 7299TIP3    H221862   4.537   5.214   4.702 -0.7592 -0.5670 -0.8495
 7300TIP3   OH221863   0.213   4.555   2.066 -0.1079 -0.2957  0.3305
 7300TIP3    H121864   0.150   4.533   1.997 -0.3356  1.0285  0.0802
 7300TIP3    H221865   0.271   4.480   2.070 -1.3467 -1.3034  0.1573
 7301TIP3   OH221866   2.795   5.929   1.253  0.4073 -0.3377  0.3102
 7301TIP3    H121867   2.890   5.923   1.264  0.2680  0.7318  3.0502
 7301TIP3    H221868   2.762   5.848   1.292  0.1470 -0.0790  0.6279
 7302TIP3   OH221869   3.228   3.246   3.163  0.1162  0.5331 -0.0002
 7302TIP3    H121870   3.231   3.236   3.068 -1.0174  0.4828 -0.0525
 7302TIP3    H221871   3.283   3.175   3.196 -1.5048 -1.0967 -0.5806
 7303TIP3   OH221872   2.494   4.614   5.306  0.3032 -0.3611 -0.0456
 7303TIP3    H121873   2.404   4.616   5.274  0.0024  0.9433  0.7691
 7303TIP3    H221874   2.485   4.602   5.400  0.9923 -0.5561 -0.0049
 7304TIP3   OH221875   0.771   5.180   3.375 -0.2623  0.3679 -0.6104
 7304TIP3    H121876   0.784   5.106   3.317 -0.7976 -0.9706  0.9154
 7304TIP3    H221877   0.855   5.226   3.376  0.7478 -1.4197  0.0402
 7305TIP3   OH221878   2.077   5.784   2.431 -0.3235 -0.0233 -0.0248
 7305TIP3    H121879   2.053   5.765   2.522 -1.0051  1.1983  0.0641
 7305TIP3    H221880   2.022   5.858   2.406 -0.4034 -0.5507 -1.5534
 7306TIP3   OH221881   0.612   2.568   2.237 -0.3232 -0.5978 -0.2375
 7306TIP3    H121882   0.616   2.545   2.145 -0.1459 -1.4921 -0.0209
 7306TIP3    H221883   0.684   2.629   2.250 -0.6843 -0.0379 -0.7949
 7307TIP3   OH221884   4.577   2.124   0.688  0.1882  0.8464  0.2042
 7307TIP3    H121885   4.646   2.152   0.628  0.4517 -0.7457 -0.2961
 7307TIP3    H221886   4.622   2.070   0.753 -0.5524 -0.2020 -0.1196
 7308TIP3   OH221887   3.244   5.699   4.918  0.2061 -0.9324  0.4692
 7308TIP3    H121888   3.169   5.696   4.977 -0.3479 -2.2471 -0.2555
 7308TIP3    H221889   3.278   5.788   4.928 -0.8736 -0.5964  1.5058
 7309TIP3   OH221890   4.068   5.809   4.555  0.6842 -0.1096 -0.4924
 7309TIP3    H121891   4.036   5.891   4.516  0.7940  0.3556  0.3788
 7309TIP3    H221892   4.134   5.778   4.493  0.0862  0.0486 -1.2248
 7310TIP3   OH221893   4.918   3.158   3.795  0.0969 -0.2496 -0.5142
 7310TIP3    H121894   4.847   3.170   3.857 -0.9378 -0.7890 -1.5413
 7310TIP3    H221895   4.953   3.246   3.779  0.4283 -0.1201  0.8556
 7311TIP3   OH221896   1.914   5.730   0.253  0.3238  0.1626 -0.3227
 7311TIP3    H121897   1.952   5.731   0.166  0.7259  0.2549 -0.1475
 7311TIP3    H221898   1.928   5.819   0.286 -0.5062  0.3523 -0.4560
 7312TIP3   OH221899   6.598   5.884   4.901  0.6011 -0.4550 -0.2026
 7312TIP3    H121900   6.540   5.813   4.930 -0.0115 -1.0934 -2.6615
 7312TIP3    H221901   6.654   5.842   4.835  1.0369  1.0839 -0.8457
 7313TIP3   OH221902   1.996   2.984   2.685  0.3084  0.6134 -0.0168
 7313TIP3    H121903   2.092   2.989   2.685  0.2622  2.8247  0.9030
 7313TIP3    H221904   1.975   2.935   2.764  0.6649 -0.8824 -0.8138
 7314TIP3   OH221905   5.752   3.379   1.129 -0.3886  0.3341 -0.2811
 7314TIP3    H121906   5.812   3.453   1.122 -1.9099  1.8335  1.2961
 7314TIP3    H221907   5.805   3.306   1.160  1.0825  0.8580 -1.4850
 7315TIP3   OH221908   3.687   3.380   3.531 -0.0263  0.2957  0.1444
 7315TIP3    H121909   3.698   3.405   3.623  0.1197  0.9623 -0.0462
 7315TIP3    H221910   3.729   3.294   3.524  1.3645  0.9317  0.3588
 7316TIP3   OH221911   5.533   4.530   1.634  0.0033  0.4665  0.2154
 7316TIP3    H121912   5.595   4.499   1.568 -2.3397  1.8904 -2.9423
 7316TIP3    H221913   5.484   4.453   1.660  0.3033  0.0318 -0.4863
 7317TIP3   OH221914   1.423   5.043   3.541  0.2224  0.0133  0.0824
 7317TIP3    H121915   1.398   5.125   3.497 -0.8101  0.8666  2.1155
 7317TIP3    H221916   1.427   5.066   3.634  1.1596 -1.9816  0.5906
 7318TIP3   OH221917   4.520   6.535   3.426  0.1666  0.7809  0.9665
 7318TIP3    H121918   4.463   6.611   3.414 -0.9049  0.1807  2.0213
 7318TIP3    H221919   4.542   6.537   3.519 -0.9301 -0.8943  1.2922
 7319TIP3   OH221920   1.038   5.954   3.899  0.0785  0.0882  0.3924
 7319TIP3    H121921   1.051   6.045   3.926 -0.4342  0.9066 -1.8464
 7319TIP3    H221922   1.105   5.939   3.833  1.3237 -1.8179  1.9976
 7320TIP3   OH221923   1.809   2.467   0.996  0.0927  0.3078 -0.6331
 7320TIP3    H121924   1.774   2.556   0.987 -0.0322  0.1920 -1.3170
 7320TIP3    H221925   1.743   2.421   1.047 -0.2626  0.3652 -1.0423
 7321TIP3   OH221926   1.252   1.870   1.600  0.3273  0.4179 -0.0007
 7321TIP3    H121927   1.283   1.951   1.559 -1.2582  1.1140  0.1024
 7321TIP3    H221928   1.156   1.878   1.599  0.1923 -0.6044  1.7541
 7322TIP3   OH221929   0.138   2.169   5.904 -0.5742 -0.0838 -0.3112
 7322TIP3    H121930   0.192   2.146   5.828  1.8485 -0.1827  1.3214
 7322TIP3    H221931   0.080   2.094   5.916  1.0946 -1.4510 -0.3356
 7323TIP3   OH221932   3.181   4.332   5.454 -0.0475  0.2855 -0.1696
 7323TIP3    H121933   3.147   4.344   5.543  0.4339  0.3268  0.0115
 7323TIP3    H221934   3.263   4.381   5.453  0.8849 -1.2103 -0.0623
 7324TIP3   OH221935   6.205   0.149   1.155 -0.8097  0.5939  0.1705
 7324TIP3    H121936   6.133   0.091   1.179  0.8858 -1.5353  0.3369
 7324TIP3    H221937   6.183   0.233   1.196 -1.1096 -1.1602  4.0129
 7325TIP3   OH221938   3.223   1.290   3.133 -0.1488 -0.2771  0.2226
 7325TIP3    H121939   3.255   1.275   3.222 -0.6565  1.0374  0.6483
 7325TIP3    H221940   3.220   1.385   3.124  0.6066 -0.3751 -1.4717
 7326TIP3   OH221941   2.919   5.822   2.365 -0.2649  0.3033 -0.3200
 7326TIP3    H121942   2.901   5.728   2.365  1.1103  0.0129 -1.1723
 7326TIP3    H221943   3.014   5.828   2.373 -0.2196  1.5957 -1.5035
 7327TIP3   OH221944   4.659   0.787   3.268 -0.2185  0.4827 -0.2255
 7327TIP3    H121945   4.584   0.736   3.300  0.1410  0.2575  0.2697
 7327TIP3    H221946   4.689   0.741   3.190  0.7811 -0.7107  0.8210
 7328TIP3   OH221947   2.036   0.173   1.527 -0.3366 -0.0920 -0.2829
 7328TIP3    H121948   1.998   0.206   1.445 -0.0548 -1.0385 -0.8008
 7328TIP3    H221949   2.108   0.117   1.500  0.2150  0.1503  0.6430
 7329TIP3   OH221950   0.475   1.153   3.754  0.1480 -0.4094 -0.2334
 7329TIP3    H121951   0.485   1.235   3.802  0.3048 -1.8711  2.4626
 7329TIP3    H221952   0.496   1.175   3.664 -0.2191  2.5720  0.2933
 7330TIP3   OH221953   5.997   4.385   3.978 -0.1777 -0.1025 -0.1232
 7330TIP3    H121954   5.997   4.468   3.930 -1.0810 -0.6557 -1.1201
 7330TIP3    H221955   5.990   4.410   4.070  1.8823  0.9967 -0.2030
 7331TIP3   OH221956   3.064   4.743   3.171  0.0849  0.0037  0.4397
 7331TIP3    H121957   3.004   4.735   3.245 -1.1875 -1.1631 -0.6539
 7331TIP3    H221958   3.007   4.764   3.097  1.2407  0.4414 -0.3500
 7332TIP3   OH221959   5.252   0.643   2.150  0.4054 -0.0932  0.5127
 7332TIP3    H121960   5.175   0.700   2.155  2.0717  2.4090 -0.1788
 7332TIP3    H221961   5.233   0.582   2.080 -1.2083  0.0233  0.8277
 7333TIP3   OH221962   4.916   4.914   3.696 -0.1773  0.2181 -0.7871
 7333TIP3    H121963   4.936   4.820   3.702  1.1269  0.4563 -1.1213
 7333TIP3    H221964   4.880   4.936   3.782 -1.5902 -0.8189 -1.0842
 7334TIP3   OH221965   0.332   0.115   3.374  0.2598  0.6198 -0.1309
 7334TIP3    H121966   0.343   0.210   3.380  0.1542  0.8823 -2.8005
 7334TIP3    H221967   0.367   0.093   3.288  1.5532 -2.0080  0.9619
 7335TIP3   OH221968   3.562   5.375   4.745 -0.3132 -0.1170  0.7111
 7335TIP3    H121969   3.476   5.356   4.783  0.1490  0.0232  1.8413
 7335TIP3    H221970   3.569   5.470   4.747 -0.9799  0.0301 -1.3285
 7336TIP3   OH221971   7.083   0.419   2.623  0.6116  0.4574  0.5420
 7336TIP3    H121972   7.177   0.407   2.626  0.5189 -0.7790 -0.4828
 7336TIP3    H221973   7.047   0.330   2.620 -0.5985  0.9012  1.0921
 7337TIP3   OH221974   3.808   6.228   2.933 -0.0634  0.4810  0.2166
 7337TIP3    H121975   3.902   6.208   2.933  0.1601  1.4993 -0.1295
 7337TIP3    H221976   3.776   6.193   2.850  0.2036  1.0042 -0.1088
 7338TIP3   OH221977   1.693   0.971   4.050  0.3924  0.5163  0.0355
 7338TIP3    H121978   1.769   0.920   4.076  0.4767  1.8846  2.8322
 7338TIP3    H221979   1.710   0.996   3.960  2.2825 -0.8662 -0.0465
 7339TIP3   OH221980   2.102   2.126   0.475  0.1363 -0.5243  0.2933
 7339TIP3    H121981   2.031   2.101   0.416  0.6765 -0.6750 -0.3101
 7339TIP3    H221982   2.137   2.207   0.437  0.8129 -0.8897  0.1180
 7340TIP3   OH221983   4.078   4.182   1.657 -0.2417 -0.4430  0.1830
 7340TIP3    H121984   4.129   4.101   1.669  1.0889  0.3681  0.2750
 7340TIP3    H221985   4.112   4.241   1.724 -1.2238  0.1925  0.1385
 7341TIP3   OH221986   0.340   4.121   3.931 -0.1311 -0.3937  0.1030
 7341TIP3    H121987   0.295   4.112   3.847 -0.2490 -2.7072  0.3431
 7341TIP3    H221988   0.418   4.172   3.911 -0.7973  0.2003 -1.1342
 7342TIP3   OH221989   4.980   5.978   2.072  0.2192  0.4436  0.2696
 7342TIP3    H121990   5.064   5.999   2.112  1.1898  1.4843 -2.1092
 7342TIP3    H221991   4.958   6.055   2.019 -0.4810 -1.1303 -1.8899
 7343TIP3   OH221992   1.939   2.339   1.891 -0.1095 -0.1308  0.1560
 7343TIP3    H121993   1.916   2.400   1.961 -2.2640 -0.0463 -0.5330
 7343TIP3    H221994   2.017   2.377   1.851 -0.3319  1.1961  0.9204
 7344TIP3   OH221995   4.522   0.674   0.514  0.0008  0.1552  0.5667
 7344TIP3    H121996   4.473   0.699   0.436 -0.8790  1.6606  1.5351
 7344TIP3    H221997   4.541   0.758   0.558  2.6161 -0.4420  0.7467
 7345TIP3   OH221998   0.175   0.487   1.240 -0.5108 -0.0651  0.5052
 7345TIP3    H121999   0.169   0.517   1.149  1.7537  1.1204  0.6788
 7345TIP3    H222000   0.205   0.396   1.234 -0.4421 -0.0151  0.0632
 7346TIP3   OH222001   0.346   6.197   4.209  0.2699  0.3372  0.3096
 7346TIP3    H122002   0.315   6.216   4.297  1.9141  1.4030  0.7188
 7346TIP3    H222003   0.337   6.280   4.162  1.6090  0.4445  0.2012
 7347TIP3   OH222004   3.563   5.528   4.500 -0.3260  0.0410  0.0953
 7347TIP3    H122005   3.638   5.588   4.506  2.6580 -3.4319  2.5025
 7347TIP3    H222006   3.491   5.576   4.541  1.7976  2.0645  1.7793
 7348TIP3   OH222007   5.267   2.592   1.370  0.0540 -0.2820 -0.3486
 7348TIP3    H122008   5.172   2.592   1.383  0.1231  0.1446  0.2024
 7348TIP3    H222009   5.303   2.559   1.452  0.3867 -0.4180 -0.5458
 7349TIP3   OH222010   4.295   3.786   3.942  0.1710  0.0699  0.3713
 7349TIP3    H122011   4.310   3.696   3.914 -1.4877 -0.3046  0.5874
 7349TIP3    H222012   4.265   3.778   4.033 -0.7178  0.7597  0.1570
 7350TIP3   OH222013   4.428   3.553   3.534 -0.3478 -0.3693  0.0953
 7350TIP3    H122014   4.522   3.541   3.550 -0.2866 -0.9412 -0.6367
 7350TIP3    H222015   4.423   3.577   3.441 -1.1212 -3.2700 -0.7215
 7351TIP3   OH222016   4.836   0.937   1.269 -0.7451 -0.6217 -0.4687
 7351TIP3    H122017   4.799   0.854   1.299 -1.8256 -0.7409 -2.0206
 7351TIP3    H222018   4.924   0.915   1.240 -1.4554 -1.5301 -2.0634
 7352TIP3   OH222019   4.700   6.037   4.332 -0.2533 -0.4341 -0.6916
 7352TIP3    H122020   4.634   6.054   4.265 -1.4379  1.3333  0.8205
 7352TIP3    H222021   4.659   5.972   4.389  0.3110 -1.1173 -1.0490
 7353TIP3   OH222022   4.390   1.283   1.685 -0.0822  0.7236  0.0539
 7353TIP3    H122023   4.388   1.364   1.634  2.4827  0.3316 -0.8156
 7353TIP3    H222024   4.298   1.267   1.707 -1.3607  1.2113 -4.0165
 7354TIP3   OH222025   5.393   0.466   3.208  0.0664 -0.0782 -0.6425
 7354TIP3    H122026   5.361   0.548   3.170 -0.3122  0.2964  0.4557
 7354TIP3    H222027   5.389   0.404   3.135 -2.1415  0.2259 -0.8658
 7355TIP3   OH222028   3.380   0.164   2.057  0.7723 -0.6957 -0.2891
 7355TIP3    H122029   3.393   0.200   2.144 -1.1367 -0.2268 -0.1705
 7355TIP3    H222030   3.442   0.091   2.052  0.8488 -0.7834  1.4868
 7356TIP3   OH222031   6.381   0.284   5.494  0.4090  0.3716  0.3782
 7356TIP3    H122032   6.371   0.350   5.562  2.0472 -0.5703  1.6210
 7356TIP3    H222033   6.476   0.276   5.483  0.1802  0.4295 -1.9814
 7357TIP3   OH222034   5.520   1.300   3.384 -0.2924 -0.1369  0.4648
 7357TIP3    H122035   5.495   1.391   3.398 -2.1822 -0.2283 -1.7579
 7357TIP3    H222036   5.593   1.303   3.323 -1.7445 -0.0959 -1.3470
 7358TIP3   OH222037   6.423   5.661   3.475  0.3835  0.3213  0.5271
 7358TIP3    H122038   6.452   5.743   3.434 -0.8059  0.0415 -1.0056
 7358TIP3    H222039   6.360   5.688   3.541 -0.1288  0.6608 -0.0849
 7359TIP3   OH222040   0.525   1.540   3.379 -0.4716  0.6765 -0.1103
 7359TIP3    H122041   0.494   1.622   3.418  0.1862  0.7623  0.2561
 7359TIP3    H222042   0.621   1.548   3.381 -0.3018  2.0091 -4.4311
 7360TIP3   OH222043   2.380   1.397   2.529  0.2790 -0.2839  0.1206
 7360TIP3    H122044   2.452   1.443   2.573  0.4311  0.3643 -0.7892
 7360TIP3    H222045   2.308   1.460   2.529  0.9996  0.6870 -2.6343
 7361TIP3   OH222046   4.086   4.340   5.444 -0.0488  0.1110 -0.0207
 7361TIP3    H122047   4.068   4.253   5.409  0.2676  0.8923 -2.3163
 7361TIP3    H222048   4.162   4.328   5.502 -0.0712 -1.1462 -0.2329
 7362TIP3   OH222049   5.325   2.182   2.506 -0.7529 -0.2424  0.2149
 7362TIP3    H122050   5.275   2.180   2.424 -0.3137  1.6839 -0.1626
 7362TIP3    H222051   5.267   2.224   2.569 -0.2857  0.3993  0.2394
 7363TIP3   OH222052   7.033   4.757   4.517  0.0187  0.4020  0.3165
 7363TIP3    H122053   7.006   4.790   4.431 -2.5325  2.6308  1.8186
 7363TIP3    H222054   7.128   4.771   4.518  0.2347 -0.2663 -2.3174
 7364TIP3   OH222055   1.103   3.421   5.545  0.6564  0.3413  0.3788
 7364TIP3    H122056   1.164   3.472   5.598 -0.3261  1.8195  0.1493
 7364TIP3    H222057   1.037   3.484   5.517 -0.1069 -0.8835 -0.7038
 7365TIP3   OH222058   0.946   1.530   0.771 -0.0953  0.3705 -0.2151
 7365TIP3    H122059   0.986   1.611   0.803  1.3246 -0.0889 -0.7462
 7365TIP3    H222060   1.020   1.473   0.750 -1.0724 -1.3622  0.8434
 7366TIP3   OH222061   0.624   2.925   1.075 -0.1847  0.3511 -0.7720
 7366TIP3    H122062   0.545   2.939   1.126  0.6681 -0.8777  0.9519
 7366TIP3    H222063   0.633   3.006   1.023 -2.4765  0.5455 -0.9637
 7367TIP3   OH222064   5.035   3.940   3.033  0.1785 -0.0344  0.1200
 7367TIP3    H122065   5.017   3.922   2.941 -0.0195  0.6619  0.0117
 7367TIP3    H222066   5.005   3.862   3.079 -0.1260 -0.2094 -0.3675
 7368TIP3   OH222067   3.667   5.296   2.119 -0.0212  0.7997 -0.6510
 7368TIP3    H122068   3.631   5.239   2.187  0.7608  0.8922 -0.1506
 7368TIP3    H222069   3.759   5.269   2.111 -0.2331  0.3720 -2.0990
 7369TIP3   OH222070   4.801   4.019   3.802  0.0655 -0.5800  0.1568
 7369TIP3    H122071   4.785   4.064   3.885  0.1524  0.4215 -0.3507
 7369TIP3    H222072   4.720   3.970   3.786 -1.4149  1.9544 -0.8411
 7370TIP3   OH222073   0.063   3.320   2.849 -0.0216 -0.0470  0.3738
 7370TIP3    H122074   0.014   3.294   2.771  0.0944  3.6549 -1.1309
 7370TIP3    H222075   0.153   3.331   2.819  0.4069 -0.3093  1.5038
 7371TIP3   OH222076   6.994   3.494   3.699 -0.1121  0.0191 -0.2899
 7371TIP3    H122077   7.083   3.497   3.733 -0.0731  0.8028 -0.4411
 7371TIP3    H222078   6.984   3.406   3.663  0.0633 -0.6280  1.1731
 7372TIP3   OH222079   0.206   0.456   0.130 -0.1926 -0.0244 -0.3227
 7372TIP3    H122080   0.182   0.369   0.162 -1.8038  0.0185 -1.3024
 7372TIP3    H222081   0.183   0.515   0.202 -0.2903 -0.2928 -0.1334
 7373TIP3   OH222082   6.104   4.294   2.681  0.0603 -0.2566 -0.3261
 7373TIP3    H122083   6.191   4.256   2.679 -0.2718 -1.7049  3.8014
 7373TIP3    H222084   6.119   4.386   2.704  0.5424 -0.0456 -1.4489
 7374TIP3   OH222085   4.634   3.136   4.425 -0.7124 -0.1108  0.1224
 7374TIP3    H122086   4.672   3.191   4.356 -1.8548  1.2427  0.5371
 7374TIP3    H222087   4.605   3.057   4.379  1.0900 -0.4876 -0.4573
 7375TIP3   OH222088   5.302   0.242   5.872  0.7062  0.3641 -0.3763
 7375TIP3    H122089   5.261   0.166   5.913  0.2282  0.9017  0.1601
 7375TIP3    H222090   5.243   0.265   5.800  1.7789 -0.8567 -1.6859
 7376TIP3   OH222091   6.862   1.706   4.767 -0.4481  0.4201 -0.2412
 7376TIP3    H122092   6.937   1.744   4.722 -0.6247  1.2759  0.1863
 7376TIP3    H222093   6.786   1.746   4.725 -0.7335 -1.2405 -1.4136
 7377TIP3   OH222094   1.040   4.476   4.341 -0.5785 -0.3630  0.3169
 7377TIP3    H122095   1.047   4.568   4.314 -0.2641 -0.4787  0.0038
 7377TIP3    H222096   1.124   4.456   4.381 -0.4047 -0.7075 -0.2128
 7378TIP3   OH222097   4.800   2.414   4.559 -0.6470  0.6696 -0.2079
 7378TIP3    H122098   4.722   2.412   4.504 -2.3080  0.6950  2.0187
 7378TIP3    H222099   4.791   2.338   4.616  0.6006  1.0919  0.5852
 7379TIP3   OH222100   3.381   5.513   5.089  0.0278  0.1954 -0.0145
 7379TIP3    H122101   3.356   5.558   5.008 -1.5446  0.3524  0.5295
 7379TIP3    H222102   3.444   5.572   5.131  0.0883  0.5782 -0.6358
 7380TIP3   OH222103   0.211   5.793   0.542 -0.4802 -0.3885  0.0348
 7380TIP3    H122104   0.293   5.744   0.533 -0.2564 -0.0333  0.1162
 7380TIP3    H222105   0.218   5.835   0.628 -0.1013  0.8130 -0.5576
 7381TIP3   OH222106   1.909   1.025   3.008 -0.0814  0.0658 -0.6977
 7381TIP3    H122107   1.868   1.023   2.922 -1.0238  1.4763 -0.3194
 7381TIP3    H222108   1.835   1.028   3.069  0.5358  2.0497  0.0287
 7382TIP3   OH222109   7.050   0.653   0.412 -0.1150 -0.2709  0.5090
 7382TIP3    H122110   7.106   0.576   0.421  0.1875 -0.1390 -0.1801
 7382TIP3    H222111   6.963   0.618   0.393  0.3044 -0.4422 -1.2900
 7383TIP3   OH222112   0.852   6.146   2.720  0.2127  0.9290  0.1877
 7383TIP3    H122113   0.775   6.152   2.778  1.2022  0.6985  1.5680
 7383TIP3    H222114   0.926   6.163   2.777  1.5859 -2.9081 -0.1189
 7384TIP3   OH222115   1.063   4.219   5.565  0.2469  0.9144 -0.0438
 7384TIP3    H122116   0.999   4.148   5.577 -0.0445  1.1856  0.0429
 7384TIP3    H222117   1.087   4.215   5.473  0.1332  0.7836 -0.0683
 7385TIP3   OH222118   6.001   2.064   1.868 -0.1505 -0.6623 -0.2068
 7385TIP3    H122119   6.085   2.097   1.900 -0.0382 -1.1914  0.0661
 7385TIP3    H222120   5.936   2.103   1.927  0.0100 -1.1964  0.3400
 7386TIP3   OH222121   6.765   6.398   0.707  0.4517 -0.1698 -0.1679
 7386TIP3    H122122   6.850   6.411   0.665  0.8031 -1.3096  0.1453
 7386TIP3    H222123   6.765   6.460   0.780  0.5286  0.6516 -0.8591
 7387TIP3   OH222124   3.065   2.679   1.573  0.1407 -0.1408  0.1955
 7387TIP3    H122125   3.005   2.673   1.498  0.2495 -0.5140  0.1332
 7387TIP3    H222126   3.122   2.602   1.563 -0.7177 -0.9639  1.4231
 7388TIP3   OH222127   3.915   1.581   2.302  0.9461  0.4038  0.1068
 7388TIP3    H122128   3.840   1.615   2.351  1.2928  2.0674 -0.4460
 7388TIP3    H222129   3.882   1.503   2.258 -0.3764  0.9392  0.1165
 7389TIP3   OH222130   4.160   2.947   1.949 -0.1243  0.6522  0.0421
 7389TIP3    H122131   4.198   3.019   2.000  0.6411 -1.0654  2.0248
 7389TIP3    H222132   4.236   2.908   1.904 -0.3968  0.5345 -0.3187
 7390TIP3   OH222133   1.115   3.224   5.747  0.0633  0.7512 -0.1161
 7390TIP3    H122134   1.094   3.276   5.669  1.9972  1.4237 -0.2601
 7390TIP3    H222135   1.162   3.285   5.804  2.3137 -0.7456 -0.2405
 7391TIP3   OH222136   1.165   5.165   5.456 -0.1926  0.1173 -0.4292
 7391TIP3    H122137   1.207   5.193   5.375  0.8420 -0.1569 -0.0036
 7391TIP3    H222138   1.089   5.114   5.427 -0.6133  1.1585 -1.2099
 7392TIP3   OH222139   1.862   3.315   1.454  0.0014 -1.1408 -0.2020
 7392TIP3    H122140   1.925   3.361   1.509 -2.1028  1.1143  0.4674
 7392TIP3    H222141   1.858   3.368   1.374 -0.8502 -1.4041 -0.3379
 7393TIP3   OH222142   6.318   2.060   2.218  0.1083  0.2690  0.4975
 7393TIP3    H122143   6.407   2.045   2.251  0.2077 -1.0400 -0.2528
 7393TIP3    H222144   6.268   2.086   2.294  0.8892 -0.1449  1.1715
 7394TIP3   OH222145   2.699   5.778   4.955  1.0163 -0.6095  0.0394
 7394TIP3    H122146   2.681   5.864   4.992  1.2158  0.0015 -1.2145
 7394TIP3    H222147   2.795   5.772   4.954  1.2380  0.8716 -3.4042
 7395TIP3   OH222148   1.085   2.222   0.961 -0.0344  0.1469 -0.5811
 7395TIP3    H122149   1.081   2.128   0.949 -1.1267  0.1541 -0.3533
 7395TIP3    H222150   1.147   2.236   1.032  0.2154 -0.3880 -0.6958
 7396TIP3   OH222151   5.634   4.690   4.657  0.4431  0.1069  0.5391
 7396TIP3    H122152   5.696   4.659   4.592 -1.4841 -1.8077 -0.5381
 7396TIP3    H222153   5.682   4.689   4.739  1.4979 -2.7739  0.0055
 7397TIP3   OH222154   5.205   0.026   3.445  0.3617 -0.1590  0.0490
 7397TIP3    H122155   5.197   0.020   3.350  0.0483 -0.3270  0.0854
 7397TIP3    H222156   5.251   0.109   3.460  1.3779 -0.6529 -0.2925
 7398TIP3   OH222157   1.928   4.141   2.751 -0.7227 -0.4602 -0.3005
 7398TIP3    H122158   1.907   4.231   2.775 -0.8880 -1.1292  2.5182
 7398TIP3    H222159   2.023   4.135   2.757 -0.7155 -0.4907 -0.4341
 7399TIP3   OH222160   3.355   5.854   0.317 -0.4066 -0.4131 -0.6593
 7399TIP3    H122161   3.375   5.814   0.233  0.2322  0.3329 -0.8811
 7399TIP3    H222162   3.421   5.820   0.377  0.6235  0.8368 -1.0245
 7400TIP3   OH222163   0.288   2.414   1.820  0.4581  0.0585 -0.1398
 7400TIP3    H122164   0.222   2.453   1.764  0.2591  0.0891  0.1147
 7400TIP3    H222165   0.340   2.488   1.853 -0.5423  0.2320  1.1473
 7401TIP3   OH222166   0.440   1.730   2.875  0.0484  0.0854  0.0948
 7401TIP3    H122167   0.383   1.706   2.949  0.4788 -0.2294  0.3297
 7401TIP3    H222168   0.525   1.693   2.898 -0.1329 -1.2059 -1.2047
 7402TIP3   OH222169   4.423   1.723   0.101  0.3813  0.0493 -0.1845
 7402TIP3    H122170   4.345   1.710   0.046  0.3104 -1.3271  0.2088
 7402TIP3    H222171   4.388   1.752   0.185  0.1901 -1.4708  0.2902
 7403TIP3   OH222172   6.023   0.406   2.293  0.6515 -0.5732 -0.0829
 7403TIP3    H122173   5.941   0.441   2.257  0.0059 -0.7310  1.1997
 7403TIP3    H222174   6.078   0.483   2.307 -0.4651 -0.0999  1.9840
 7404TIP3   OH222175   6.290   4.073   5.223  0.1396  0.1961 -0.0580
 7404TIP3    H122176   6.236   3.998   5.200 -1.8293  1.2762  0.8104
 7404TIP3    H222177   6.365   4.036   5.269 -1.6989 -1.1643  2.0224
 7405TIP3   OH222178   4.980   5.424   5.827 -0.0268  0.1267 -0.1476
 7405TIP3    H122179   4.920   5.404   5.755 -0.4009  1.8377 -0.3457
 7405TIP3    H222180   5.067   5.402   5.793 -0.2345  0.6243 -1.0087
 7406TIP3   OH222181   5.098   0.910   1.146  0.0004 -0.0192 -0.2104
 7406TIP3    H122182   5.097   0.867   1.060 -1.0496 -0.3532 -0.0470
 7406TIP3    H222183   5.173   0.871   1.191  1.2066  0.9118 -1.3304
 7407TIP3   OH222184   4.889   1.093   4.924 -0.2739  0.3372  0.4587
 7407TIP3    H122185   4.949   1.019   4.918 -0.0379  0.5368  0.3317
 7407TIP3    H222186   4.844   1.094   4.840 -0.5589  0.1029  0.6055
 7408TIP3   OH222187   5.057   2.019   1.237  0.1930  0.5861 -0.0750
 7408TIP3    H122188   5.061   1.968   1.318  1.7891 -1.2761 -1.2309
 7408TIP3    H222189   5.133   2.078   1.242 -0.3378  1.2659  0.2326
 7409TIP3   OH222190   6.413   3.655   0.766  0.1698  0.2602 -0.0150
 7409TIP3    H122191   6.452   3.654   0.853 -2.1398 -2.6055  1.1344
 7409TIP3    H222192   6.340   3.717   0.772 -0.0984 -0.0693  0.1667
 7410TIP3   OH222193   2.496   1.800   2.457  0.4403 -0.3585 -0.4163
 7410TIP3    H122194   2.516   1.888   2.425  1.4064 -0.8080 -1.1090
 7410TIP3    H222195   2.412   1.779   2.417  1.0126 -0.3967 -1.6646
 7411TIP3   OH222196   3.558   4.289   1.698  0.1842 -0.8302 -0.4138
 7411TIP3    H122197   3.537   4.317   1.788 -1.1572  2.3023 -1.5662
 7411TIP3    H222198   3.651   4.305   1.689 -0.0153  0.6377 -0.1035
 7412TIP3   OH222199   3.757   5.742   0.695 -0.2230 -0.1795  0.3066
 7412TIP3    H122200   3.743   5.652   0.726 -0.2145 -0.4731 -0.4941
 7412TIP3    H222201   3.776   5.792   0.774  1.8441 -1.2784  0.5869
 7413TIP3   OH222202   5.988   1.348   5.267  0.4130  0.5089  0.5748
 7413TIP3    H122203   5.968   1.358   5.174 -0.1876 -0.2247  0.6200
 7413TIP3    H222204   5.942   1.420   5.309  0.4971  0.7056  0.3385
 7414TIP3   OH222205   4.249   6.577   4.401 -0.3950 -0.5658  0.0516
 7414TIP3    H122206   4.272   6.491   4.436  2.1833 -0.5596 -1.3787
 7414TIP3    H222207   4.163   6.595   4.438 -0.4031 -3.1056  1.5498
 7415TIP3   OH222208   5.670   2.931   0.602  0.1384 -0.0920  0.0145
 7415TIP3    H122209   5.754   2.958   0.639  0.1222  1.4214 -0.9485
 7415TIP3    H222210   5.605   2.954   0.669  0.2436  1.3597 -0.3445
 7416TIP3   OH222211   5.866   2.405   0.322 -0.1520 -0.0573 -0.0586
 7416TIP3    H122212   5.797   2.349   0.288 -0.6611  0.8175 -0.4932
 7416TIP3    H222213   5.925   2.346   0.368 -0.5967 -0.9649 -0.6429
 7417TIP3   OH222214   7.201   3.390   3.479 -0.4616  0.1338 -0.0792
 7417TIP3    H122215   7.146   3.461   3.512 -0.2692  0.6101 -0.7720
 7417TIP3    H222216   7.263   3.432   3.421 -0.5927 -0.6457 -0.8114
 7418TIP3   OH222217   3.249   5.536   2.368 -0.2252 -0.1275  0.0201
 7418TIP3    H122218   3.222   5.519   2.458 -1.4647 -0.3192 -0.3687
 7418TIP3    H222219   3.303   5.461   2.344  0.3181  0.0475  0.6788
 7419TIP3   OH222220   6.654   1.632   3.341  0.1560  0.2556 -0.0510
 7419TIP3    H122221   6.571   1.628   3.388  0.6196  1.3135  0.9015
 7419TIP3    H222222   6.651   1.558   3.280 -0.9352 -0.4775  0.8597
 7420TIP3   OH222223   6.228   4.511   2.407  0.2925 -0.1516  0.2238
 7420TIP3    H122224   6.165   4.488   2.338  0.6892 -1.6487  0.3257
 7420TIP3    H222225   6.175   4.558   2.472 -0.7660 -1.4614  0.3497
 7421TIP3   OH222226   2.572   4.000   3.286  0.3589  0.0050 -0.2598
 7421TIP3    H122227   2.578   3.905   3.277  0.8589  0.2027 -2.6748
 7421TIP3    H222228   2.545   4.031   3.200 -0.7383  2.0083  0.7305
 7422TIP3   OH222229   6.233   1.643   5.134  0.1024  0.4770 -0.4864
 7422TIP3    H122230   6.208   1.687   5.053 -1.6177  1.7080  0.6549
 7422TIP3    H222231   6.161   1.661   5.195  1.3273 -0.4228  1.3183
 7423TIP3   OH222232   1.665   3.315   5.253  0.0935  0.2443  0.1435
 7423TIP3    H122233   1.630   3.319   5.342  0.5579  1.6647  0.2817
 7423TIP3    H222234   1.753   3.353   5.260  0.8564 -1.2805 -0.5945
 7424TIP3   OH222235   0.358   2.627   5.379  0.4789  0.8078 -0.1029
 7424TIP3    H122236   0.435   2.654   5.328  0.0018  3.2512  0.3409
 7424TIP3    H222237   0.328   2.707   5.421 -1.5561 -0.3474  0.7939
 7425TIP3   OH222238   1.301   3.850   5.774 -0.6061 -0.0167 -0.2219
 7425TIP3    H122239   1.378   3.811   5.817 -0.1931 -0.6423 -1.4717
 7425TIP3    H222240   1.335   3.931   5.734 -0.7882  0.1246 -0.0908
 7426TIP3   OH222241   2.220   2.868   4.364  0.5912 -0.2394 -0.4680
 7426TIP3    H122242   2.315   2.858   4.375  0.5607 -1.5039 -1.1894
 7426TIP3    H222243   2.203   2.838   4.275 -0.4190  0.5599 -0.5578
 7427TIP3   OH222244   4.031   1.842   4.530 -0.1221 -0.0516  0.7934
 7427TIP3    H122245   4.123   1.869   4.529  0.0696 -0.5944 -1.3521
 7427TIP3    H222246   3.987   1.909   4.478 -0.6692 -0.6251  0.5191
 7428TIP3   OH222247   6.462   3.012   4.500  0.2565  0.0293  0.0408
 7428TIP3    H122248   6.524   3.071   4.542  1.5610 -2.2079  1.4149
 7428TIP3    H222249   6.516   2.954   4.446 -0.5810 -1.9913  1.2883
 7429TIP3   OH222250   6.629   4.473   1.011  0.2467 -0.5339 -0.1874
 7429TIP3    H122251   6.614   4.499   1.102 -1.6238  0.0827 -0.6269
 7429TIP3    H222252   6.707   4.522   0.984  0.4497 -0.2496  0.8863
 7430TIP3   OH222253   4.679   6.416   0.480 -0.2624 -0.2238 -0.2021
 7430TIP3    H122254   4.762   6.448   0.517 -0.7721  0.5181  0.3254
 7430TIP3    H222255   4.630   6.496   0.458  0.2201 -0.6192 -3.0051
 7431TIP3   OH222256   4.957   4.880   2.521  0.1988 -0.0524  0.0438
 7431TIP3    H122257   5.027   4.848   2.464 -0.0550 -0.0938 -0.2498
 7431TIP3    H222258   4.876   4.859   2.474  0.0307  1.7498 -0.5521
 7432TIP3   OH222259   6.527   1.897   4.986  0.2352 -0.6603  0.0551
 7432TIP3    H122260   6.453   1.860   4.937 -0.7436 -0.6639  1.4777
 7432TIP3    H222261   6.590   1.825   4.992  0.4262 -0.6317 -1.2539
 7433TIP3   OH222262   0.079   2.867   0.479  0.1344  0.2633  0.1923
 7433TIP3    H122263   0.146   2.876   0.412 -1.6641  0.4898 -1.6791
 7433TIP3    H222264   0.012   2.931   0.454 -1.5454 -1.0941  0.9942
 7434TIP3   OH222265   4.218   1.924   1.275  0.7552  0.3053 -0.3827
 7434TIP3    H122266   4.225   1.839   1.231 -1.0941 -0.3173  0.4226
 7434TIP3    H222267   4.261   1.911   1.359 -1.3685 -0.5744  0.6465
 7435TIP3   OH222268   6.689   0.805   2.522  0.3568  0.5444  0.4827
 7435TIP3    H122269   6.715   0.724   2.567  3.3594  1.5095  0.6455
 7435TIP3    H222270   6.685   0.780   2.430  0.2419 -0.0076  0.6297
 7436TIP3   OH222271   2.665   4.015   3.930 -0.0707 -0.0764  0.3230
 7436TIP3    H122272   2.670   3.951   4.001 -1.4346 -0.5030  0.0619
 7436TIP3    H222273   2.640   4.097   3.973  1.5507  0.2766  0.6408
 7437TIP3   OH222274   3.024   0.900   0.191  0.2721 -0.2641 -0.5383
 7437TIP3    H122275   3.116   0.904   0.216 -0.3164 -0.8327  1.9456
 7437TIP3    H222276   3.013   0.812   0.156  1.5335  1.1217 -5.1443
 7438TIP3   OH222277   1.824   2.857   4.440  0.4791  0.3690 -0.3765
 7438TIP3    H122278   1.780   2.851   4.355 -1.6169  1.6755  0.5458
 7438TIP3    H222279   1.880   2.934   4.432 -1.8312  2.1936  0.2685
 7439TIP3   OH222280   1.232   2.907   0.234 -0.0089 -0.0805 -0.2207
 7439TIP3    H122281   1.309   2.870   0.190  0.6630  0.0057  0.8609
 7439TIP3    H222282   1.220   2.993   0.194  1.0585  0.3154  0.3013
 7440TIP3   OH222283   4.788   4.416   0.330 -0.2506 -0.3549  0.4202
 7440TIP3    H122284   4.741   4.353   0.385 -0.1409 -2.0670 -1.3493
 7440TIP3    H222285   4.804   4.369   0.248  0.9116  1.5966 -0.5358
 7441TIP3   OH222286   2.712   3.556   0.627  0.4530  0.1112 -0.0384
 7441TIP3    H122287   2.660   3.480   0.654  0.0644 -0.2863 -1.7869
 7441TIP3    H222288   2.765   3.576   0.704 -0.3456 -1.1404  0.8963
 7442TIP3   OH222289   1.075   2.630   4.825 -0.4731  0.5864 -0.2081
 7442TIP3    H122290   1.151   2.654   4.879 -0.9861 -0.1027  0.8677
 7442TIP3    H222291   1.112   2.605   4.741  0.7204 -1.4866  0.8557
 7443TIP3   OH222292   3.804   5.388   0.263 -0.1074 -0.1921  0.4757
 7443TIP3    H122293   3.751   5.356   0.337 -0.2468 -0.1749  0.3837
 7443TIP3    H222294   3.843   5.310   0.226  1.1347 -0.0725  1.4590
 7444TIP3   OH222295   4.574   6.096   1.841 -0.0615 -0.3671  0.0064
 7444TIP3    H122296   4.637   6.135   1.779 -0.1495 -1.1371 -0.5783
 7444TIP3    H222297   4.562   6.006   1.810 -2.9502  0.3095 -1.0561
 7445TIP3   OH222298   5.836   2.342   1.097  0.0639 -0.4132 -0.1903
 7445TIP3    H122299   5.831   2.435   1.076 -4.9542  0.5662  3.3146
 7445TIP3    H222300   5.910   2.334   1.156  0.4468  1.4037 -0.3710
 7446TIP3   OH222301   6.920   1.257   3.811 -0.3500 -0.0812  0.0079
 7446TIP3    H122302   6.897   1.278   3.720 -0.9032  0.1679  0.2019
 7446TIP3    H222303   6.933   1.342   3.852  2.2422 -0.1870 -0.3980
 7447TIP3   OH222304   6.621   3.722   4.223  0.1535  0.2627 -0.2170
 7447TIP3    H122305   6.687   3.677   4.170  1.0597  1.5726 -0.2447
 7447TIP3    H222306   6.670   3.789   4.271 -1.2635  1.8468 -0.8871
 7448TIP3   OH222307   0.729   6.209   1.071  0.0618 -0.1555  0.1175
 7448TIP3    H122308   0.802   6.217   1.132 -0.4515 -0.1095  0.7395
 7448TIP3    H222309   0.710   6.299   1.044  0.5369 -0.2139 -0.4048
 7449TIP3   OH222310   0.490   5.246   5.464 -0.2966 -0.1505 -0.1900
 7449TIP3    H122311   0.518   5.284   5.547  2.9929  1.0152 -1.7022
 7449TIP3    H222312   0.468   5.155   5.487  2.1782 -0.3853  1.7501
 7450TIP3   OH222313   0.835   5.409   4.903 -0.8104  0.1949  0.4576
 7450TIP3    H122314   0.839   5.314   4.889  0.8285  0.3845 -0.6761
 7450TIP3    H222315   0.808   5.445   4.818  1.1346  0.8704  0.0732
 7451TIP3   OH222316   5.076   3.142   0.668 -0.4313  0.5311  0.0396
 7451TIP3    H122317   5.098   3.140   0.575 -2.7751  2.5520 -0.6554
 7451TIP3    H222318   5.008   3.209   0.676 -3.3548 -2.3610  2.5273
 7452TIP3   OH222319   5.261   0.001   1.378 -0.0886  0.7788  0.3731
 7452TIP3    H122320   5.265   0.027   1.286  0.8245 -3.3419 -0.9847
 7452TIP3    H222321   5.349   0.018   1.411  0.8646 -1.3600 -0.8366
 7453TIP3   OH222322   2.582   5.424   3.491 -0.6170 -0.2829  0.0246
 7453TIP3    H122323   2.565   5.404   3.583 -1.7586 -0.7197 -0.2614
 7453TIP3    H222324   2.600   5.518   3.490 -1.6881 -0.0479  0.5766
 7454TIP3   OH222325   4.938   1.612   1.342  0.1031 -0.1046 -0.1492
 7454TIP3    H122326   4.901   1.641   1.259 -2.2071 -0.7499  0.5686
 7454TIP3    H222327   4.940   1.516   1.335  1.5088 -0.1038 -0.0666
 7455TIP3   OH222328   0.472   5.117   2.286 -0.7280 -0.0270 -0.7965
 7455TIP3    H122329   0.430   5.035   2.313 -0.2796 -0.4551 -1.3912
 7455TIP3    H222330   0.400   5.171   2.255 -0.7995 -1.0039 -2.4392
 7456TIP3   OH222331   3.911   1.010   5.339  0.0494 -0.3548  0.0679
 7456TIP3    H122332   3.998   0.982   5.366 -0.6068 -0.5976  2.0548
 7456TIP3    H222333   3.878   1.063   5.411 -1.7040 -0.7949 -0.3418
 7457TIP3   OH222334   0.727   3.995   5.028  0.0978  0.0222  0.3511
 7457TIP3    H122335   0.753   4.033   4.943  1.7745 -0.6618  0.5176
 7457TIP3    H222336   0.762   4.056   5.093 -0.0905 -0.1033  0.5720
 7458TIP3   OH222337   3.487   5.022   5.768 -0.3917  0.5685 -0.2135
 7458TIP3    H122338   3.450   5.062   5.689  0.1201 -0.9733 -1.2737
 7458TIP3    H222339   3.581   5.019   5.752 -0.4880 -2.0338 -0.7101
 7459TIP3   OH222340   5.122   3.662   3.426 -0.3407  1.0664 -0.0033
 7459TIP3    H122341   5.138   3.722   3.498  1.2441  1.9296 -1.0179
 7459TIP3    H222342   5.178   3.694   3.355 -0.6762 -0.6583 -1.1100
 7460TIP3   OH222343   6.772   6.148   2.406 -0.3925  0.4532 -0.0562
 7460TIP3    H122344   6.728   6.088   2.467  0.5510  0.6216  0.8141
 7460TIP3    H222345   6.701   6.182   2.351 -0.9797 -1.3145 -0.4699
 7461TIP3   OH222346   0.762   3.922   0.570 -0.2939 -0.1569  0.1741
 7461TIP3    H122347   0.813   3.843   0.583  1.0934  0.7430  0.4339
 7461TIP3    H222348   0.770   3.970   0.653 -0.1725  0.7734 -0.3598
 7462TIP3   OH222349   3.116   0.649   2.881 -0.3520  0.1943 -0.2900
 7462TIP3    H122350   3.114   0.688   2.794 -2.6282  1.3150  0.1894
 7462TIP3    H222351   3.113   0.724   2.940 -2.5874 -0.5671  0.6861
 7463TIP3   OH222352   5.933   3.693   4.668  0.0908  0.0183 -0.6009
 7463TIP3    H122353   6.025   3.672   4.684 -0.0001 -0.5406 -0.7799
 7463TIP3    H222354   5.930   3.723   4.577 -0.2455 -2.2783 -1.4277
 7464TIP3   OH222355   6.889   6.576   2.768  0.0121 -0.4256  0.6462
 7464TIP3    H122356   6.958   6.533   2.819  0.6250 -0.5830 -0.2905
 7464TIP3    H222357   6.915   6.668   2.764 -0.5662 -0.2106  1.4508
 7465TIP3   OH222358   2.334   1.192   4.827 -0.2392 -0.5227  0.4473
 7465TIP3    H122359   2.296   1.258   4.886  0.0531 -1.0782  1.2622
 7465TIP3    H222360   2.424   1.181   4.857 -0.5045 -1.8580  0.8277
 7466TIP3   OH222361   3.140   4.942   5.437 -0.3847  0.7356 -0.8241
 7466TIP3    H122362   3.077   4.879   5.470  1.6617 -0.3954  1.1934
 7466TIP3    H222363   3.195   4.891   5.376  0.1414  1.0384 -0.6061
 7467TIP3   OH222364   5.281   5.056   0.890 -0.2431 -0.7869  0.5579
 7467TIP3    H122365   5.235   5.044   0.973 -1.3591  1.8137  0.3922
 7467TIP3    H222366   5.217   5.034   0.823 -0.5913  0.7107  0.3657
 7468TIP3   OH222367   5.825   6.670   1.627 -0.6870 -0.0610 -0.1059
 7468TIP3    H122368   5.919   6.670   1.645 -0.5149 -0.5771 -0.9484
 7468TIP3    H222369   5.799   6.578   1.633 -1.6932  0.2814  2.6886
 7469TIP3   OH222370   6.086   1.263   0.353  0.3496 -0.4889  0.6061
 7469TIP3    H122371   6.051   1.179   0.324  1.6762 -1.2114  1.0332
 7469TIP3    H222372   6.107   1.250   0.446  0.9310  0.1923  0.5787
 7470TIP3   OH222373   2.798   1.895   2.120 -0.1381  0.5187  0.0877
 7470TIP3    H122374   2.888   1.886   2.153 -0.3097  0.7964  0.6559
 7470TIP3    H222375   2.747   1.832   2.170 -0.5716  1.5959  1.0607
 7471TIP3   OH222376   4.658   3.173   0.772  0.8885  0.5690  0.4104
 7471TIP3    H122377   4.692   3.189   0.860  0.4426 -0.2597  0.7461
 7471TIP3    H222378   4.713   3.103   0.737  2.4880  2.3618 -0.8409
 7472TIP3   OH222379   6.259   5.943   1.775  0.4428  0.6334  0.0475
 7472TIP3    H122380   6.163   5.941   1.765  0.5671 -0.5154 -1.2351
 7472TIP3    H222381   6.279   5.864   1.825  0.6904  1.1112  0.7095
 7473TIP3   OH222382   4.785   6.126   0.665 -0.1232  0.3234  0.5232
 7473TIP3    H122383   4.773   6.043   0.618 -1.5058  0.2246  1.0105
 7473TIP3    H222384   4.776   6.193   0.597 -2.2693  0.1869  0.6339
 7474TIP3   OH222385   5.934   4.195   3.200 -0.0034 -0.3951  0.0716
 7474TIP3    H122386   5.847   4.223   3.227  0.0722 -1.0366  1.0390
 7474TIP3    H222387   5.932   4.100   3.206  0.3204 -0.5156 -1.3328
 7475TIP3   OH222388   4.182   2.819   4.841 -0.1385  0.0314  0.1845
 7475TIP3    H122389   4.236   2.753   4.884  0.5345 -0.8075 -1.8324
 7475TIP3    H222390   4.216   2.824   4.752 -0.8372  2.4035 -0.0231
 7476TIP3   OH222391   0.171   3.021   1.791 -0.0845  0.1071  0.2102
 7476TIP3    H122392   0.118   2.946   1.764 -2.4877  0.6479  2.8521
 7476TIP3    H222393   0.132   3.096   1.746 -1.0324  0.3660  1.3891
 7477TIP3   OH222394   4.768   1.655   1.144 -0.2137 -0.3142  0.0175
 7477TIP3    H122395   4.676   1.663   1.169 -0.7395  0.2752 -1.8983
 7477TIP3    H222396   4.791   1.741   1.109  0.3460 -1.1062 -1.6630
 7478TIP3   OH222397   3.163   5.156   5.211 -0.0730  0.2385  0.4805
 7478TIP3    H122398   3.248   5.189   5.179 -0.3680  2.1507  1.5117
 7478TIP3    H222399   3.177   5.062   5.222  1.1948  0.1082 -1.5418
 7479TIP3   OH222400   1.803   5.538   4.059 -0.2120  0.1243  0.1650
 7479TIP3    H122401   1.755   5.565   3.980 -0.2504  1.3447  0.5936
 7479TIP3    H222402   1.735   5.516   4.122 -0.1949  0.5391  0.3283
 7480TIP3   OH222403   1.433   1.482   3.602  0.6932 -0.1889  0.2356
 7480TIP3    H122404   1.470   1.396   3.584 -0.6639 -0.7523 -0.0029
 7480TIP3    H222405   1.359   1.465   3.661  0.1653  0.7589 -0.1273
 7481TIP3   OH222406   4.840   5.298   4.693 -0.0759  0.2670  0.0817
 7481TIP3    H122407   4.866   5.387   4.670 -2.4264  0.6047 -1.6737
 7481TIP3    H222408   4.809   5.305   4.783 -0.2073  1.2210 -0.0250
 7482TIP3   OH222409   7.101   1.523   0.446  0.2504 -0.4023  0.1257
 7482TIP3    H122410   7.091   1.448   0.387  2.5080 -1.1051  0.5160
 7482TIP3    H222411   7.135   1.593   0.390 -1.5284  0.2615 -0.1696
 7483TIP3   OH222412   1.627   3.491   4.769 -0.0221  0.0188  0.1397
 7483TIP3    H122413   1.657   3.447   4.690  0.8701 -0.6537  0.8217
 7483TIP3    H222414   1.613   3.420   4.832 -1.3696  0.4794  0.3965
 7484TIP3   OH222415   5.674   4.958   1.552  0.3818 -0.6772 -0.2409
 7484TIP3    H122416   5.652   5.013   1.627  0.5803  0.0149 -0.6861
 7484TIP3    H222417   5.706   5.019   1.485 -0.3253 -1.2186 -1.0980
 7485TIP3   OH222418   5.628   1.424   2.376  0.8117 -0.2246  0.5231
 7485TIP3    H122419   5.551   1.458   2.330  0.9630 -1.6365 -0.8488
 7485TIP3    H222420   5.654   1.495   2.434 -0.0984  1.1847 -0.7176
 7486TIP3   OH222421   4.216   2.185   4.751  0.1002 -0.4271 -0.3103
 7486TIP3    H122422   4.133   2.216   4.716 -0.7025 -3.1740 -1.0615
 7486TIP3    H222423   4.210   2.203   4.845  0.0176  2.1277 -0.7150
 7487TIP3   OH222424   6.284   5.665   0.343 -0.1859  0.4715  0.1601
 7487TIP3    H122425   6.369   5.681   0.383 -1.0281  1.5851  1.6201
 7487TIP3    H222426   6.263   5.747   0.298 -0.7001  0.3940  0.2503
 7488TIP3   OH222427   0.519   3.977   0.478  0.1273  0.3104 -0.0878
 7488TIP3    H122428   0.603   3.947   0.512 -1.1226 -0.6785  2.4163
 7488TIP3    H222429   0.533   4.069   0.455  2.1245 -0.1200 -0.7243
 7489TIP3   OH222430   6.862   0.072   3.634  0.2235  0.2779  0.3864
 7489TIP3    H122431   6.921   0.142   3.606  0.3622  0.1238  0.2945
 7489TIP3    H222432   6.844   0.023   3.554 -1.3944  1.3255  0.0474
 7490TIP3   OH222433   0.543   0.479   4.164 -0.0369  0.1496 -0.1982
 7490TIP3    H122434   0.531   0.565   4.124 -0.5269 -0.0504 -0.5023
 7490TIP3    H222435   0.555   0.420   4.090 -2.1571 -0.4150 -0.1760
 7491TIP3   OH222436   0.187   3.522   4.018 -0.1027  0.5330  0.2113
 7491TIP3    H122437   0.255   3.572   4.065  2.0521 -0.8204 -1.2882
 7491TIP3    H222438   0.147   3.467   4.085  0.1380  1.4714  1.1601
 7492TIP3   OH222439   1.177   5.129   4.598 -0.6042 -0.2513  0.8624
 7492TIP3    H122440   1.190   5.202   4.538 -0.2851 -1.1759 -0.2406
 7492TIP3    H222441   1.215   5.158   4.681  0.9289  0.2532  0.0111
 7493TIP3   OH222442   0.857   0.831   0.810 -0.5138 -0.7033 -0.4412
 7493TIP3    H122443   0.831   0.779   0.735  1.5170 -1.5582 -0.5993
 7493TIP3    H222444   0.940   0.871   0.785 -1.4802  1.8342  0.0634
 7494TIP3   OH222445   3.242   1.958   4.530  0.0122  0.3843  0.4076
 7494TIP3    H122446   3.238   2.035   4.472 -1.1327  0.2610  0.3073
 7494TIP3    H222447   3.198   1.986   4.610 -2.9791 -0.9774 -0.6279
 7495TIP3   OH222448   3.285   2.980   5.853 -0.5494  0.3620 -0.3693
 7495TIP3    H122449   3.280   3.070   5.886 -0.7603 -0.0752  0.8264
 7495TIP3    H222450   3.266   2.988   5.760  1.7926  1.8679 -0.8018
 7496TIP3   OH222451   4.984   4.644   2.741 -0.6080 -0.4735  0.1786
 7496TIP3    H122452   5.011   4.556   2.714 -1.1115 -0.6132  0.1198
 7496TIP3    H222453   5.006   4.700   2.667 -0.3219 -0.5578  0.2006
 7497TIP3   OH222454   5.790   4.252   4.838  0.0492  0.5265 -0.2804
 7497TIP3    H122455   5.780   4.242   4.743  0.3070 -2.1914 -0.1185
 7497TIP3    H222456   5.851   4.325   4.848 -2.8816  3.4453 -1.9828
 7498TIP3   OH222457   1.124   6.765   0.963  0.1695  0.5517 -0.0973
 7498TIP3    H122458   1.145   6.853   0.930 -0.6618  0.9341  0.3668
 7498TIP3    H222459   1.045   6.739   0.916 -0.2090  0.5104  0.5503
 7499TIP3   OH222460   6.126   2.770   1.987 -0.4969  0.2057 -0.1562
 7499TIP3    H122461   6.135   2.699   1.923 -0.0056 -3.4025  3.5025
 7499TIP3    H222462   6.032   2.784   1.993 -0.7842 -1.5763  0.3136
 7500TIP3   OH222463   6.228   4.095   2.954 -0.2050  0.1950 -0.0786
 7500TIP3    H122464   6.204   4.007   2.984 -1.1851  0.8735  1.1717
 7500TIP3    H222465   6.145   4.141   2.945  0.3237  1.0984 -0.4287
 7501TIP3   OH222466   6.153   6.221   0.839  0.8657 -0.2292  0.1947
 7501TIP3    H122467   6.098   6.160   0.887  0.0472  0.3083 -0.0440
 7501TIP3    H222468   6.119   6.220   0.750  0.6876  0.7385  0.2364
 7502TIP3   OH222469   6.285   3.179   4.389 -0.0691  0.5524 -0.0390
 7502TIP3    H122470   6.329   3.099   4.420 -1.1215  0.1241  0.4103
 7502TIP3    H222471   6.356   3.242   4.376  0.6123  0.1315  1.4124
 7503TIP3   OH222472   6.938   5.305   0.115  0.0283  0.5127 -0.0470
 7503TIP3    H122473   6.915   5.266   0.199  2.4212  1.3694  1.1009
 7503TIP3    H222474   6.997   5.376   0.137  2.8717 -0.8532 -2.5457
 7504TIP3   OH222475   3.158   5.501   4.015  0.6355 -0.5073 -0.0413
 7504TIP3    H122476   3.174   5.560   4.089  0.7176 -0.4201 -0.1269
 7504TIP3    H222477   3.074   5.459   4.035  1.4564 -1.7437  0.9131
 7505TIP3   OH222478   3.054   5.104   4.727 -0.5601  0.3058  0.4637
 7505TIP3    H122479   2.964   5.137   4.729 -1.2101 -1.1017 -1.7240
 7505TIP3    H222480   3.056   5.033   4.790 -1.1361  0.0477  0.1964
 7506TIP3   OH222481   6.559   3.479   5.488 -0.4823 -0.3297  0.1865
 7506TIP3    H122482   6.636   3.425   5.469 -0.6813 -0.3960 -0.4528
 7506TIP3    H222483   6.488   3.416   5.504 -0.2504 -0.2886  1.5457
 7507TIP3   OH222484   3.683   0.953   3.567  0.1061 -0.3055 -0.0247
 7507TIP3    H122485   3.681   1.001   3.650  1.9538  0.1468 -0.2057
 7507TIP3    H222486   3.697   0.862   3.592 -1.6115 -0.5273  0.2365
 7508TIP3   OH222487   3.262   4.548   1.057 -0.4973  0.0920 -0.4666
 7508TIP3    H122488   3.299   4.460   1.059 -3.2212 -1.1466  0.5370
 7508TIP3    H222489   3.227   4.561   1.145 -1.7569  1.3966 -1.1180
 7509TIP3   OH222490   4.017   5.702   5.826 -0.0545 -0.1787 -0.7096
 7509TIP3    H122491   3.990   5.652   5.749  0.8178 -0.9051 -0.5515
 7509TIP3    H222492   4.110   5.719   5.813  0.5950 -2.0362  1.0989
 7510TIP3   OH222493   1.361   5.615   5.783  0.2700  0.5488 -0.1335
 7510TIP3    H122494   1.433   5.675   5.763  0.2480  0.9818  0.9725
 7510TIP3    H222495   1.292   5.672   5.816 -0.8843  0.2271 -1.8584
 7511TIP3   OH222496   1.225   5.808   4.542  0.1993 -0.3650 -0.3808
 7511TIP3    H122497   1.189   5.728   4.580 -0.7351  0.3283  0.2630
 7511TIP3    H222498   1.227   5.792   4.447  0.6345 -1.3707 -0.2073
 7512TIP3   OH222499   0.651   2.034   5.706  0.0656  0.5871  0.2857
 7512TIP3    H122500   0.740   2.017   5.734  0.9556  0.9419 -2.0793
 7512TIP3    H222501   0.643   2.130   5.709 -0.1395  0.5729  0.2091
 7513TIP3   OH222502   1.027   1.947   1.014 -0.1387 -0.0778  0.2428
 7513TIP3    H122503   0.931   1.948   1.018 -0.1393  2.3181  1.7539
 7513TIP3    H222504   1.055   1.943   1.105  1.1635  0.3094 -0.1261
 7514TIP3   OH222505   7.025   5.484   5.627  0.4819 -0.5315 -0.0522
 7514TIP3    H122506   6.970   5.428   5.682 -1.0899  0.1764 -0.8278
 7514TIP3    H222507   7.038   5.563   5.678  2.1741 -1.3069  0.7852
 7515TIP3   OH222508   2.745   0.683   4.719 -0.4238  0.2869  0.0858
 7515TIP3    H122509   2.674   0.644   4.669 -0.2752 -1.9341  1.4273
 7515TIP3    H222510   2.719   0.671   4.811  1.4277 -0.2170  0.6122
 7516TIP3   OH222511   6.666   6.170   2.142  0.0713 -0.5776 -0.0510
 7516TIP3    H122512   6.718   6.097   2.110 -1.4706 -2.4498  1.4453
 7516TIP3    H222513   6.585   6.166   2.090 -0.1905 -0.2077  0.3182
 7517TIP3   OH222514   5.911   3.617   4.159 -0.7379 -0.0460 -0.3541
 7517TIP3    H122515   6.001   3.643   4.180 -1.1581  1.0096  0.2383
 7517TIP3    H222516   5.874   3.693   4.113 -1.2493 -0.5710 -0.8253
 7518TIP3   OH222517   2.963   3.099   3.650 -0.0987  0.5992 -0.1656
 7518TIP3    H122518   2.963   3.085   3.555 -0.0160  0.5703 -0.1610
 7518TIP3    H222519   2.893   3.041   3.682 -1.4219  2.0065 -0.4146
 7519TIP3   OH222520   3.566   0.584   1.504 -0.1817  0.1536  0.3259
 7519TIP3    H122521   3.628   0.648   1.468 -0.1519  0.8170  1.5014
 7519TIP3    H222522   3.604   0.499   1.481  0.0175  0.5370 -0.8614
 7520TIP3   OH222523   4.905   2.793   2.379  0.6718  0.1433  0.0705
 7520TIP3    H122524   4.989   2.828   2.347 -0.8200  2.2195 -1.8764
 7520TIP3    H222525   4.853   2.780   2.300 -0.4461 -2.4692  1.1172
 7521TIP3   OH222526   1.393   3.798   3.680  0.2278  0.1228  0.0336
 7521TIP3    H122527   1.431   3.824   3.596  0.2796 -1.4189 -0.4438
 7521TIP3    H222528   1.462   3.746   3.722 -0.5589 -0.8948  0.0919
 7522TIP3   OH222529   2.513   3.411   2.122  0.5509 -0.3282  0.4319
 7522TIP3    H122530   2.526   3.427   2.029 -1.6151  0.9065  0.2857
 7522TIP3    H222531   2.445   3.344   2.126 -1.1458  1.3441  1.0596
 7523TIP3   OH222532   4.371   2.062   2.226  0.9237 -0.5401 -0.0449
 7523TIP3    H122533   4.417   2.145   2.214  1.5036 -0.9767 -1.0930
 7523TIP3    H222534   4.436   1.996   2.201 -0.2036 -1.1861 -1.4426
 7524TIP3   OH222535   1.753   5.863   3.438  0.0032 -0.1095 -0.6403
 7524TIP3    H122536   1.742   5.921   3.363 -0.4893  0.4826 -0.1172
 7524TIP3    H222537   1.798   5.786   3.403 -1.0273 -0.2370 -1.7237
 7525TIP3   OH222538   4.560   6.659   1.402 -0.2207 -0.7530  0.4477
 7525TIP3    H122539   4.483   6.714   1.388 -1.6530 -2.1696  2.1375
 7525TIP3    H222540   4.617   6.711   1.459 -0.9516 -0.5108  0.9695
 7526TIP3   OH222541   6.629   3.590   0.013  0.3738 -0.0399  0.4951
 7526TIP3    H122542   6.639   3.565   0.105  0.6499 -2.8769 -0.2173
 7526TIP3    H222543   6.540   3.627   0.008  0.1872 -0.2458  1.8174
 7527TIP3   OH222544   0.794   2.350   2.261 -0.0424 -0.5171 -0.6983
 7527TIP3    H122545   0.762   2.270   2.301  0.5120 -0.3668  0.0657
 7527TIP3    H222546   0.718   2.409   2.261 -0.2590 -0.7942 -0.6024
 7528TIP3   OH222547   4.899   0.542   5.465  0.1780 -0.0978 -0.0958
 7528TIP3    H122548   4.856   0.524   5.548 -0.0899 -0.1533 -0.2467
 7528TIP3    H222549   4.834   0.519   5.398  0.3347  0.0953 -0.3168
 7529TIP3   OH222550   6.303   0.296   2.499 -0.2155 -0.3391 -0.3201
 7529TIP3    H122551   6.334   0.236   2.567 -1.8378 -0.0501  0.7376
 7529TIP3    H222552   6.256   0.240   2.437 -1.8279 -0.2249  0.7265
 7530TIP3   OH222553   0.371   0.399   5.415  0.2719  0.1040 -0.1876
 7530TIP3    H122554   0.440   0.356   5.466 -0.4261  0.6338  1.2500
 7530TIP3    H222555   0.378   0.491   5.439 -1.4673  0.0445  0.6419
 7531TIP3   OH222556   6.109   1.973   5.203  0.3843 -0.7536  0.2269
 7531TIP3    H122557   6.022   2.007   5.222  1.5742  2.3725  0.6044
 7531TIP3    H222558   6.108   1.955   5.109 -0.0023  1.5332 -0.2532
 7532TIP3   OH222559   0.491   2.265   1.713  0.4082 -0.2633  0.1183
 7532TIP3    H122560   0.538   2.232   1.790  0.6132 -0.4107 -0.0726
 7532TIP3    H222561   0.416   2.312   1.750 -0.6221 -2.0212  0.3759
 7533TIP3   OH222562   5.089   4.114   5.241 -0.2823  0.0503 -0.5793
 7533TIP3    H122563   5.107   4.172   5.315  0.0281  0.9338 -1.3298
 7533TIP3    H222564   5.128   4.158   5.166 -2.4444  0.2396 -1.6530
 7534TIP3   OH222565   5.139   4.264   1.759 -0.5637  0.2368 -0.1143
 7534TIP3    H122566   5.228   4.234   1.778 -0.8943 -1.3540 -0.8795
 7534TIP3    H222567   5.123   4.334   1.822  1.0584  0.2437  0.3326
 7535TIP3   OH222568   0.781   5.589   5.109  0.2247 -0.8803 -0.0151
 7535TIP3    H122569   0.685   5.591   5.115  0.1174 -2.9927 -0.4259
 7535TIP3    H222570   0.800   5.517   5.050  2.0583  0.7078 -1.5111
 7536TIP3   OH222571   3.070   2.955   5.409  0.1729  0.9118  0.6042
 7536TIP3    H122572   3.114   2.999   5.336  0.2791 -0.8314 -0.4370
 7536TIP3    H222573   3.140   2.934   5.471  1.0269 -2.1237 -1.1829
 7537TIP3   OH222574   2.692   3.192   5.215  0.5010  0.3737  0.2790
 7537TIP3    H122575   2.766   3.241   5.248 -0.5926  1.7186  0.8219
 7537TIP3    H222576   2.693   3.206   5.121  2.0414 -1.2424  0.0020
 7538TIP3   OH222577   1.904   0.744   5.609 -0.4329  0.2543  0.2245
 7538TIP3    H122578   1.861   0.829   5.623 -0.2826  0.3135  0.3230
 7538TIP3    H222579   1.997   0.765   5.601 -0.5783  0.3186 -1.6117
 7539TIP3   OH222580   2.834   2.652   5.493 -0.2213  0.4319 -0.0202
 7539TIP3    H122581   2.774   2.580   5.475 -1.8097  1.4041  1.1597
 7539TIP3    H222582   2.878   2.626   5.574  1.7361 -0.6993 -1.3445
 7540TIP3   OH222583   2.783   4.523   0.127 -0.2401 -0.1763 -0.0217
 7540TIP3    H122584   2.785   4.564   0.041 -0.5272  0.5018  0.2931
 7540TIP3    H222585   2.821   4.436   0.112  3.2855  1.2366 -0.0928
 7541TIP3   OH222586   2.796   2.621   2.680  0.4988 -0.2020  0.3014
 7541TIP3    H122587   2.746   2.569   2.743  0.2545 -0.0629  0.2248
 7541TIP3    H222588   2.887   2.614   2.710  0.4432 -0.5090  0.4063
 7542TIP3   OH222589   4.591   4.810   4.147 -0.1610  0.6287  0.2045
 7542TIP3    H122590   4.607   4.896   4.108  1.3305  1.6212  2.7578
 7542TIP3    H222591   4.664   4.756   4.117  0.6854  1.2287  1.1315
 7543TIP3   OH222592   5.066   5.591   3.224  0.0039  0.0465 -0.2430
 7543TIP3    H122593   5.014   5.552   3.154 -1.3076 -1.0174  1.2662
 7543TIP3    H222594   5.007   5.655   3.264  0.2182 -0.4196  0.8288
 7544TIP3   OH222595   5.857   2.582   1.511 -0.1515  0.4176 -1.0222
 7544TIP3    H122596   5.880   2.668   1.545 -0.4471  0.3639 -0.6847
 7544TIP3    H222597   5.934   2.554   1.461 -1.1907  2.3035 -3.9669
 7545TIP3   OH222598   4.912   3.794   4.559  0.2050 -0.0368  0.0155
 7545TIP3    H122599   4.883   3.881   4.584  2.0660  1.0053 -1.2592
 7545TIP3    H222600   4.831   3.742   4.556 -0.9314  1.6089  0.8114
 7546TIP3   OH222601   3.192   3.350   4.737 -0.3946  0.2837 -0.0134
 7546TIP3    H122602   3.122   3.362   4.673  0.0507 -2.7136 -1.2749
 7546TIP3    H222603   3.271   3.342   4.683 -0.0493 -2.6377  0.7290
 7547TIP3   OH222604   5.281   0.965   3.020 -0.0743  0.2227 -0.5176
 7547TIP3    H122605   5.304   1.001   3.106  1.0615  0.3270 -0.8447
 7547TIP3    H222606   5.272   1.041   2.963 -0.9961  0.1648 -0.4650
 7548TIP3   OH222607   1.477   2.787   2.316  0.0678  0.1791 -0.1305
 7548TIP3    H122608   1.498   2.700   2.349  1.6972  1.2396  1.8592
 7548TIP3    H222609   1.383   2.795   2.328 -0.2678 -1.5816 -1.1849
 7549TIP3   OH222610   1.664   2.749   0.972  0.2404  0.0081  0.1663
 7549TIP3    H122611   1.611   2.748   1.052 -1.3173 -0.3631 -0.8362
 7549TIP3    H222612   1.750   2.782   1.001 -0.5006  0.5889  1.8416
 7550TIP3   OH222613   3.769   1.411   2.119  0.2780 -0.3363  0.6494
 7550TIP3    H122614   3.710   1.341   2.090  2.3494 -1.1763 -1.9515
 7550TIP3    H222615   3.711   1.483   2.141 -1.8782 -2.3143  1.9278
 7551TIP3   OH222616   0.839   0.293   3.065 -0.5856  0.1368 -0.6741
 7551TIP3    H122617   0.847   0.386   3.047 -0.7360  1.0848  3.2360
 7551TIP3    H222618   0.791   0.288   3.148  1.0588 -3.3063  0.2894
 7552TIP3   OH222619   5.686   0.922   1.254  0.2220 -0.5772 -0.4813
 7552TIP3    H122620   5.656   0.952   1.168 -1.1424 -2.8173 -0.8658
 7552TIP3    H222621   5.757   0.862   1.235  0.6384 -0.2634  0.0457
 7553TIP3   OH222622   6.891   2.954   4.249  0.5395 -0.3525  0.1257
 7553TIP3    H122623   6.864   2.974   4.159  2.3587  0.1622 -0.3641
 7553TIP3    H222624   6.890   2.858   4.254 -0.2625 -0.3641 -0.2111
 7554TIP3   OH222625   2.208   0.624   0.870  0.1230 -0.2509  0.2628
 7554TIP3    H122626   2.275   0.655   0.930  0.2455 -1.5123  0.8096
 7554TIP3    H222627   2.202   0.692   0.803  1.3942  0.2499  0.6302
 7555TIP3   OH222628   3.797   2.801   2.863  0.6596  0.3085 -0.3251
 7555TIP3    H122629   3.825   2.710   2.850 -0.3071  0.0047 -0.3700
 7555TIP3    H222630   3.774   2.805   2.956  1.5459  0.7643 -0.1098
 7556TIP3   OH222631   2.911   0.925   1.702  0.1040 -0.0624  0.0462
 7556TIP3    H122632   2.876   0.890   1.621  1.2626 -0.1568 -0.4316
 7556TIP3    H222633   2.958   0.852   1.742  1.1027  0.4678 -0.1271
 7557TIP3   OH222634   4.332   5.567   2.709  0.3431 -0.4208 -0.4164
 7557TIP3    H122635   4.341   5.487   2.657 -1.7306 -0.1380 -1.3026
 7557TIP3    H222636   4.328   5.637   2.644 -1.5306  0.0161  0.1076
 7558TIP3   OH222637   1.214   0.307   3.629 -0.0528  0.0210 -0.2689
 7558TIP3    H122638   1.197   0.282   3.538 -0.9658  1.0035 -0.3870
 7558TIP3    H222639   1.217   0.223   3.676 -2.8124 -0.4202 -0.6876
 7559TIP3   OH222640   3.746   4.038   2.505 -0.3743  0.1740  0.1627
 7559TIP3    H122641   3.834   4.045   2.542 -0.5644 -1.1043  0.9040
 7559TIP3    H222642   3.697   4.108   2.547 -0.1937 -0.3140  1.2330
 7560TIP3   OH222643   7.097   2.304   0.400 -0.3017  0.2500  0.7190
 7560TIP3    H122644   7.040   2.342   0.334  0.3974 -1.2125 -0.8356
 7560TIP3    H222645   7.179   2.352   0.392 -0.8329  1.4463  2.0134
 7561TIP3   OH222646   5.100   0.894   4.488 -0.4794  0.3566  0.0023
 7561TIP3    H122647   5.099   0.807   4.528 -2.2998 -0.1352 -1.0151
 7561TIP3    H222648   5.009   0.921   4.487 -0.1722  1.4386 -1.4591
 7562TIP3   OH222649   2.473   0.529   0.626 -0.5089  0.6656  0.1694
 7562TIP3    H122650   2.481   0.434   0.615 -1.0078  0.5340  0.9026
 7562TIP3    H222651   2.407   0.555   0.561  1.0153  0.8243 -1.4120
 7563TIP3   OH222652   2.799   4.593   5.023 -0.3569  0.6443 -0.2421
 7563TIP3    H122653   2.781   4.655   5.094 -2.0937  0.4917 -0.5084
 7563TIP3    H222654   2.713   4.558   4.999  0.5864 -2.2077  0.1771
 7564TIP3   OH222655   3.214   4.991   0.670  0.0886  0.7677  0.8621
 7564TIP3    H122656   3.126   4.968   0.698  0.5287 -0.4258  1.3279
 7564TIP3    H222657   3.271   4.931   0.719  1.0076 -0.1011 -1.1663
 7565TIP3   OH222658   2.122   1.620   0.451  0.0900  0.1769  0.1047
 7565TIP3    H122659   2.203   1.592   0.408 -0.1915 -0.4074 -0.0493
 7565TIP3    H222660   2.076   1.538   0.470  0.0886  0.4319  1.2745
 7566TIP3   OH222661   3.276   3.252   5.315 -0.4935  0.1266 -0.5810
 7566TIP3    H122662   3.256   3.340   5.280  1.2033  0.1821 -1.5058
 7566TIP3    H222663   3.271   3.195   5.239 -2.5044 -0.7895  0.1783
 7567TIP3   OH222664   2.763   0.365   1.878  0.1524  0.8201  0.3818
 7567TIP3    H122665   2.716   0.282   1.880  1.5793 -0.1457 -2.0423
 7567TIP3    H222666   2.694   0.431   1.872 -1.1126 -0.5431 -3.2538
 7568TIP3   OH222667   5.851   6.163   3.626  0.3975 -0.0312  0.0157
 7568TIP3    H122668   5.875   6.073   3.647  0.5736 -0.4699 -1.9060
 7568TIP3    H222669   5.866   6.211   3.708 -1.4108 -2.0300  1.6258
 7569TIP3   OH222670   2.145   3.494   1.876  0.5320 -0.2463  0.1373
 7569TIP3    H122671   2.222   3.454   1.835  2.8033 -0.0667  3.7988
 7569TIP3    H222672   2.081   3.422   1.879  0.6240 -0.5500 -2.5103
 7570TIP3   OH222673   2.654   1.417   0.532 -0.2637  0.0066  0.1580
 7570TIP3    H122674   2.703   1.337   0.552 -2.2509 -1.0493  1.1155
 7570TIP3    H222675   2.565   1.398   0.562 -1.6487  1.2855 -2.7870
 7571TIP3   OH222676   5.782   6.682   2.610  0.2881 -0.0025  0.0129
 7571TIP3    H122677   5.767   6.771   2.643 -1.9572 -1.0558  2.1222
 7571TIP3    H222678   5.765   6.689   2.516 -1.6637  1.5011  0.4038
 7572TIP3   OH222679   7.086   2.002   2.156 -0.2320  0.5520 -0.4301
 7572TIP3    H122680   7.158   1.940   2.146 -1.4655 -1.0046 -0.0099
 7572TIP3    H222681   7.080   2.018   2.250 -0.5693  0.4938 -0.4385
 7573TIP3   OH222682   7.141   3.384   0.851  0.7195 -0.1607 -0.0807
 7573TIP3    H122683   7.119   3.371   0.943  1.8104 -2.5140 -0.0502
 7573TIP3    H222684   7.096   3.312   0.806 -2.6479  2.8387 -2.0241
 7574TIP3   OH222685   5.631   1.265   1.440  0.5630  1.1014 -0.1708
 7574TIP3    H122686   5.643   1.262   1.345  1.3287  0.7406 -0.0743
 7574TIP3    H222687   5.549   1.312   1.452 -0.3366 -0.1426 -1.0642
 7575TIP3   OH222688   4.809   4.220   3.991  0.2762  0.1741  0.0297
 7575TIP3    H122689   4.726   4.258   4.017  0.4867  0.6005  0.0833
 7575TIP3    H222690   4.875   4.269   4.041  0.4969 -0.7911  0.7283
 7576TIP3   OH222691   2.956   3.933   0.815 -0.0088  0.3523  0.0575
 7576TIP3    H122692   2.957   3.839   0.831 -0.3625  0.3800  0.2450
 7576TIP3    H222693   2.875   3.949   0.767  0.5599  0.4134 -0.9115
 7577TIP3   OH222694   1.564   4.538   4.002 -0.6520  0.1844 -0.0359
 7577TIP3    H122695   1.638   4.598   3.995  0.4792 -1.1920 -0.5872
 7577TIP3    H222696   1.571   4.483   3.924 -2.2658  0.0093 -0.0905
 7578TIP3   OH222697   7.222   6.368   2.093 -0.2516  0.0971  0.1552
 7578TIP3    H122698   7.159   6.439   2.081  0.0840  0.2859 -0.5756
 7578TIP3    H222699   7.200   6.305   2.024 -1.0841 -0.9298  1.3180
 7579TIP3   OH222700   2.030   5.289   5.009  0.3625  0.2901  0.2249
 7579TIP3    H122701   2.019   5.380   5.035  2.2184  1.0113 -1.3396
 7579TIP3    H222702   1.970   5.241   5.067 -0.3951  2.4262  1.3325
 7580TIP3   OH222703   2.886   3.478   2.057  0.3104  0.6285  0.0902
 7580TIP3    H122704   2.947   3.434   2.117  0.8640  0.7155 -0.3883
 7580TIP3    H222705   2.916   3.569   2.055 -0.4159  0.8872  0.5575
 7581TIP3   OH222706   5.603   4.976   0.421  0.3476  0.0054  0.2817
 7581TIP3    H122707   5.597   5.069   0.402  1.3649 -0.3460 -2.0557
 7581TIP3    H222708   5.697   4.959   0.433  0.1097 -0.6056  1.5594
 7582TIP3   OH222709   0.910   2.162   4.411 -0.4034  0.0690 -0.8581
 7582TIP3    H122710   0.978   2.218   4.449 -0.1112 -1.1219  0.4472
 7582TIP3    H222711   0.829   2.192   4.451 -0.2981 -0.1794 -0.4546
 7583TIP3   OH222712   6.648   5.983   2.594  0.5352 -0.0335 -0.4112
 7583TIP3    H122713   6.558   6.014   2.582  0.1879 -0.9657 -0.2666
 7583TIP3    H222714   6.683   6.038   2.664 -0.2536 -0.3300  0.2250
 7584TIP3   OH222715   4.506   6.641   5.707 -0.3721 -0.2406 -0.0303
 7584TIP3    H122716   4.495   6.548   5.689  1.4141 -0.6343  0.7307
 7584TIP3    H222717   4.428   6.665   5.757 -0.4636 -1.5367  0.4831
 7585TIP3   OH222718   1.585   5.952   1.628  0.1748  0.0685 -0.4965
 7585TIP3    H122719   1.558   5.943   1.719 -0.3139  0.4780 -0.5949
 7585TIP3    H222720   1.639   6.032   1.626 -2.3967  1.9222 -1.0943
 7586TIP3   OH222721   1.026   1.286   4.719 -0.2296  0.7926  0.2878
 7586TIP3    H122722   0.945   1.329   4.747 -1.1809 -1.0062  0.4388
 7586TIP3    H222723   1.000   1.196   4.701  1.7602  0.1572  0.3828
 7587TIP3   OH222724   3.944   5.555   0.425  0.5895  0.9555  0.4967
 7587TIP3    H122725   3.910   5.491   0.363 -1.0525  0.3894  1.9124
 7587TIP3    H222726   4.038   5.557   0.408  0.2719  0.3714 -1.5604
 7588TIP3   OH222727   0.702   5.060   5.783  0.4612  0.3385 -0.9761
 7588TIP3    H122728   0.676   4.969   5.795 -0.4990  0.5552 -1.2770
 7588TIP3    H222729   0.785   5.056   5.736 -0.4080 -0.3695 -2.5140
 7589TIP3   OH222730   0.909   5.954   4.414  0.0955 -0.5760  0.1426
 7589TIP3    H122731   0.818   5.945   4.441  0.2411 -0.8988  0.5281
 7589TIP3    H222732   0.939   6.035   4.455 -0.3722  0.1976 -0.9889
 7590TIP3   OH222733   2.607   6.500   3.009  0.4473 -0.7219  0.1898
 7590TIP3    H122734   2.523   6.468   2.976  0.2054  1.6913 -1.8240
 7590TIP3    H222735   2.596   6.501   3.104 -1.5353 -1.1794  0.0162
 7591TIP3   OH222736   1.824   5.015   2.197  0.1089 -0.2803  0.2255
 7591TIP3    H122737   1.840   5.076   2.269 -0.3592  1.9736 -1.4478
 7591TIP3    H222738   1.909   4.978   2.176  0.6247  0.6913  0.5567
 7592TIP3   OH222739   4.148   6.049   0.293 -0.1412 -0.1221 -0.3495
 7592TIP3    H122740   4.190   6.110   0.353  0.7402  1.2162 -2.2106
 7592TIP3    H222741   4.177   5.962   0.321 -0.4496  0.3869  1.6247
 7593TIP3   OH222742   3.793   4.529   3.850  0.4899 -0.2606  0.1379
 7593TIP3    H122743   3.726   4.581   3.807 -1.2759 -3.2584 -1.0603
 7593TIP3    H222744   3.858   4.512   3.782  1.5233  1.0206  0.7660
 7594TIP3   OH222745   0.217   0.115   4.580  0.1455 -0.6212 -0.3030
 7594TIP3    H122746   0.252   0.114   4.669 -2.0838 -0.4739  0.6211
 7594TIP3    H222747   0.203   0.023   4.559  0.7365 -0.6601 -0.5419
 7595TIP3   OH222748   3.572   2.365   3.604 -0.0209  0.3885 -0.1196
 7595TIP3    H122749   3.572   2.421   3.682  0.3512 -0.3417  0.4180
 7595TIP3    H222750   3.616   2.417   3.537 -0.8036  1.2268  0.0069
 7596TIP3   OH222751   2.980   4.910   3.595  0.3898 -0.2474 -0.5484
 7596TIP3    H122752   2.924   4.951   3.661  0.7303 -0.0327 -0.3898
 7596TIP3    H222753   3.057   4.880   3.644  1.3734  1.2793 -1.0579
 7597TIP3   OH222754   0.410   6.140   0.595 -0.2948 -0.4428 -0.2687
 7597TIP3    H122755   0.432   6.057   0.553 -0.5619 -1.2624  1.1670
 7597TIP3    H222756   0.482   6.158   0.655 -0.3554  0.2537 -0.3873
 7598TIP3   OH222757   3.108   2.189   0.256  0.1737 -0.3465 -0.2087
 7598TIP3    H122758   3.203   2.187   0.239 -0.0919  0.9153 -2.2772
 7598TIP3    H222759   3.072   2.124   0.197 -0.3093 -0.4037  0.1482
 7599TIP3   OH222760   1.054   0.060   0.343  0.1003 -0.2776  0.7885
 7599TIP3    H122761   0.983  -0.003   0.349 -0.7056  0.6197  1.0300
 7599TIP3    H222762   1.038   0.107   0.262  2.6012 -2.5449 -1.1976
 7600TIP3   OH222763   4.929   3.721   3.124 -0.2145 -0.2253  0.5371
 7600TIP3    H122764   4.957   3.679   3.042 -1.4412 -0.0658  0.0108
 7600TIP3    H222765   4.905   3.649   3.181 -2.0416 -0.2937 -0.2626
 7601TIP3   OH222766   5.940   2.791   1.266 -0.1668 -0.1269  0.2116
 7601TIP3    H122767   5.876   2.845   1.312  0.1460 -0.7372  1.4097
 7601TIP3    H222768   6.004   2.767   1.334 -0.2415 -1.9050 -0.3047
 7602TIP3   OH222769   3.615   3.786   3.553 -0.2367 -0.3211  0.0538
 7602TIP3    H122770   3.550   3.853   3.533 -0.7653 -0.7572  0.3006
 7602TIP3    H222771   3.660   3.770   3.470  0.0287  0.4706  0.0313
 7603TIP3   OH222772   0.234   2.090   1.649  0.1295 -0.0188  0.2038
 7603TIP3    H122773   0.179   2.165   1.626  0.2836  0.4917  1.4067
 7603TIP3    H222774   0.218   2.077   1.742  0.5059 -1.1648  0.1151
 7604TIP3   OH222775   2.548   5.644   0.767  0.0222  0.3874 -0.4193
 7604TIP3    H122776   2.624   5.590   0.747  0.4532  0.6235  0.5037
 7604TIP3    H222777   2.473   5.590   0.742  0.4671 -0.2961 -0.3038
 7605TIP3   OH222778   1.702   3.681   2.101  0.0101 -0.0613 -0.7235
 7605TIP3    H122779   1.697   3.777   2.103 -0.1205 -0.0726  1.5292
 7605TIP3    H222780   1.785   3.662   2.058  0.1386  1.0651 -0.9950
 7606TIP3   OH222781   4.515   2.863   5.401  0.1049 -0.3214  0.3842
 7606TIP3    H122782   4.580   2.825   5.460 -0.3994 -2.3981 -0.2874
 7606TIP3    H222783   4.432   2.822   5.428 -0.6702  1.0855  0.2222
 7607TIP3   OH222784   6.927   1.408   2.642  0.6101  0.3281  0.2845
 7607TIP3    H122785   6.878   1.327   2.659  1.0306 -0.0594 -0.3273
 7607TIP3    H222786   6.989   1.385   2.574 -0.4997  1.6495 -1.2512
 7608TIP3   OH222787   2.538   6.722   2.191 -0.0739  0.3505  0.0778
 7608TIP3    H122788   2.485   6.647   2.165 -1.1655  1.2911 -0.5313
 7608TIP3    H222789   2.628   6.694   2.176 -0.4593 -0.7766 -0.2733
 7609TIP3   OH222790   5.206   1.972   1.823  0.0168 -0.2952  0.5315
 7609TIP3    H122791   5.213   1.877   1.812  0.2388 -0.0378 -2.6855
 7609TIP3    H222792   5.267   1.993   1.893  0.3866 -2.4758  0.9306
 7610TIP3   OH222793   3.802   5.700   5.639  0.1776 -0.1865  0.3840
 7610TIP3    H122794   3.759   5.779   5.608  0.2685 -0.5454 -0.7298
 7610TIP3    H222795   3.826   5.719   5.729 -0.0838  0.9318  0.2348
 7611TIP3   OH222796   4.932   3.045   5.359 -0.0566 -0.0421 -0.3774
 7611TIP3    H122797   5.001   2.983   5.334  1.1159  0.4880  1.3262
 7611TIP3    H222798   4.939   3.051   5.454 -1.1451  1.5724 -0.3549
 7612TIP3   OH222799   0.338   2.359   5.651 -0.4335 -0.1269  0.3675
 7612TIP3    H122800   0.296   2.402   5.578  0.2935 -0.8442 -0.4947
 7612TIP3    H222801   0.320   2.416   5.726 -0.9554  0.7558 -0.4086
 7613TIP3   OH222802   5.813   4.307   2.034  0.3352 -0.3506  0.1554
 7613TIP3    H122803   5.867   4.375   2.073  2.4451 -1.5579 -0.5153
 7613TIP3    H222804   5.819   4.233   2.095  0.0677 -0.7496 -0.2958
 7614TIP3   OH222805   6.177   3.426   4.025 -0.5771  0.0072 -0.1499
 7614TIP3    H122806   6.267   3.442   3.996 -0.0580 -1.5480  0.4877
 7614TIP3    H222807   6.162   3.490   4.094 -0.2257  0.7452 -0.7398
 7615TIP3   OH222808   0.722   1.429   4.522  0.0719  0.5483  0.6069
 7615TIP3    H122809   0.772   1.443   4.441 -1.4124  0.6456 -0.3259
 7615TIP3    H222810   0.667   1.353   4.503  0.1415  0.1896  1.7600
 7616TIP3   OH222811   0.025   5.908   4.578  0.2898  0.1286 -0.1231
 7616TIP3    H122812   0.121   5.915   4.579  0.2218  1.4743 -0.9949
 7616TIP3    H222813   0.003   5.870   4.663  1.4823  1.5545  0.8760
 7617TIP3   OH222814   4.428   4.969   4.321 -0.1589  0.1834  0.2118
 7617TIP3    H122815   4.505   4.921   4.291  0.7358  1.5896  0.1710
 7617TIP3    H222816   4.408   4.932   4.407 -0.3276 -1.1528 -0.3752
 7618TIP3   OH222817   4.242   0.411   1.122  0.4952  0.1254  0.6519
 7618TIP3    H122818   4.168   0.462   1.155  1.0137 -0.0716  2.2010
 7618TIP3    H222819   4.278   0.463   1.051  0.4717  1.5238  1.6219
 7619TIP3   OH222820   3.894   0.646   1.669 -0.3630 -0.1103 -0.2462
 7619TIP3    H122821   3.819   0.624   1.725 -0.6344  0.7937 -0.2357
 7619TIP3    H222822   3.911   0.738   1.688  1.0398 -0.4226  0.0703
 7620TIP3   OH222823   6.297   0.837   1.910  0.0354  0.2366 -0.2643
 7620TIP3    H122824   6.295   0.929   1.884 -0.8414 -0.3226 -2.4005
 7620TIP3    H222825   6.389   0.812   1.907  0.4211  1.3008  1.4928
 7621TIP3   OH222826   6.572   6.494   0.496 -0.2109 -0.2888  0.0005
 7621TIP3    H122827   6.622   6.449   0.564  0.9571  0.9092 -0.0369
 7621TIP3    H222828   6.563   6.429   0.426 -0.6829 -1.2437  0.9123
 7622TIP3   OH222829   6.983   6.557   1.422 -0.8165  0.1272  0.1936
 7622TIP3    H122830   6.930   6.508   1.360  2.4818 -1.2811 -1.8236
 7622TIP3    H222831   7.007   6.637   1.375 -0.6522  0.4372  0.7993
 7623TIP3   OH222832   2.116   5.172   2.191 -0.0929  0.2236  0.3137
 7623TIP3    H122833   2.162   5.127   2.262  1.1536  0.1740 -0.4842
 7623TIP3    H222834   2.183   5.228   2.151 -0.9999  0.9253 -0.2539
 7624TIP3   OH222835   2.560   4.558   2.288  0.3264 -0.3747 -0.9363
 7624TIP3    H122836   2.635   4.553   2.347  0.8380  0.6127 -1.4926
 7624TIP3    H222837   2.550   4.651   2.268 -2.3974 -0.1727  0.8210
 7625TIP3   OH222838   6.890   5.453   2.305 -0.0477  0.4082  0.5048
 7625TIP3    H122839   6.935   5.537   2.312 -1.7893  1.5299 -0.7653
 7625TIP3    H222840   6.880   5.439   2.211  1.3039 -1.8926  0.6358
 7626TIP3   OH222841   0.479   4.398   2.140  0.0653 -0.1623 -0.1226
 7626TIP3    H122842   0.463   4.407   2.233  1.7716 -1.9650  0.4194
 7626TIP3    H222843   0.551   4.458   2.121  0.3004 -0.4216 -0.0683
 7627TIP3   OH222844   5.940   3.004   0.240 -1.0832  0.4817 -0.3963
 7627TIP3    H122845   5.851   2.996   0.274 -1.1884  0.0694 -0.7531
 7627TIP3    H222846   5.960   2.918   0.204  0.3250 -0.1353  1.7155
 7628TIP3   OH222847   6.139   1.667   5.401 -0.5042  0.4583  0.3000
 7628TIP3    H122848   6.200   1.612   5.450 -1.6369 -0.2989  0.9096
 7628TIP3    H222849   6.052   1.639   5.431 -1.1538  1.5702 -0.4711
 7629TIP3   OH222850   7.131   2.213   4.791  0.1116  0.3312 -0.1286
 7629TIP3    H122851   7.045   2.188   4.826 -0.3373  1.4181 -0.3900
 7629TIP3    H222852   7.176   2.253   4.866  0.4453 -0.3402  0.0377
 7630TIP3   OH222853   5.601   1.428   4.279  0.4021  0.3209 -0.4144
 7630TIP3    H122854   5.659   1.373   4.226  1.3541 -0.2323  1.1179
 7630TIP3    H222855   5.648   1.511   4.286  1.0661 -0.1309  0.8368
 7631TIP3   OH222856   0.939   4.390   1.666 -0.4075 -0.1685  0.6811
 7631TIP3    H122857   0.971   4.348   1.746 -0.1217 -1.2567  0.0112
 7631TIP3    H222858   0.986   4.346   1.595 -1.7930 -0.2903 -0.1965
 7632TIP3   OH222859   0.722   5.210   1.557  0.2275  0.4719 -0.1573
 7632TIP3    H122860   0.681   5.185   1.640  0.6562  0.2999  0.0040
 7632TIP3    H222861   0.695   5.301   1.544 -1.2322 -0.0014 -0.6825
 7633TIP3   OH222862   6.516   5.029   0.059 -0.7351 -0.0304  0.7453
 7633TIP3    H122863   6.538   4.936   0.057 -0.7244 -0.0257 -0.7136
 7633TIP3    H222864   6.594   5.073   0.025 -1.5470  0.3043 -0.7642
 7634TIP3   OH222865   4.246   4.026   5.854  0.3464 -0.4167  0.6399
 7634TIP3    H122866   4.165   4.077   5.868  0.6766 -0.1352  1.6383
 7634TIP3    H222867   4.315   4.092   5.849  0.6935 -0.7274  1.2651
 7635TIP3   OH222868   1.095   6.137   4.713  0.0545  0.2210  0.3482
 7635TIP3    H122869   1.064   6.181   4.634 -1.2449  1.6552  1.5922
 7635TIP3    H222870   1.040   6.059   4.719  2.3369 -1.7324 -1.8377
 7636TIP3   OH222871   7.032   4.679   3.066 -0.9175  0.1026  0.2662
 7636TIP3    H122872   6.967   4.616   3.038 -0.1473 -1.3757  1.6244
 7636TIP3    H222873   7.018   4.688   3.160 -0.3789  1.2184  0.2596
 7637TIP3   OH222874   5.673   3.163   3.484  0.1376  0.2005 -0.3214
 7637TIP3    H122875   5.755   3.115   3.474  0.3952  0.5311  0.1875
 7637TIP3    H222876   5.650   3.154   3.576 -0.0944  0.5911 -0.3358
 7638TIP3   OH222877   1.507   6.378   1.876 -0.0982 -0.4944 -0.3454
 7638TIP3    H122878   1.420   6.403   1.908 -0.1738 -1.2997  0.0980
 7638TIP3    H222879   1.521   6.435   1.800 -1.2410 -0.7113 -0.7468
 7639TIP3   OH222880   0.715   1.399   5.600  0.2722  0.4620 -0.2626
 7639TIP3    H122881   0.649   1.331   5.610  0.8548 -0.0838 -0.0515
 7639TIP3    H222882   0.757   1.405   5.686 -0.2318  1.5809 -0.0743
 7640TIP3   OH222883   6.711   2.584   1.395 -0.0039 -0.1803  0.3743
 7640TIP3    H122884   6.619   2.558   1.406 -0.7426  2.0464 -0.0772
 7640TIP3    H222885   6.730   2.566   1.303  1.1760 -3.8164  1.1582
 7641TIP3   OH222886   3.948   6.066   1.130 -0.3650 -0.0520 -0.3245
 7641TIP3    H122887   3.926   5.984   1.175 -0.3806  0.4790  0.6580
 7641TIP3    H222888   3.986   6.038   1.047  1.9480 -1.1393  1.0075
 7642TIP3   OH222889   1.184   2.228   0.398  0.4142 -0.0584 -0.0318
 7642TIP3    H122890   1.148   2.141   0.415  0.0900 -0.0130 -0.4710
 7642TIP3    H222891   1.246   2.242   0.469  1.3057 -1.1175 -0.5722
 7643TIP3   OH222892   3.060   5.963   1.363 -0.2861  0.0739  0.0389
 7643TIP3    H122893   3.137   5.913   1.388 -0.3847  0.2320  0.6730
 7643TIP3    H222894   3.092   6.050   1.342  0.0441 -0.5145 -2.1577
 7644TIP3   OH222895   1.195   6.179   0.244  0.5303  0.0510  0.1417
 7644TIP3    H122896   1.217   6.137   0.327  2.6375  1.5909  0.4403
 7644TIP3    H222897   1.242   6.263   0.246  1.0947 -0.0733 -2.8092
 7645TIP3   OH222898   2.836   5.420   5.062  0.0209 -0.4807  0.1149
 7645TIP3    H122899   2.919   5.378   5.041 -0.8459 -1.8115 -0.8155
 7645TIP3    H222900   2.804   5.373   5.139 -0.1969 -0.4375  0.0512
 7646TIP3   OH222901   3.708   4.432   4.149  0.5783 -0.1722  0.7091
 7646TIP3    H122902   3.633   4.479   4.187 -0.0185 -0.0961 -0.5244
 7646TIP3    H222903   3.755   4.498   4.100 -0.3820 -0.8433 -1.2136
 7647TIP3   OH222904   6.303   5.006   1.731 -0.3066  0.7356  0.1757
 7647TIP3    H122905   6.338   4.919   1.710  0.2041  1.2311 -1.1586
 7647TIP3    H222906   6.380   5.059   1.750 -0.5958  0.9730  0.6974
 7648TIP3   OH222907   0.747   4.895   1.024  0.6601 -0.1717 -0.3990
 7648TIP3    H122908   0.696   4.904   0.943  0.5180  0.7906 -0.2105
 7648TIP3    H222909   0.750   4.800   1.039 -0.0973 -0.3107 -1.0312
 7649TIP3   OH222910   6.083   3.173   3.548  0.1418 -0.2469 -0.0283
 7649TIP3    H122911   6.151   3.208   3.490  0.4148  0.1650  0.5230
 7649TIP3    H222912   6.107   3.207   3.635 -0.4887 -0.5117  0.2526
 7650TIP3   OH222913   5.011   0.106   5.305 -0.0958 -0.1398  0.3285
 7650TIP3    H122914   4.987   0.198   5.290  0.1596 -0.2940 -1.1370
 7650TIP3    H222915   5.067   0.109   5.383  3.3615  1.5820 -1.9824
 7651TIP3   OH222916   0.266   6.736   0.900  0.3103  0.2320  0.1930
 7651TIP3    H122917   0.314   6.804   0.854  1.9185  0.0567  1.5399
 7651TIP3    H222918   0.229   6.780   0.977  1.1616 -0.3350  0.9444
 7652TIP3   OH222919   2.795   3.175   2.249 -0.0261  0.1488  0.3204
 7652TIP3    H122920   2.844   3.095   2.267 -0.7215  0.0818  2.1559
 7652TIP3    H222921   2.861   3.245   2.250  0.3870 -0.2350  0.1590
 7653TIP3   OH222922   5.890   4.026   5.767  0.3893 -0.5261  0.1762
 7653TIP3    H122923   5.883   3.999   5.858  0.7469 -2.3833 -0.2903
 7653TIP3    H222924   5.805   4.064   5.746  0.2933 -0.1260  1.2691
 7654TIP3   OH222925   5.666   1.257   1.162  0.2250 -0.1239  0.6075
 7654TIP3    H122926   5.678   1.321   1.092  2.7525 -0.2640  0.8012
 7654TIP3    H222927   5.630   1.180   1.119 -0.1430  0.4663 -0.1579
 7655TIP3   OH222928   2.543   2.460   3.957 -0.5371 -0.4448  0.4081
 7655TIP3    H122929   2.623   2.512   3.961 -0.7381 -0.1158  0.2126
 7655TIP3    H222930   2.539   2.416   4.042  0.5424 -1.5157 -0.0603
 7656TIP3   OH222931   3.903   1.147   2.808 -0.2165  0.4639 -0.3142
 7656TIP3    H122932   3.876   1.236   2.786 -2.2409 -0.0039  0.0860
 7656TIP3    H222933   3.869   1.094   2.735 -0.4043 -0.1659  0.2274
 7657TIP3   OH222934   7.132   5.912   3.123 -0.0030  0.8900 -0.6964
 7657TIP3    H122935   7.072   5.986   3.110 -2.4212 -0.7469  0.2616
 7657TIP3    H222936   7.174   5.900   3.038 -2.0002  1.3767 -1.8149
 7658TIP3   OH222937   6.291   1.489   0.472  0.6160  0.3484  0.6176
 7658TIP3    H122938   6.362   1.523   0.527  1.1021  2.5651 -1.2164
 7658TIP3    H222939   6.334   1.469   0.388 -0.5581 -0.2636  0.1449
 7659TIP3   OH222940   0.468   3.128   5.307 -0.0760  0.7603 -0.5759
 7659TIP3    H122941   0.384   3.151   5.267  0.1768  1.8965 -0.4867
 7659TIP3    H222942   0.508   3.212   5.330  1.5475  0.3104 -1.5359
 7660TIP3   OH222943   1.540   2.282   0.426 -0.0422 -0.1807  0.1475
 7660TIP3    H122944   1.521   2.375   0.441 -3.1459 -0.7197  0.1639
 7660TIP3    H222945   1.529   2.270   0.331  1.5812 -0.3531 -0.0558
 7661TIP3   OH222946   7.154   2.229   2.933  0.3477 -0.1445  0.3114
 7661TIP3    H122947   7.217   2.176   2.885  0.8527  1.4076 -0.8437
 7661TIP3    H222948   7.207   2.276   2.998  0.3183  0.6598 -0.2217
 7662TIP3   OH222949   3.793   5.838   3.976 -0.6196 -0.5483  0.6425
 7662TIP3    H122950   3.767   5.750   4.001  0.5180 -1.5465 -1.4178
 7662TIP3    H222951   3.867   5.825   3.916  0.2976  1.8529  1.1111
 7663TIP3   OH222952   2.495   2.464   0.374 -0.1209 -0.1581 -0.2269
 7663TIP3    H122953   2.564   2.492   0.314 -0.8761  1.0458 -0.5768
 7663TIP3    H222954   2.501   2.526   0.447 -0.0063 -0.8559  0.3689
 7664TIP3   OH222955   1.000   6.637   0.485  0.0644 -0.0512  0.3874
 7664TIP3    H122956   0.957   6.654   0.401 -1.7611 -1.1582  1.0315
 7664TIP3    H222957   1.014   6.723   0.523 -1.4682  0.3901  0.0370
 7665TIP3   OH222958   6.262   6.090   5.380  0.1160 -0.2973  0.1383
 7665TIP3    H122959   6.226   6.107   5.293  1.5366  1.0547 -0.2271
 7665TIP3    H222960   6.199   6.031   5.421 -2.7481  2.2490 -0.2830
 7666TIP3   OH222961   6.715   3.779   2.312 -0.0433  0.0068 -0.5322
 7666TIP3    H122962   6.714   3.764   2.218  0.9027 -0.2933 -0.5115
 7666TIP3    H222963   6.763   3.861   2.323 -0.6040  0.3128 -0.3359
 7667TIP3   OH222964   4.726   2.959   1.331 -0.3427 -0.1499 -0.5829
 7667TIP3    H122965   4.681   2.970   1.247  0.5485 -0.0376 -1.0578
 7667TIP3    H222966   4.816   2.936   1.307 -0.2758 -0.9140  0.3506
 7668TIP3   OH222967   4.804   2.288   1.182  0.1401  0.0349 -0.5445
 7668TIP3    H122968   4.750   2.366   1.168  1.5722  0.7690 -2.3906
 7668TIP3    H222969   4.741   2.215   1.183 -1.2835  1.1702  1.6678
 7669TIP3   OH222970   4.144   5.740   1.148 -0.0003  0.4289 -0.1686
 7669TIP3    H122971   4.055   5.760   1.177  0.5487  1.5714  0.8238
 7669TIP3    H222972   4.200   5.772   1.219  1.2409  0.4122 -1.1040
 7670TIP3   OH222973   4.050   1.965   3.981  0.2679 -0.3929  0.9189
 7670TIP3    H122974   4.051   1.891   3.920  1.8384  0.6246 -0.4197
 7670TIP3    H222975   4.035   1.926   4.067 -1.3676 -1.9713  0.0008
 7671TIP3   OH222976   4.165   2.832   4.183  0.7386  0.6830 -0.0298
 7671TIP3    H122977   4.180   2.738   4.190 -0.7281  0.4521  0.2639
 7671TIP3    H222978   4.239   2.864   4.131  1.4412 -0.5654  0.1580
 7672TIP3   OH222979   4.872   1.909   1.578  0.0080  0.0478  0.1990
 7672TIP3    H122980   4.869   1.916   1.673 -0.3525  0.2258  0.1783
 7672TIP3    H222981   4.796   1.853   1.557  1.7871 -2.5538  0.2450
 7673TIP3   OH222982   2.955   2.280   2.229  0.4870 -0.0114 -0.5149
 7673TIP3    H122983   2.976   2.258   2.319  1.2703  1.8869 -0.1887
 7673TIP3    H222984   2.863   2.304   2.230  0.9999  2.1703  0.2987
 7674TIP3   OH222985   0.817   2.778   3.189  0.1152 -0.6052  0.5972
 7674TIP3    H122986   0.852   2.856   3.232  1.0585 -0.6113 -0.1075
 7674TIP3    H222987   0.826   2.797   3.095 -0.7057 -1.0999  0.4118
 7675TIP3   OH222988   3.980   1.570   2.847 -0.6482  0.2310  0.2429
 7675TIP3    H122989   3.947   1.528   2.927  1.4319 -0.8372  0.6077
 7675TIP3    H222990   3.939   1.657   2.848 -0.0918  0.5610  2.9206
 7676TIP3   OH222991   6.068   5.020   1.496 -0.3763 -0.2298  0.8205
 7676TIP3    H122992   6.142   5.071   1.528 -1.2079  0.4781  1.6514
 7676TIP3    H222993   6.045   5.059   1.412 -0.2945  0.0487  0.9278
 7677TIP3   OH222994   3.445   1.729   1.227 -0.0420  0.4702  0.0175
 7677TIP3    H122995   3.454   1.790   1.301 -1.2472  0.1134  0.4822
 7677TIP3    H222996   3.535   1.711   1.200  0.3729  1.8696  0.3454
 7678TIP3   OH222997   4.202   0.798   4.252 -0.2272  0.0052 -0.3943
 7678TIP3    H122998   4.236   0.798   4.342  2.0771 -1.9883 -1.1471
 7678TIP3    H222999   4.226   0.883   4.217  3.0368 -0.7721 -0.4141
 7679TIP3   OH223000   2.775   5.272   2.850  0.7836  0.2744 -0.3340
 7679TIP3    H123001   2.840   5.249   2.917 -0.5499 -1.7566  0.3334
 7679TIP3    H223002   2.828   5.297   2.774  2.4663 -2.9482 -0.3930
 7680TIP3   OH223003   2.698   3.571   4.552  0.0974 -0.6107 -0.1381
 7680TIP3    H123004   2.618   3.523   4.575 -1.5580  1.1689 -1.7499
 7680TIP3    H223005   2.696   3.578   4.457  2.8359 -1.4780 -0.3409
 7681TIP3   OH223006   3.608   4.955   5.234  0.6957  0.0220  0.0763
 7681TIP3    H123007   3.693   4.994   5.254  0.6130  0.9024 -1.1773
 7681TIP3    H223008   3.617   4.863   5.260  1.4907  0.4557  1.4328
 7682TIP3   OH223009   3.723   5.936   4.569 -0.0378 -0.5417  0.1689
 7682TIP3    H123010   3.774   5.924   4.648  0.3143  2.2683  0.4657
 7682TIP3    H223011   3.646   5.986   4.597 -0.1659  0.0460 -1.1506
 7683TIP3   OH223012   6.825   2.796   5.415  0.2094  0.4761 -0.2941
 7683TIP3    H123013   6.771   2.757   5.484  0.0445  0.4923 -0.4131
 7683TIP3    H223014   6.909   2.751   5.422  0.1859  0.4644 -0.0946
 7684TIP3   OH223015   2.772   6.316   0.211  0.3644  1.0131 -0.0729
 7684TIP3    H123016   2.857   6.279   0.235 -0.6623  0.3601  3.0069
 7684TIP3    H223017   2.787   6.410   0.207  1.0988  0.9784  1.2359
 7685TIP3   OH223018   1.923   2.725   3.176 -0.1710  0.4125  0.4655
 7685TIP3    H123019   1.859   2.669   3.220  0.0226  1.0298  1.5623
 7685TIP3    H223020   2.008   2.693   3.207 -0.0115  0.5608  0.1808
 7686TIP3   OH223021   1.549   1.212   3.554  0.4816  0.5740  0.7279
 7686TIP3    H123022   1.643   1.222   3.567  0.3556  0.6588  1.6579
 7686TIP3    H223023   1.520   1.156   3.626 -0.2002  0.6417  0.5194
 7687TIP3   OH223024   2.295   6.737   0.901 -0.1850 -0.2310  0.3386
 7687TIP3    H123025   2.284   6.715   0.994 -2.1992  0.9868  0.4599
 7687TIP3    H223026   2.247   6.668   0.854  1.7417 -1.4613  0.0832
 7688TIP3   OH223027   2.249   1.795   2.326  0.1511 -0.4354 -0.3811
 7688TIP3    H123028   2.231   1.719   2.270 -0.9528  0.9905 -2.1106
 7688TIP3    H223029   2.174   1.799   2.386  0.9962 -1.5750  0.8002
 7689TIP3   OH223030   4.872   4.980   3.955  0.4185  0.1382 -0.4170
 7689TIP3    H123031   4.830   5.047   4.008 -0.6887 -0.0412 -1.0489
 7689TIP3    H223032   4.888   4.908   4.017 -3.8035 -1.4111 -0.8119
 7690TIP3   OH223033   5.645   1.134   2.423 -0.6050 -0.0936 -0.1153
 7690TIP3    H123034   5.699   1.114   2.346 -1.1319 -1.7147 -0.1163
 7690TIP3    H223035   5.621   1.226   2.413  2.0337  0.6574 -0.1707
 7691TIP3   OH223036   5.486   4.899   0.824 -0.4111 -0.0944  0.0328
 7691TIP3    H123037   5.411   4.957   0.836 -0.6762 -0.2732 -0.6883
 7691TIP3    H223038   5.530   4.899   0.909 -0.2020  1.4265 -0.0477
 7692TIP3   OH223039   6.645   2.675   3.387 -0.5574  0.0041 -0.0396
 7692TIP3    H123040   6.552   2.695   3.375  0.0508  1.6695 -3.2026
 7692TIP3    H223041   6.688   2.760   3.381  1.1708 -0.5934  2.4869
 7693TIP3   OH223042   2.587   2.715   1.249 -0.2540 -0.2216  0.5540
 7693TIP3    H123043   2.610   2.724   1.341  0.8620 -0.0251  0.2825
 7693TIP3    H223044   2.649   2.649   1.216  0.4115  0.8385 -0.3817
 7694TIP3   OH223045   1.902   6.544   0.513 -0.3316  0.1147 -0.1166
 7694TIP3    H123046   1.992   6.515   0.527 -0.9842 -2.6107 -0.9019
 7694TIP3    H223047   1.910   6.631   0.475  1.9046  0.4638  0.9830
 7695TIP3   OH223048   5.276   6.179   1.779  0.3746 -0.5394  0.0171
 7695TIP3    H123049   5.226   6.202   1.858 -0.5561 -1.7418 -0.1752
 7695TIP3    H223050   5.309   6.262   1.746 -0.1971  0.1195  1.0348
 7696TIP3   OH223051   6.470   1.406   4.828  0.3064 -0.3426  0.6572
 7696TIP3    H123052   6.413   1.351   4.774  0.1212 -1.4382  1.9104
 7696TIP3    H223053   6.558   1.383   4.802  0.2219  0.5432 -0.5010
 7697TIP3   OH223054   4.705   4.441   5.729 -0.2227  0.2803 -0.0515
 7697TIP3    H123055   4.734   4.523   5.768 -1.5655 -0.0107  1.6671
 7697TIP3    H223056   4.620   4.462   5.690 -0.2059 -0.1168 -0.3126
 7698TIP3   OH223057   2.171   1.429   3.898  0.1872 -0.0605 -1.0612
 7698TIP3    H123058   2.190   1.336   3.892 -1.3303 -0.4453 -0.3648
 7698TIP3    H223059   2.078   1.433   3.922  0.3528  1.6249 -0.5908
 7699TIP3   OH223060   1.260   0.702   4.967  0.3325 -0.0744 -0.5599
 7699TIP3    H123061   1.236   0.631   5.026  2.2821  0.0832  0.5315
 7699TIP3    H223062   1.346   0.731   4.999 -0.2972  2.6476 -1.0619
 7700TIP3   OH223063   2.641   0.591   1.333 -0.1642  0.1145  0.2537
 7700TIP3    H123064   2.622   0.524   1.267 -0.3324 -0.4674  0.8809
 7700TIP3    H223065   2.714   0.641   1.296  0.2268 -0.6639 -0.0459
 7701TIP3   OH223066   6.196   6.063   2.309 -0.0823  0.2953  0.4165
 7701TIP3    H123067   6.119   6.071   2.253 -0.4472 -3.8370  0.0701
 7701TIP3    H223068   6.163   6.083   2.397 -1.4802 -0.9010  0.2074
 7702TIP3   OH223069   2.686   0.570   4.235 -0.2619  0.3605 -0.5024
 7702TIP3    H123070   2.753   0.521   4.189  0.6646 -0.5696  1.7092
 7702TIP3    H223071   2.641   0.505   4.289 -1.4107  1.3576 -0.2072
 7703TIP3   OH223072   7.111   1.744   4.163 -0.4578  0.0103  0.3442
 7703TIP3    H123073   7.149   1.659   4.187 -0.3144 -0.4297 -1.2795
 7703TIP3    H223074   7.157   1.807   4.217  0.7130 -0.7846  0.3214
 7704TIP3   OH223075   2.477   4.367   4.405 -0.3785 -0.4664  0.1903
 7704TIP3    H123076   2.482   4.434   4.473 -0.6734 -0.5773  0.3238
 7704TIP3    H223077   2.515   4.289   4.447  0.8832 -0.1361 -0.2869
 7705TIP3   OH223078   5.800   6.071   3.230 -0.3073 -0.1691 -0.4299
 7705TIP3    H123079   5.805   5.982   3.266 -0.3563  0.4664  1.2745
 7705TIP3    H223080   5.708   6.082   3.208 -0.8753  0.3176  1.8829
 7706TIP3   OH223081   1.597   3.114   4.803  0.5727  0.7114 -0.4556
 7706TIP3    H123082   1.681   3.073   4.783 -0.3725 -0.8342 -1.4335
 7706TIP3    H223083   1.556   3.128   4.718 -0.9352 -0.2770  0.0726
 7707TIP3   OH223084   0.727   1.321   2.601 -0.0176 -0.1546  0.2343
 7707TIP3    H123085   0.712   1.398   2.655  2.8354  0.9320 -0.3809
 7707TIP3    H223086   0.666   1.332   2.528  0.3364  1.5754  0.1440
 7708TIP3   OH223087   0.237   6.652   4.415  0.6038 -0.2585  0.1920
 7708TIP3    H123088   0.153   6.681   4.452  0.9156 -0.6476  1.2387
 7708TIP3    H223089   0.268   6.726   4.364  0.3540  0.4640  1.0642
 7709TIP3   OH223090   7.025   5.027   3.815 -0.0239  0.4135 -0.0268
 7709TIP3    H123091   6.979   4.944   3.824 -1.2876  1.2191  1.4686
 7709TIP3    H223092   7.118   5.004   3.813 -0.3501 -1.0105  0.3895
 7710TIP3   OH223093   4.245   0.765   0.659  0.4369 -0.1122  0.1476
 7710TIP3    H123094   4.221   0.834   0.596  0.2814  0.4676  0.8282
 7710TIP3    H223095   4.255   0.686   0.605 -1.7454 -0.1079 -0.3634
 7711TIP3   OH223096   5.445   3.367   3.079  0.0301  0.2468 -0.1563
 7711TIP3    H123097   5.451   3.276   3.051 -0.1238 -0.2378  1.3068
 7711TIP3    H223098   5.359   3.373   3.121  0.9015  0.4902  1.6717
 7712TIP3   OH223099   2.391   2.476   3.083 -0.4696  0.2581 -0.6082
 7712TIP3    H123100   2.371   2.432   3.166  0.9717 -1.6174 -1.1752
 7712TIP3    H223101   2.394   2.406   3.018  0.6907  1.3569 -1.8217
 7713TIP3   OH223102   6.752   4.869   2.668 -0.1197  0.5515  0.2061
 7713TIP3    H123103   6.695   4.933   2.626  0.9683  0.9776 -0.6979
 7713TIP3    H223104   6.805   4.920   2.729  0.7868  0.5564 -0.5567
 7714TIP3   OH223105   0.691   3.475   1.163  0.9657 -0.2873  0.5652
 7714TIP3    H123106   0.625   3.447   1.225 -0.6177 -0.8321 -1.2571
 7714TIP3    H223107   0.696   3.570   1.174 -0.3469 -0.1962  0.5655
 7715TIP3   OH223108   4.647   3.436   1.941  0.2556  0.1361  0.6053
 7715TIP3    H123109   4.733   3.395   1.952  0.8878  0.9710 -1.0000
 7715TIP3    H223110   4.662   3.509   1.881 -1.7510 -0.3254 -0.5401
 7716TIP3   OH223111   2.450   2.066   5.636 -0.4773  0.1474 -0.5482
 7716TIP3    H123112   2.495   1.991   5.597 -0.5141 -1.0345  1.5212
 7716TIP3    H223113   2.503   2.142   5.612  0.8880 -0.8372 -0.7610
 7717TIP3   OH223114   1.870   4.427   5.119 -0.5808  0.0401 -0.5582
 7717TIP3    H123115   1.809   4.485   5.073 -1.6132  0.8047  1.6104
 7717TIP3    H223116   1.893   4.476   5.198 -0.4782 -1.9902  0.7259
 7718TIP3   OH223117   4.405   0.090   1.650  0.2319  0.2362  0.4225
 7718TIP3    H123118   4.438   0.172   1.613  0.7153 -0.5310 -0.9096
 7718TIP3    H223119   4.346   0.056   1.584  0.3434 -0.6968  0.7906
 7719TIP3   OH223120   6.053   5.651   3.912  0.1444 -0.5508  0.2488
 7719TIP3    H123121   5.971   5.672   3.957  0.6203  1.5422  0.2323
 7719TIP3    H223122   6.121   5.679   3.974  0.8322  2.8751 -1.8185
 7720TIP3   OH223123   1.414   1.863   4.344 -0.0805 -0.0402  0.1934
 7720TIP3    H123124   1.378   1.791   4.292  1.7857 -1.1058  0.3218
 7720TIP3    H223125   1.490   1.893   4.295  0.7842 -0.0232  1.4843
 7721TIP3   OH223126   0.301   2.867   5.513 -0.0559 -0.1257 -0.1359
 7721TIP3    H123127   0.386   2.888   5.552  0.6761 -1.3734 -0.9661
 7721TIP3    H223128   0.245   2.846   5.587  0.5490  0.0885  0.3927
 7722TIP3   OH223129   4.772   4.494   5.080  0.7543 -0.3489 -0.1392
 7722TIP3    H123130   4.696   4.514   5.135  1.3594 -0.4834  0.7783
 7722TIP3    H223131   4.836   4.562   5.102  1.1234 -0.5928 -0.4492
 7723TIP3   OH223132   5.232   3.876   3.553  0.8097  0.3777 -0.3577
 7723TIP3    H123133   5.197   3.857   3.641  0.6164 -0.8176 -0.6849
 7723TIP3    H223134   5.324   3.899   3.568  1.5400 -2.4357 -0.0636
 7724TIP3   OH223135   5.854   4.190   4.167 -0.1693 -0.1630  0.3415
 7724TIP3    H123136   5.930   4.192   4.110 -1.1275  0.8631 -0.9685
 7724TIP3    H223137   5.888   4.164   4.252  1.9324  1.9405  0.2339
 7725TIP3   OH223138   4.852   2.594   0.894  0.1039  0.0354 -0.3154
 7725TIP3    H123139   4.895   2.674   0.863  1.3638 -0.4299  0.1459
 7725TIP3    H223140   4.922   2.545   0.937 -0.4971 -1.6050 -1.1294
 7726TIP3   OH223141   5.201   1.258   3.204  0.0092 -0.4673 -0.6030
 7726TIP3    H123142   5.214   1.304   3.287 -0.2213 -0.7088 -0.4283
 7726TIP3    H223143   5.250   1.309   3.140  0.6456 -0.5826 -0.2215
 7727TIP3   OH223144   5.365   3.541   4.423  0.2036  0.4716 -0.1389
 7727TIP3    H123145   5.430   3.489   4.471  0.4526  0.0843 -0.8894
 7727TIP3    H223146   5.295   3.556   4.487  0.3678 -0.3442  0.2439
 7728TIP3   OH223147   0.729   6.252   5.264 -0.3818 -0.0364 -0.2639
 7728TIP3    H123148   0.729   6.297   5.179 -1.2820  0.2915 -0.1017
 7728TIP3    H223149   0.648   6.202   5.265 -0.9546  0.8661  0.8615
 7729TIP3   OH223150   3.103   5.371   4.847  0.7425  0.6339  0.2401
 7729TIP3    H123151   3.192   5.342   4.826  0.6093  0.1094  0.3839
 7729TIP3    H223152   3.059   5.292   4.878 -0.1011  0.6344 -0.8891
 7730TIP3   OH223153   1.480   1.967   2.833 -0.0868  0.0367  0.0353
 7730TIP3    H123154   1.443   1.893   2.880  0.0197  0.4234  0.7545
 7730TIP3    H223155   1.528   1.929   2.760 -0.1320 -0.5918  0.3310
 7731TIP3   OH223156   4.156   6.790   2.353 -0.2078  0.4125  0.7350
 7731TIP3    H123157   4.206   6.709   2.359 -0.2655 -0.0318 -2.6946
 7731TIP3    H223158   4.072   6.763   2.317  0.1387  2.0210 -1.4710
 7732TIP3   OH223159   0.073   2.466   1.490  0.3110  0.0674 -0.6478
 7732TIP3    H123160   0.036   2.378   1.504  2.1197 -0.6973 -0.4820
 7732TIP3    H223161   0.043   2.490   1.402 -1.5714  0.0175 -0.0681
 7733TIP3   OH223162   5.665   3.364   5.445 -0.4565  0.3423  0.0379
 7733TIP3    H123163   5.574   3.348   5.421 -0.6431  1.1832  0.1566
 7733TIP3    H223164   5.684   3.452   5.410 -0.1453  0.7919  1.2947
 7734TIP3   OH223165   5.834   6.070   2.180  0.0735  0.0944 -0.0188
 7734TIP3    H123166   5.777   6.005   2.139 -0.9228  1.1520 -0.3878
 7734TIP3    H223167   5.791   6.091   2.262  0.8020 -0.2659  0.4625
 7735TIP3   OH223168   0.311   4.411   1.653  0.0905  0.5028  0.4559
 7735TIP3    H123169   0.248   4.446   1.717  1.6156  1.6296  1.4129
 7735TIP3    H223170   0.343   4.489   1.607 -0.3945 -0.2215 -1.1647
 7736TIP3   OH223171   3.194   5.246   0.782  0.2186  0.3039  0.1478
 7736TIP3    H123172   3.170   5.289   0.700 -0.5472  0.4273  0.4276
 7736TIP3    H223173   3.230   5.161   0.755 -1.2933 -0.2256 -0.2677
 7737TIP3   OH223174   7.148   3.394   0.411  1.0758  0.4042  0.2709
 7737TIP3    H123175   7.223   3.369   0.465  0.9273 -1.9775 -0.5140
 7737TIP3    H223176   7.074   3.348   0.450  0.4930  0.7024 -0.4625
 7738TIP3   OH223177   4.637   0.461   3.103 -0.0712  1.0868 -0.1682
 7738TIP3    H123178   4.611   0.502   3.186 -0.4675  0.5552 -0.0262
 7738TIP3    H223179   4.720   0.417   3.123 -1.7139 -1.7821  0.8575
 7739TIP3   OH223180   2.376   2.549   5.036 -0.2315  0.2573  0.3231
 7739TIP3    H123181   2.348   2.574   4.948 -0.2349  0.9113  0.5086
 7739TIP3    H223182   2.406   2.458   5.026  1.1624  0.7813 -0.6759
 7740TIP3   OH223183   0.677   0.564   3.811  0.4097  0.5770 -0.0049
 7740TIP3    H123184   0.735   0.569   3.886  2.0216 -0.4338 -1.1194
 7740TIP3    H223185   0.680   0.472   3.785 -2.2446  0.3354  0.2805
 7741TIP3   OH223186   0.545   6.526   5.449 -0.2341  0.0819  0.2391
 7741TIP3    H123187   0.607   6.596   5.429  1.4587 -1.3302  0.3022
 7741TIP3    H223188   0.529   6.482   5.366 -0.9400  0.2448  0.2779
 7742TIP3   OH223189   5.381   2.157   4.500 -0.1255 -0.5367  0.0858
 7742TIP3    H123190   5.289   2.148   4.475 -0.0812  0.2310 -0.4075
 7742TIP3    H223191   5.394   2.252   4.510  0.9119 -0.5209 -1.0646
 7743TIP3   OH223192   0.136   3.107   4.432 -0.3007  0.5021 -0.3752
 7743TIP3    H123193   0.225   3.119   4.465  0.5297  0.7041 -2.5324
 7743TIP3    H223194   0.108   3.023   4.469  0.5542  0.6920  0.7660
 7744TIP3   OH223195   3.143   6.164   0.762 -0.0167 -0.0222 -0.0055
 7744TIP3    H123196   3.161   6.107   0.688 -0.5531  1.0164 -0.9771
 7744TIP3    H223197   3.166   6.252   0.731  1.9577  0.2075  1.8413
 7745TIP3   OH223198   6.423   4.290   2.427  0.4354 -1.0543 -0.2780
 7745TIP3    H123199   6.424   4.222   2.495  1.0054 -1.4719 -0.6886
 7745TIP3    H223200   6.341   4.336   2.440  0.5584 -1.1057  0.7154
 7746TIP3   OH223201   5.058   2.461   3.253 -0.3318 -0.2850 -0.3304
 7746TIP3    H123202   5.070   2.386   3.311 -2.5219 -1.2303 -1.0309
 7746TIP3    H223203   4.974   2.498   3.278  0.4956  1.7434 -0.2856
 7747TIP3   OH223204   6.598   3.371   0.901 -0.3487  0.6703  0.1367
 7747TIP3    H123205   6.587   3.455   0.945 -1.2784  0.5789  0.1118
 7747TIP3    H223206   6.688   3.345   0.920 -0.2012  1.4502  0.5326
 7748TIP3   OH223207   1.577   2.304   2.057 -0.0206  0.6313  0.4020
 7748TIP3    H123208   1.522   2.255   2.117  0.1301 -0.0123  0.0239
 7748TIP3    H223209   1.529   2.385   2.040 -0.7109  0.1981  0.2918
 7749TIP3   OH223210   1.217   1.926   4.523  0.1286 -0.0409  0.3815
 7749TIP3    H123211   1.287   1.910   4.460 -0.5083  0.1655 -0.4016
 7749TIP3    H223212   1.138   1.936   4.469 -0.1169  2.1668  1.0512
 7750TIP3   OH223213   6.971   5.365   0.938  0.1112  0.5236  0.1596
 7750TIP3    H123214   6.893   5.312   0.954  0.7372 -0.4327  0.1181
 7750TIP3    H223215   6.942   5.455   0.952 -1.3741  0.3230 -1.2337
 7751TIP3   OH223216   0.425   0.869   2.828  0.5296  0.8641  0.3782
 7751TIP3    H123217   0.484   0.794   2.812  0.2466  0.9693 -1.3871
 7751TIP3    H223218   0.460   0.938   2.772 -0.7877  1.1879 -0.0560
 7752TIP3   OH223219   5.722   6.496   4.898  0.7188 -0.3225 -0.1640
 7752TIP3    H123220   5.792   6.548   4.858 -0.3921  0.5777 -1.0128
 7752TIP3    H223221   5.680   6.555   4.960 -0.6454 -0.1094 -1.2367
 7753TIP3   OH223222   5.094   1.113   3.803 -0.3405 -0.5585 -0.4020
 7753TIP3    H123223   5.019   1.166   3.777 -1.0365 -0.6957  1.1832
 7753TIP3    H223224   5.163   1.134   3.740 -1.7483 -0.5454 -1.9834
 7754TIP3   OH223225   6.263   1.604   3.905  0.6981 -0.0731 -0.5131
 7754TIP3    H123226   6.337   1.657   3.936  1.5649 -1.8878  0.7245
 7754TIP3    H223227   6.290   1.573   3.819 -0.0164  1.7756 -1.4653
 7755TIP3   OH223228   6.792   6.096   1.640 -0.2142  0.1238 -0.2692
 7755TIP3    H123229   6.738   6.068   1.566  0.7629 -1.8234 -0.3276
 7755TIP3    H223230   6.775   6.031   1.708 -0.1207  1.1510  0.7586
 7756TIP3   OH223231   4.620   0.841   4.217  0.3953  0.1869  1.0328
 7756TIP3    H123232   4.548   0.778   4.216 -1.4233  2.1516  1.1202
 7756TIP3    H223233   4.689   0.797   4.266  0.5822 -3.0729 -1.7918
 7757TIP3   OH223234   3.245   0.266   3.648  0.0908  0.7044  0.5427
 7757TIP3    H123235   3.230   0.267   3.553 -1.0156  0.2198  0.6956
 7757TIP3    H223236   3.267   0.175   3.668  1.5306  1.0368  0.6025
 7758TIP3   OH223237   5.452   2.285   1.427  0.5743 -0.4157  0.7046
 7758TIP3    H123238   5.361   2.287   1.458 -0.3549  0.3371 -1.8268
 7758TIP3    H223239   5.445   2.264   1.334  3.1207 -1.6713  0.7185
 7759TIP3   OH223240   3.575   0.998   3.033  0.2212 -0.3729 -0.3241
 7759TIP3    H123241   3.500   0.993   3.092  0.7178  1.2418  0.5046
 7759TIP3    H223242   3.537   1.021   2.948 -0.2626  0.1096  0.0185
 7760TIP3   OH223243   6.006   6.395   3.237 -0.3364  0.0699  0.2070
 7760TIP3    H123244   5.939   6.410   3.170  0.5601  0.3952 -0.6434
 7760TIP3    H223245   5.969   6.432   3.317 -0.6733  1.3686 -0.5209
 7761TIP3   OH223246   2.896   3.817   1.261  0.4178  0.2172  0.0970
 7761TIP3    H123247   2.870   3.863   1.340 -0.2471  2.6675 -1.4392
 7761TIP3    H223248   2.847   3.734   1.264  0.1250  0.4190  2.0081
 7762TIP3   OH223249   1.553   6.734   5.832  0.0653  0.3445 -0.1209
 7762TIP3    H123250   1.547   6.811   5.777 -0.0989  0.3456 -0.1033
 7762TIP3    H223251   1.540   6.766   5.921 -0.1498  0.2777 -0.1271
 7763TIP3   OH223252   2.157   4.872   1.004 -0.1722  0.2850 -0.1434
 7763TIP3    H123253   2.068   4.888   1.037  0.1656 -2.1358  2.2837
 7763TIP3    H223254   2.210   4.940   1.045 -0.5133  0.1711  0.5008
 7764TIP3   OH223255   0.797   3.739   4.198 -0.1448  0.8012 -0.3196
 7764TIP3    H123256   0.826   3.822   4.160 -0.0319  0.5058 -0.8888
 7764TIP3    H223257   0.741   3.700   4.131 -1.1963  0.9762  0.4383
 7765TIP3   OH223258   2.639   4.652   5.697 -0.0700  0.0853  0.5289
 7765TIP3    H123259   2.551   4.616   5.697 -0.8876  1.9311  0.1287
 7765TIP3    H223260   2.693   4.584   5.658 -1.6667 -0.3619 -1.0469
 7766TIP3   OH223261   3.311   1.793   3.422  0.7047  0.4441 -0.0536
 7766TIP3    H123262   3.264   1.868   3.458  0.0935 -1.2049  2.9888
 7766TIP3    H223263   3.398   1.826   3.399  1.1582  1.7331  3.1078
 7767TIP3   OH223264   3.724   6.365   1.538  0.1956 -0.4775  0.7461
 7767TIP3    H123265   3.736   6.334   1.449 -1.4157  0.8437  0.0068
 7767TIP3    H223266   3.713   6.286   1.591 -0.7046 -1.2299 -0.5378
 7768TIP3   OH223267   1.227   6.378   4.459 -0.1593 -0.2768  0.1479
 7768TIP3    H123268   1.242   6.471   4.479  0.1640 -0.2399 -0.2488
 7768TIP3    H223269   1.313   6.337   4.469  0.0767 -0.2055 -1.4020
 7769TIP3   OH223270   1.070   2.537   3.197  0.4166  0.7425 -0.0070
 7769TIP3    H123271   0.976   2.529   3.177  0.7381  0.8723 -1.7135
 7769TIP3    H223272   1.075   2.612   3.257 -0.5659  0.7215  0.1265
 7770TIP3   OH223273   6.519   4.084   5.619  0.1287  0.2695  0.5248
 7770TIP3    H123274   6.506   3.991   5.638 -1.1268  0.4838  0.8002
 7770TIP3    H223275   6.520   4.126   5.705 -0.1026  0.6051  0.3642
 7771TIP3   OH223276   1.285   5.688   4.295 -0.2354  0.5480 -0.2311
 7771TIP3    H123277   1.320   5.771   4.264 -0.3170  0.3064 -0.9905
 7771TIP3    H223278   1.271   5.636   4.215  0.2337 -0.3613  0.2554
 7772TIP3   OH223279   0.759   4.706   2.491  0.0464 -0.3002 -0.0858
 7772TIP3    H123280   0.715   4.684   2.573  1.0969 -0.7054  0.3874
 7772TIP3    H223281   0.693   4.752   2.440 -0.9606 -1.0218  0.5413
 7773TIP3   OH223282   5.208   6.514   2.456  0.6748  0.4798  0.2980
 7773TIP3    H123283   5.214   6.483   2.546  3.3915 -0.1067  0.0037
 7773TIP3    H223284   5.114   6.513   2.436 -0.1296  1.8103  3.4630
 7774TIP3   OH223285   5.226   5.396   1.206  0.5212  0.6082  0.4006
 7774TIP3    H123286   5.141   5.438   1.193  0.3290  0.0079 -0.3596
 7774TIP3    H223287   5.241   5.347   1.126  2.4257  2.1349 -0.2565
 7775TIP3   OH223288   1.395   3.619   4.165  0.2958  0.3701  0.0558
 7775TIP3    H123289   1.375   3.710   4.189  0.2280  0.4400 -0.2548
 7775TIP3    H223290   1.316   3.570   4.184  0.2086  0.4434 -0.1144
 7776TIP3   OH223291   7.127   2.776   0.208 -0.1348  0.1878  0.1209
 7776TIP3    H123292   7.180   2.757   0.131 -1.4234  1.3132 -1.1016
 7776TIP3    H223293   7.058   2.709   0.208  1.5034 -1.6226  2.0277
 7777TIP3   OH223294   5.233   0.335   1.019 -0.3083 -0.0286 -0.6092
 7777TIP3    H123295   5.285   0.281   1.079 -2.5982  1.8622  3.4733
 7777TIP3    H223296   5.294   0.401   0.986  1.1236 -1.3990 -0.8246
 7778TIP3   OH223297   3.006   5.660   5.105  0.0459  0.2165 -0.0984
 7778TIP3    H123298   2.969   5.613   5.180  0.8340  1.2117  0.9627
 7778TIP3    H223299   2.978   5.751   5.119  0.7325  0.5185 -0.6690
 7779TIP3   OH223300   6.117   5.488   4.302  0.4944 -0.3556 -0.0319
 7779TIP3    H123301   6.083   5.549   4.237  0.5401 -0.5887 -0.2731
 7779TIP3    H223302   6.053   5.489   4.373  0.2854 -0.3460 -0.2231
 7780TIP3   OH223303   0.153   3.166   3.462  0.0093  0.4701 -0.0305
 7780TIP3    H123304   0.099   3.245   3.469  0.1959  0.6121 -0.2218
 7780TIP3    H223305   0.235   3.189   3.505  0.0854  0.3999 -0.1384
 7781TIP3   OH223306   0.588   3.435   2.951 -0.4267  0.3440 -0.0991
 7781TIP3    H123307   0.570   3.342   2.969 -1.5614  0.3870 -0.9294
 7781TIP3    H223308   0.670   3.434   2.903 -0.0848 -0.1755  0.4760
 7782TIP3   OH223309   0.095   0.945   4.473 -0.0993  0.4033 -0.3484
 7782TIP3    H123310   0.084   0.889   4.395  0.4101 -0.2320  0.0183
 7782TIP3    H223311   0.141   0.889   4.536  0.2189  1.1736  0.1188
 7783TIP3   OH223312   5.269   1.388   3.915  0.9009 -0.1718 -0.1368
 7783TIP3    H123313   5.341   1.333   3.886 -0.4867 -2.1008 -0.0864
 7783TIP3    H223314   5.298   1.422   4.000  2.2150  0.1168 -0.6598
 7784TIP3   OH223315   5.572   1.295   0.856 -0.2584  0.5213  0.1704
 7784TIP3    H123316   5.551   1.224   0.796  0.2084 -0.6920  1.4045
 7784TIP3    H223317   5.663   1.281   0.880 -0.0136  1.8125  0.1103
 7785TIP3   OH223318   6.921   3.710   0.762  0.1428 -0.3295  0.3448
 7785TIP3    H123319   6.966   3.781   0.807 -0.0032 -0.2244  0.3240
 7785TIP3    H223320   6.990   3.667   0.710  0.0879  0.2456 -0.2155
 7786TIP3   OH223321   5.511   0.208   3.585  0.2533  0.4599  0.1079
 7786TIP3    H123322   5.526   0.127   3.536  0.0492 -0.2411  1.1743
 7786TIP3    H223323   5.463   0.264   3.524 -2.2183 -1.3125  0.2503
 7787TIP3   OH223324   1.428   0.659   3.338 -0.1153 -1.0107 -0.1323
 7787TIP3    H123325   1.513   0.695   3.361 -0.5029  0.1208 -0.4000
 7787TIP3    H223326   1.388   0.636   3.422 -0.1714 -0.0663  0.1080
 7788TIP3   OH223327   0.405   3.373   0.053 -0.0502 -0.3358  0.4208
 7788TIP3    H123328   0.461   3.302   0.083  0.2400 -0.8759 -1.3346
 7788TIP3    H223329   0.323   3.360   0.100  0.2697 -1.3435  0.7229
 7789TIP3   OH223330   6.868   5.001   4.079 -0.5002 -0.6436 -0.1938
 7789TIP3    H123331   6.785   4.984   4.034 -1.2698  1.5551  0.2576
 7789TIP3    H223332   6.921   5.046   4.014 -0.2340 -0.7339 -0.0375
 7790TIP3   OH223333   6.578   3.482   2.278 -0.8016  0.2612  0.1031
 7790TIP3    H123334   6.547   3.571   2.259 -2.6981 -0.0718  1.3396
 7790TIP3    H223335   6.528   3.456   2.355 -0.8182 -2.1426 -0.6501
 7791TIP3   OH223336   4.425   0.990   3.650 -0.0059 -0.7971  0.3311
 7791TIP3    H123337   4.514   0.959   3.637  0.3989  0.5058 -0.1554
 7791TIP3    H223338   4.409   0.976   3.744  1.5876  1.0738  0.9538
 7792TIP3   OH223339   4.742   1.670   2.275  0.4828 -0.0958 -0.3257
 7792TIP3    H123340   4.711   1.582   2.298 -0.3393  0.7101  1.9113
 7792TIP3    H223341   4.837   1.665   2.286  0.3663 -0.4973  0.5919
 7793TIP3   OH223342   2.494   5.447   0.439 -0.4963 -0.3231  0.4964
 7793TIP3    H123343   2.460   5.523   0.393  0.9615  0.6219  0.8970
 7793TIP3    H223344   2.528   5.390   0.370 -0.2621  0.0857  0.2720
 7794TIP3   OH223345   0.652   1.011   4.754  0.4256  0.1676 -0.2921
 7794TIP3    H123346   0.645   0.945   4.823  0.3613  0.7587  0.2739
 7794TIP3    H223347   0.597   0.977   4.683  0.8626 -0.6665 -0.2386
 7795TIP3   OH223348   6.297   2.773   4.426 -0.3919 -0.1755  0.2281
 7795TIP3    H123349   6.375   2.758   4.372 -1.5059  0.1590 -1.5823
 7795TIP3    H223350   6.308   2.863   4.458 -0.6838  0.4190 -1.2482
 7796TIP3   OH223351   6.740   3.051   0.808 -0.0420 -0.6892 -0.5902
 7796TIP3    H123352   6.735   3.122   0.744 -2.4803  1.0635  1.3407
 7796TIP3    H223353   6.823   3.066   0.854 -1.2919  2.1679  0.9779
 7797TIP3   OH223354   3.598   2.909   3.946  0.2305  0.5336 -0.3071
 7797TIP3    H123355   3.625   2.844   4.011  2.3148  1.2947 -0.3041
 7797TIP3    H223356   3.607   2.993   3.992 -0.5458  0.9439 -0.8879
 7798TIP3   OH223357   2.733   0.319   2.720 -0.1325  0.0494  0.1386
 7798TIP3    H123358   2.698   0.403   2.746  0.4074  0.2179  0.3410
 7798TIP3    H223359   2.821   0.317   2.758 -0.2496 -0.7302  0.3919
 7799TIP3   OH223360   6.020   5.215   4.545 -0.2893 -0.3748 -0.0043
 7799TIP3    H123361   6.086   5.270   4.588 -0.5127 -1.0657  1.2637
 7799TIP3    H223362   5.936   5.254   4.571 -0.4789 -1.7047  1.5169
 7800TIP3   OH223363   3.622   1.134   5.299 -0.3006 -0.0471  0.3224
 7800TIP3    H123364   3.683   1.073   5.257  0.0766  1.0680 -0.8150
 7800TIP3    H223365   3.657   1.148   5.386  1.0248  0.4784 -0.2737
 7801TIP3   OH223366   2.260   4.475   2.229 -0.1256  0.2911 -0.4762
 7801TIP3    H123367   2.348   4.506   2.249  1.0053 -2.1095 -1.4847
 7801TIP3    H223368   2.246   4.402   2.289 -1.1431  0.1694 -0.8435
 7802TIP3   OH223369   0.509   0.881   1.107 -0.7691 -0.0286 -0.2694
 7802TIP3    H123370   0.498   0.806   1.049 -2.0490 -0.2130  0.1768
 7802TIP3    H223371   0.587   0.860   1.159 -0.8075 -0.7970 -0.5133
 7803TIP3   OH223372   0.569   4.635   0.862 -0.4430 -0.2847 -0.4569
 7803TIP3    H123373   0.617   4.628   0.779 -0.0255  1.9277 -0.4787
 7803TIP3    H223374   0.635   4.621   0.929  0.6934  3.7284 -0.4605
 7804TIP3   OH223375   0.070   0.821   1.085  0.5585 -0.0640 -0.0322
 7804TIP3    H123376   0.052   0.794   1.175  1.4369 -1.0279 -0.1234
 7804TIP3    H223377   0.121   0.902   1.093 -1.0029  0.9269  0.2780
 7805TIP3   OH223378   5.758   1.285   5.519 -0.1667  0.5867  0.7263
 7805TIP3    H123379   5.733   1.225   5.449  1.8999 -0.5495  0.8946
 7805TIP3    H223380   5.763   1.229   5.597 -0.4392  1.4376  1.3660
 7806TIP3   OH223381   4.680   4.697   2.396 -0.2430 -0.1562 -0.3398
 7806TIP3    H123382   4.713   4.633   2.459 -1.4784  0.0008  0.4940
 7806TIP3    H223383   4.694   4.656   2.310 -0.8204 -1.4620  0.1687
 7807TIP3   OH223384   5.260   6.635   1.631 -0.0789 -0.8350  0.3825
 7807TIP3    H123385   5.319   6.664   1.561 -0.3752  0.5766  0.6865
 7807TIP3    H223386   5.247   6.542   1.613 -0.6175 -0.4139 -1.7954
 7808TIP3   OH223387   2.366   5.804   4.956 -0.0688 -0.4875 -0.0383
 7808TIP3    H123388   2.352   5.720   4.999 -0.3708 -0.1827  0.4620
 7808TIP3    H223389   2.449   5.836   4.991 -0.5279 -0.0359  0.6599
 7809TIP3   OH223390   6.575   4.381   3.260  0.2590 -0.0909 -0.3202
 7809TIP3    H123391   6.562   4.306   3.202 -2.2226  0.6683 -0.8435
 7809TIP3    H223392   6.504   4.375   3.324 -0.1579  1.9154 -0.5221
 7810TIP3   OH223393   0.682   4.627   3.881  0.6881 -0.2514 -0.2650
 7810TIP3    H123394   0.634   4.595   3.805  0.6838  1.9882 -1.2860
 7810TIP3    H223395   0.741   4.555   3.904  0.4474 -1.1230 -2.1852
 7811TIP3   OH223396   6.302   2.579   2.256 -0.1503  0.0246 -0.2217
 7811TIP3    H123397   6.335   2.646   2.196  0.1131 -0.0864 -0.2037
 7811TIP3    H223398   6.299   2.622   2.341 -0.6205  0.2129 -0.3298
 7812TIP3   OH223399   5.509   2.648   5.688  0.1608  0.1708 -0.3615
 7812TIP3    H123400   5.532   2.557   5.668 -0.4349 -0.0034 -0.2724
 7812TIP3    H223401   5.552   2.666   5.772 -1.0728 -0.5753  0.4644
 7813TIP3   OH223402   3.451   6.128   2.227  0.2120  0.0295  0.0817
 7813TIP3    H123403   3.463   6.222   2.241  1.8375  0.1609 -1.7408
 7813TIP3    H223404   3.392   6.123   2.152  0.2203 -0.4015  0.1068
 7814TIP3   OH223405   4.741   5.217   4.406 -0.0294  0.1022 -0.7141
 7814TIP3    H123406   4.734   5.271   4.327  2.2264  0.2549 -0.8873
 7814TIP3    H223407   4.812   5.257   4.456  0.8658 -1.9267 -0.2394
 7815TIP3   OH223408   4.298   0.601   0.904  0.4625 -0.4857  0.6083
 7815TIP3    H123409   4.263   0.685   0.874  0.1275  0.0246  2.3308
 7815TIP3    H223410   4.285   0.542   0.830  0.0148  0.7891 -0.3702
 7816TIP3   OH223411   7.039   0.263   3.531 -0.0054  0.1327  0.3316
 7816TIP3    H123412   7.132   0.240   3.538 -0.0294  0.4201  1.9126
 7816TIP3    H223413   7.031   0.344   3.582 -0.9920  0.5043 -0.4064
 7817TIP3   OH223414   6.687   3.736   0.628  0.2332 -0.2235  0.3701
 7817TIP3    H123415   6.608   3.752   0.679 -0.6781 -0.0011 -1.0522
 7817TIP3    H223416   6.758   3.737   0.692 -0.8100  0.4749  1.5545
 7818TIP3   OH223417   1.401   1.836   5.276  0.2304 -0.0740 -0.5394
 7818TIP3    H123418   1.356   1.788   5.207 -1.2651  0.4350  0.0410
 7818TIP3    H223419   1.450   1.904   5.230  0.7934 -0.9114 -1.2163
 7819TIP3   OH223420   6.347   0.552   0.326 -0.1092  0.0057  0.3556
 7819TIP3    H123421   6.309   0.520   0.245 -0.0730 -2.8878  1.3488
 7819TIP3    H223422   6.432   0.507   0.332  0.1816  0.6698  1.6759
 7820TIP3   OH223423   0.284   1.655   4.107 -0.1537 -0.6276  0.4613
 7820TIP3    H123424   0.238   1.633   4.188  1.4312 -0.8741  1.3371
 7820TIP3    H223425   0.376   1.642   4.128  0.6312  2.9858 -0.2185
 7821TIP3   OH223426   1.131   2.084   2.549  0.1445  0.5937 -0.3939
 7821TIP3    H123427   1.223   2.077   2.527  0.5921  4.1212 -0.2556
 7821TIP3    H223428   1.119   2.024   2.623  2.2973  0.0485 -0.4423
 7822TIP3   OH223429   5.746   0.601   0.683 -0.3287 -0.0695 -0.1128
 7822TIP3    H123430   5.821   0.660   0.684 -0.1967 -0.2445  0.4682
 7822TIP3    H223431   5.780   0.518   0.715 -0.2904 -0.7472 -1.7720
 7823TIP3   OH223432   2.015   5.084   0.282  0.0989  0.2321  0.2140
 7823TIP3    H123433   2.036   5.017   0.217 -0.3996 -0.5252  0.8109
 7823TIP3    H223434   2.070   5.159   0.258  1.7769 -0.8789  0.3672
 7824TIP3   OH223435   5.232   1.627   3.000 -0.4899 -0.7241  0.0671
 7824TIP3    H123436   5.294   1.560   3.028  1.4574  1.2811  0.9021
 7824TIP3    H223437   5.150   1.604   3.043  0.3060 -2.1966  0.8529
 7825TIP3   OH223438   2.350   1.227   2.313 -0.2475  0.1250  0.1534
 7825TIP3    H123439   2.409   1.282   2.262 -0.8549  1.1569  0.5286
 7825TIP3    H223440   2.339   1.274   2.396  0.8207 -1.5727  1.3140
 7826TIP3   OH223441   1.527   5.311   0.041  0.1865 -0.0636  0.6232
 7826TIP3    H123442   1.499   5.335  -0.048  0.8132  0.9193  0.6782
 7826TIP3    H223443   1.534   5.216   0.039  0.9490  0.0011 -0.6145
 7827TIP3   OH223444   4.670   1.702   2.008 -0.0649  0.4007 -0.3018
 7827TIP3    H123445   4.686   1.681   2.100 -0.0871  0.9410 -0.1704
 7827TIP3    H223446   4.666   1.617   1.965 -1.6926  0.0301  0.4712
 7828TIP3   OH223447   2.076   0.687   3.496 -0.2023  0.0848  0.0011
 7828TIP3    H123448   2.001   0.675   3.554 -1.4839  1.2022 -1.3496
 7828TIP3    H223449   2.124   0.760   3.535 -0.4410  0.1179  0.2385
 7829TIP3   OH223450   1.666   4.197   1.151 -0.4365 -0.6513  0.1033
 7829TIP3    H123451   1.661   4.231   1.061 -1.5555 -0.0026  0.3972
 7829TIP3    H223452   1.717   4.262   1.198 -0.4046 -0.6649  0.0877
 7830TIP3   OH223453   1.721   1.149   1.795  0.0390 -0.4340 -0.3246
 7830TIP3    H123454   1.762   1.217   1.741 -0.5309  0.5189  0.3947
 7830TIP3    H223455   1.645   1.193   1.834 -0.7068 -1.6781 -0.3237
 7831TIP3   OH223456   0.004   4.828   1.910 -0.0057  0.2910  0.0132
 7831TIP3    H123457   0.098   4.840   1.925  0.0059  0.9749 -0.5696
 7831TIP3    H223458  -0.018   4.894   1.845 -1.1145  0.8789  0.9486
 7832TIP3   OH223459   2.246   6.415   4.883 -0.1539 -0.1583 -1.0072
 7832TIP3    H123460   2.163   6.372   4.862  0.3289 -1.0662 -1.0909
 7832TIP3    H223461   2.285   6.435   4.798  0.8739 -2.0399 -1.0392
 7833TIP3   OH223462   4.160   0.995   5.137 -0.7424 -0.2082 -0.1783
 7833TIP3    H123463   4.101   1.067   5.117  0.0246  0.1458 -1.2908
 7833TIP3    H223464   4.185   1.009   5.229 -2.6746 -0.6182  0.4387
 7834TIP3   OH223465   5.744   5.121   2.950 -0.0107 -0.5597  0.6301
 7834TIP3    H123466   5.671   5.143   2.891  1.5316  1.8608 -0.5389
 7834TIP3    H223467   5.749   5.026   2.946  0.4607 -0.5566 -3.8807
 7835TIP3   OH223468   2.408   0.168   1.320  0.5333  0.1859 -0.3567
 7835TIP3    H123469   2.351   0.130   1.253  0.2351  0.0904 -0.0554
 7835TIP3    H223470   2.407   0.104   1.392  1.0111  0.1919 -0.3404
 7836TIP3   OH223471   0.191   1.668   2.038  0.2603  0.1570  0.2468
 7836TIP3    H123472   0.106   1.635   2.007 -0.4011 -0.2876  2.3837
 7836TIP3    H223473   0.172   1.708   2.122  1.9111  1.6564 -0.0306
 7837TIP3   OH223474   3.169   6.503   4.513  0.1959 -0.2757  0.0041
 7837TIP3    H123475   3.225   6.442   4.465 -1.2276 -0.1561 -1.9410
 7837TIP3    H223476   3.094   6.450   4.539 -0.6843  0.4310 -1.0147
 7838TIP3   OH223477   1.924   1.878   0.478 -0.2450  0.6136  0.0586
 7838TIP3    H123478   1.910   1.937   0.404 -0.5907  0.3660 -0.0771
 7838TIP3    H223479   1.992   1.818   0.449  1.5655  2.1429  0.9069
 7839TIP3   OH223480   0.345   6.710   0.292 -0.0039  0.3434  0.3314
 7839TIP3    H123481   0.412   6.645   0.272 -0.5247 -0.0720 -0.1166
 7839TIP3    H223482   0.277   6.695   0.226 -1.4177 -0.5213  1.8943
 7840TIP3   OH223483   5.722   1.672   4.410  0.3366 -0.0616  0.3514
 7840TIP3    H123484   5.792   1.617   4.445 -0.2906 -0.8053  0.4610
 7840TIP3    H223485   5.725   1.751   4.464  0.9617 -0.1671  0.4791
 7841TIP3   OH223486   5.378   5.770   5.121  0.0936  0.0155 -0.0268
 7841TIP3    H123487   5.457   5.814   5.151  0.6441  0.2715 -1.7367
 7841TIP3    H223488   5.311   5.838   5.121 -0.1730 -0.2196  1.4974
 7842TIP3   OH223489   2.618   6.569   3.273  0.8858 -0.3042  0.5365
 7842TIP3    H123490   2.704   6.600   3.244 -0.1451  0.0154 -2.5434
 7842TIP3    H223491   2.581   6.644   3.321  1.0231  0.9209 -1.1478
 7843TIP3   OH223492   1.138   2.116   2.268  0.0317  0.0151  0.0952
 7843TIP3    H123493   1.112   2.100   2.359 -2.0203  1.1809 -0.2272
 7843TIP3    H223494   1.120   2.209   2.254  0.8758 -0.0192 -1.3355
 7844TIP3   OH223495   3.259   2.470   0.955 -0.5654 -0.0741 -0.6373
 7844TIP3    H123496   3.247   2.376   0.969  0.8390  0.0760  2.3776
 7844TIP3    H223497   3.231   2.511   1.036  0.2237  1.9864 -1.3248
 7845TIP3   OH223498   6.073   2.454   1.403 -0.0639 -0.1256  0.0182
 7845TIP3    H123499   6.069   2.379   1.345  1.6438 -0.2962  0.0564
 7845TIP3    H223500   6.094   2.417   1.489 -1.4116  0.2245  0.5200
 7846TIP3   OH223501   2.046   5.012   2.642 -0.5095  0.3079 -0.6397
 7846TIP3    H123502   2.064   5.097   2.683  0.0462  0.1182 -0.4782
 7846TIP3    H223503   2.113   5.004   2.574  1.1685 -1.1786  1.0867
 7847TIP3   OH223504   0.046   2.843   4.396 -0.2530  0.1337 -0.0840
 7847TIP3    H123505   0.051   2.851   4.301  1.7489  0.0941 -0.0282
 7847TIP3    H223506  -0.035   2.795   4.412  0.1805 -1.3216 -1.8979
 7848TIP3   OH223507   5.573   4.133   3.748  0.2094 -0.2427 -0.3877
 7848TIP3    H123508   5.535   4.086   3.673  0.3234 -0.1419 -0.5086
 7848TIP3    H223509   5.568   4.225   3.723  1.2957 -0.2703 -0.7634
 7849TIP3   OH223510   0.117   4.506   5.808  0.3783 -0.9801  0.2260
 7849TIP3    H123511   0.175   4.434   5.784  1.4357  0.3657 -1.4990
 7849TIP3    H223512   0.173   4.584   5.805 -0.8830  0.0252  1.3515
 7850TIP3   OH223513   1.339   3.573   1.854  0.4009 -0.1327  0.1055
 7850TIP3    H123514   1.284   3.619   1.917 -0.1537  0.7869 -1.0175
 7850TIP3    H223515   1.304   3.599   1.768  1.7800 -0.5360 -0.6016
 7851TIP3   OH223516   1.050   6.036   3.246 -0.7082  0.1960  0.1279
 7851TIP3    H123517   1.014   6.125   3.240 -0.8824  0.0829 -0.5442
 7851TIP3    H223518   1.143   6.047   3.224 -0.9157  0.0878 -0.8420
 7852TIP3   OH223519   2.014   3.903   1.839  0.1950 -0.1000 -0.0698
 7852TIP3    H123520   1.948   3.907   1.770 -0.9934 -0.2120  1.0194
 7852TIP3    H223521   1.998   3.818   1.882  0.8470  0.0130  0.3991
 7853TIP3   OH223522   3.131   3.577   1.268 -0.2083  0.3690  0.4929
 7853TIP3    H123523   3.045   3.606   1.238  0.2763  0.4149 -0.8826
 7853TIP3    H223524   3.112   3.501   1.324 -1.1250  0.1780 -0.0521
 7854TIP3   OH223525   2.917   3.773   4.212  0.0358  0.3064  0.0785
 7854TIP3    H123526   2.914   3.748   4.120 -0.0933  0.0233  0.1581
 7854TIP3    H223527   2.927   3.868   4.211 -1.8858  0.5463 -0.2284
 7855TIP3   OH223528   6.699   2.210   3.524  0.4038 -0.2780  0.3462
 7855TIP3    H123529   6.610   2.214   3.490  1.2703  0.7217 -2.0703
 7855TIP3    H223530   6.754   2.222   3.446  2.6391 -0.3876  1.8321
 7856TIP3   OH223531   1.948   0.996   4.638 -0.0049  0.3819 -0.2638
 7856TIP3    H123532   2.038   0.985   4.669 -0.8725  0.0932  2.4196
 7856TIP3    H223533   1.956   1.047   4.558  2.6018 -0.5503 -0.6833
 7857TIP3   OH223534   4.676   3.834   2.997 -0.0701 -0.4443 -0.1812
 7857TIP3    H123535   4.652   3.743   2.979  1.5410 -1.4862  2.3868
 7857TIP3    H223536   4.764   3.829   3.035 -0.6259  1.9803  1.7034
 7858TIP3   OH223537   1.177   6.790   3.494  0.1703 -0.7780  0.5905
 7858TIP3    H123538   1.247   6.783   3.560 -0.9169 -0.0928  1.8577
 7858TIP3    H223539   1.105   6.738   3.530 -0.6104 -0.0034  0.1641
 7859TIP3   OH223540   4.590   6.015   2.090 -0.3277 -0.3812 -0.5211
 7859TIP3    H123541   4.603   6.038   1.998 -0.7320  1.9176 -0.0578
 7859TIP3    H223542   4.599   6.097   2.137 -1.8849 -1.2011  1.3426
 7860TIP3   OH223543   6.148   3.884   4.746 -0.3526  0.7005  0.3888
 7860TIP3    H123544   6.182   3.892   4.835 -0.5163 -0.9992  0.6218
 7860TIP3    H223545   6.071   3.941   4.745 -1.8382 -1.1302  2.1314
 7861TIP3   OH223546   6.230   4.368   3.714 -0.6698 -0.0257  0.0254
 7861TIP3    H123547   6.208   4.420   3.791 -2.0436  0.7972 -0.8575
 7861TIP3    H223548   6.151   4.316   3.697 -0.4672 -0.0419 -0.9270
 7862TIP3   OH223549   4.327   6.191   1.774 -0.2666  0.0812  0.6999
 7862TIP3    H123550   4.413   6.172   1.811 -0.1065 -0.3036  0.1450
 7862TIP3    H223551   4.339   6.274   1.728 -0.2038  0.0552  0.6688
 7863TIP3   OH223552   4.274   4.704   4.647 -0.3550  0.1892  0.2432
 7863TIP3    H123553   4.269   4.795   4.619 -0.3317 -0.2907 -1.4329
 7863TIP3    H223554   4.245   4.654   4.571 -0.3942 -1.2116  1.1397
 7864TIP3   OH223555   2.230   4.236   0.837  0.3663 -0.1037  0.3580
 7864TIP3    H123556   2.270   4.268   0.918 -2.6462 -0.6292  2.2618
 7864TIP3    H223557   2.267   4.149   0.825  1.9678  0.5557  0.2510
 7865TIP3   OH223558   1.004   3.062   0.569 -0.2620 -0.7766  0.2424
 7865TIP3    H123559   1.099   3.071   0.573 -0.1722 -1.2332 -0.5574
 7865TIP3    H223560   0.979   3.036   0.658  0.3785 -0.8058  0.4220
 7866TIP3   OH223561   6.329   5.036   2.172 -0.3661  0.3014 -0.1810
 7866TIP3    H123562   6.271   5.011   2.100 -1.8276  0.8854  0.7698
 7866TIP3    H223563   6.278   5.095   2.226  0.8806  0.2967  1.0812
 7867TIP3   OH223564   2.375   5.319   2.967 -0.0181 -0.2792 -0.0510
 7867TIP3    H123565   2.314   5.381   3.008  1.0487 -1.2187  3.2616
 7867TIP3    H223566   2.459   5.364   2.967  0.2956 -0.8530  0.2202
 7868TIP3   OH223567   3.972   6.066   4.950 -0.1215 -0.3866  0.0490
 7868TIP3    H123568   4.006   6.039   5.035 -1.5511  2.8669  1.8376
 7868TIP3    H223569   3.929   5.987   4.915  0.0444 -1.7040  2.5650
 7869TIP3   OH223570   6.010   2.595   1.785 -0.2177  0.0374  0.7569
 7869TIP3    H123571   5.980   2.504   1.789  0.0483 -0.0734  0.3205
 7869TIP3    H223572   6.105   2.589   1.784 -0.1987  0.2702 -0.0436
 7870TIP3   OH223573   3.723   6.773   5.102 -0.3456 -0.5139 -0.3575
 7870TIP3    H123574   3.814   6.751   5.124  0.1240  0.9554 -0.6851
 7870TIP3    H223575   3.680   6.689   5.090  1.1019 -1.2396 -0.7034
 7871TIP3   OH223576   5.321   1.044   4.566 -0.8272  0.3942 -0.0404
 7871TIP3    H123577   5.311   1.028   4.660 -0.8282  1.5570  0.1719
 7871TIP3    H223578   5.241   1.007   4.528 -1.0710  0.3667  0.4803
 7872TIP3   OH223579   5.431   0.687   4.814 -0.4326 -0.0166 -0.0038
 7872TIP3    H123580   5.484   0.609   4.830  0.7977  0.8651  0.3338
 7872TIP3    H223581   5.494   0.756   4.792 -1.4665  0.9721  0.0000
 7873TIP3   OH223582   2.692   1.620   5.693  0.1484  0.4724  0.0041
 7873TIP3    H123583   2.630   1.547   5.692 -0.3939  0.9281 -0.2589
 7873TIP3    H223584   2.777   1.579   5.675 -0.1487 -0.0904 -0.1565
 7874TIP3   OH223585   6.370   0.074   4.782  0.0685 -0.5609 -0.4226
 7874TIP3    H123586   6.313  -0.003   4.784  1.2637 -1.4586  0.1235
 7874TIP3    H223587   6.335   0.132   4.849 -0.4940 -0.8835 -0.4325
 7875TIP3   OH223588   5.685   5.901   1.988  0.0719 -0.1629  0.1909
 7875TIP3    H123589   5.594   5.924   1.967 -0.2387 -2.3644 -1.1396
 7875TIP3    H223590   5.682   5.808   2.009  1.8570  0.0152  1.4805
 7876TIP3   OH223591   0.787   0.329   3.725 -0.1320 -0.0826 -0.5491
 7876TIP3    H123592   0.848   0.255   3.736 -0.8968 -0.6703 -0.2017
 7876TIP3    H223593   0.840   0.397   3.684  1.2214 -0.0099  1.1664
 7877TIP3   OH223594   2.146   0.238   3.280  0.1943  0.2108 -0.7754
 7877TIP3    H123595   2.138   0.193   3.364  0.3736 -1.1968 -1.4703
 7877TIP3    H223596   2.160   0.330   3.302  1.7488 -0.3451  0.7592
 7878TIP3   OH223597   1.075   3.017   4.124  0.3688  0.4764  0.1185
 7878TIP3    H123598   0.991   2.973   4.109  0.2283  0.6539  0.3637
 7878TIP3    H223599   1.051   3.097   4.171  0.8534 -0.5695  2.3165
 7879TIP3   OH223600   4.618   5.252   0.392  0.1586  0.0651 -0.0068
 7879TIP3    H123601   4.634   5.316   0.323 -0.3395 -0.2642 -0.4316
 7879TIP3    H223602   4.644   5.168   0.354 -0.2487 -0.1362  0.1553
 7880TIP3   OH223603   2.028   2.560   4.248 -0.4489 -0.4511 -0.0435
 7880TIP3    H123604   2.062   2.556   4.337 -1.2379 -0.6637  0.2569
 7880TIP3    H223605   1.942   2.518   4.253 -0.3574 -0.7714 -0.9756
 7881TIP3   OH223606   2.970   3.287   1.329 -0.5090  0.0498  0.6128
 7881TIP3    H123607   2.930   3.201   1.319 -0.3629 -0.0794  1.1265
 7881TIP3    H223608   2.948   3.314   1.419  1.9829 -0.7667  1.5307
 7882TIP3   OH223609   3.235   6.041   2.060 -0.2651 -0.4110  0.2040
 7882TIP3    H123610   3.159   6.048   2.117  0.5727  1.5946  1.1756
 7882TIP3    H223611   3.206   6.077   1.976 -1.4334 -3.1607 -0.6779
 7883TIP3   OH223612   2.959   3.178   5.042 -0.7743 -0.5945 -0.4486
 7883TIP3    H123613   2.942   3.191   4.949 -0.5187 -0.8862 -0.5384
 7883TIP3    H223614   3.049   3.209   5.055 -0.1181 -2.2800 -0.6903
 7884TIP3   OH223615   7.159   2.921   2.701 -0.5222 -0.3806  0.3032
 7884TIP3    H123616   7.163   2.826   2.709  0.0230 -0.3738  0.1444
 7884TIP3    H223617   7.242   2.946   2.661 -1.2372  0.0284 -1.0019
 7885TIP3   OH223618   4.527   1.266   1.254 -0.0444  0.1904 -0.1414
 7885TIP3    H123619   4.583   1.307   1.187  0.0520 -0.0913 -0.2344
 7885TIP3    H223620   4.499   1.339   1.309  1.1518  0.2285  0.4545
 7886TIP3   OH223621   0.971   6.463   1.610  0.1080  0.2294  0.0253
 7886TIP3    H123622   1.004   6.467   1.700  1.3782  1.4491 -0.4589
 7886TIP3    H223623   0.926   6.547   1.597 -1.1450 -0.4405 -0.1033
 7887TIP3   OH223624   3.937   0.794   2.341  0.4658 -0.6422  0.0538
 7887TIP3    H123625   3.902   0.853   2.409  1.0800 -0.5652  0.3128
 7887TIP3    H223626   3.864   0.738   2.318 -0.1168  0.1737 -0.1405
 7888TIP3   OH223627   3.137   1.587   5.644  0.2311 -0.0420  0.5828
 7888TIP3    H123628   3.162   1.657   5.704  2.4130 -0.2585  0.0047
 7888TIP3    H223629   3.139   1.627   5.557  0.9488 -0.6498  0.3051
 7889TIP3   OH223630   2.307   2.556   5.572 -0.2081 -0.8762  0.1264
 7889TIP3    H123631   2.378   2.577   5.633  0.1820 -2.6432  0.3578
 7889TIP3    H223632   2.339   2.586   5.487 -0.9998  2.1445  0.7923
 7890TIP3   OH223633   6.366   5.414   0.203 -0.8174 -0.4344  0.1864
 7890TIP3    H123634   6.375   5.420   0.108 -1.7719 -1.1535  0.0345
 7890TIP3    H223635   6.372   5.504   0.234  1.8918 -0.3864 -0.3012
 7891TIP3   OH223636   3.643   3.065   5.697  0.3822  0.0515  0.3417
 7891TIP3    H123637   3.610   2.980   5.724  2.9337 -0.8681  0.7807
 7891TIP3    H223638   3.598   3.127   5.754 -0.7675 -1.0801  0.7033
 7892TIP3   OH223639   3.664   0.215   0.903 -0.0392 -0.5894 -0.2132
 7892TIP3    H123640   3.724   0.238   0.832 -1.4613 -0.5672 -1.4638
 7892TIP3    H223641   3.670   0.289   0.964  1.2381 -0.6265 -0.2752
 7893TIP3   OH223642   1.952   3.584   3.362 -0.4295  0.4684  0.0722
 7893TIP3    H123643   2.022   3.648   3.376 -2.3109  2.8063 -0.6550
 7893TIP3    H223644   1.975   3.541   3.280 -0.1375  1.6440 -0.4805
 7894TIP3   OH223645   1.091   1.243   5.788  0.2015 -0.3631  0.4741
 7894TIP3    H123646   1.008   1.259   5.834 -1.6111 -0.7048 -2.4051
 7894TIP3    H223647   1.129   1.330   5.775 -0.9130  0.0531 -0.1667
 7895TIP3   OH223648   1.945   4.000   1.151  1.0119 -0.4374  0.1272
 7895TIP3    H123649   1.925   4.005   1.058  0.5201  1.5048  0.2874
 7895TIP3    H223650   2.038   3.979   1.155  1.3803  0.9251 -0.8449
 7896TIP3   OH223651   0.177   4.312   2.367 -0.5130 -0.2108 -0.3724
 7896TIP3    H123652   0.262   4.356   2.374  0.0838 -1.4606  0.6648
 7896TIP3    H223653   0.169   4.264   2.450 -1.4457 -1.4856 -1.1733
 7897TIP3   OH223654   1.519   1.467   3.988  0.6563 -0.1689 -0.3639
 7897TIP3    H123655   1.471   1.427   4.061  1.5374  0.6317  0.7033
 7897TIP3    H223656   1.582   1.400   3.961  0.7989 -0.2285  0.0958
 7898TIP3   OH223657   4.084   5.181   4.336  0.2805 -0.2108 -0.0416
 7898TIP3    H123658   4.073   5.177   4.241 -1.2464  0.2419  0.0816
 7898TIP3    H223659   4.159   5.238   4.349 -0.6179  1.2704 -0.9810
 7899TIP3   OH223660   2.250   1.668   1.959  0.4680  0.1305  0.6909
 7899TIP3    H123661   2.220   1.579   1.973  3.2660 -1.2453 -1.1719
 7899TIP3    H223662   2.334   1.673   2.003  0.5805  1.7382  0.3797
 7900TIP3   OH223663   1.189   4.641   3.352 -0.1252 -0.0233 -0.0171
 7900TIP3    H123664   1.249   4.705   3.391  0.1451 -0.2725 -0.0204
 7900TIP3    H223665   1.150   4.687   3.278 -1.6395  0.9198  1.2972
 7901TIP3   OH223666   5.161   3.896   5.479 -0.0862 -0.7540 -0.0290
 7901TIP3    H123667   5.108   3.970   5.510  2.1831  0.2521  1.6840
 7901TIP3    H223668   5.246   3.934   5.459  0.6909 -2.6850 -0.5807
 7902TIP3   OH223669   2.698   0.057   2.103 -0.2101 -0.3060 -0.1662
 7902TIP3    H123670   2.670   0.028   2.190 -3.6354 -0.2860 -1.0918
 7902TIP3    H223671   2.727   0.147   2.115  0.5218 -0.6866  1.0997
 7903TIP3   OH223672   2.403   4.088   4.120  0.4342  0.2343 -0.1157
 7903TIP3    H123673   2.330   4.077   4.060 -0.4569 -1.0009  1.1224
 7903TIP3    H223674   2.400   4.010   4.176  2.6302  0.2126  0.0564
 7904TIP3   OH223675   5.415   6.680   2.617 -0.4580  0.1299  0.1645
 7904TIP3    H123676   5.400   6.766   2.578 -0.0572  0.4845  0.7671
 7904TIP3    H223677   5.342   6.626   2.587 -0.9713  0.8126  0.1688
 7905TIP3   OH223678   3.301   1.512   1.414 -0.1998 -0.8259 -0.4474
 7905TIP3    H123679   3.213   1.550   1.416 -0.3244 -1.1319 -0.0203
 7905TIP3    H223680   3.339   1.546   1.333  0.3155  1.6412  0.7174
 7906TIP3   OH223681   0.116   0.584   0.992  0.1766  0.1483  0.7018
 7906TIP3    H123682   0.035   0.575   0.942  0.1868  0.0015  0.7101
 7906TIP3    H223683   0.110   0.670   1.033  0.1322  0.2368  0.5106
 7907TIP3   OH223684   2.821   3.751   5.685 -0.4490  0.0445 -0.2308
 7907TIP3    H123685   2.866   3.719   5.764 -0.5947 -0.7335 -0.4522
 7907TIP3    H223686   2.784   3.672   5.645 -0.3504  0.4294 -1.1020
 7908TIP3   OH223687   4.807   3.430   3.911 -0.6482 -0.2359 -0.1835
 7908TIP3    H123688   4.895   3.445   3.944 -0.5961 -1.0422  0.0632
 7908TIP3    H223689   4.792   3.503   3.851  0.3524 -0.3125 -0.5559
 7909TIP3   OH223690   2.342   6.315   1.463  0.1165 -0.5324  0.4297
 7909TIP3    H123691   2.395   6.277   1.533 -0.5659 -1.7099  0.3412
 7909TIP3    H223692   2.405   6.335   1.393  0.8555  1.0239  1.4901
 7910TIP3   OH223693   5.891   1.537   3.549 -0.2909 -0.1620  0.0709
 7910TIP3    H123694   5.908   1.462   3.606  0.6325 -1.1334 -1.4114
 7910TIP3    H223695   5.967   1.595   3.563  0.2016 -0.6486 -0.5356
 7911TIP3   OH223696   5.764   2.498   4.288 -0.4666 -0.4446  0.2535
 7911TIP3    H123697   5.794   2.408   4.303 -0.9416 -0.6643 -0.0957
 7911TIP3    H223698   5.834   2.553   4.322  0.1560 -0.9499 -0.1996
 7912TIP3   OH223699   4.573   5.572   3.732  0.2891 -0.1912 -0.0597
 7912TIP3    H123700   4.524   5.567   3.650  1.9713 -4.2027 -1.0818
 7912TIP3    H223701   4.514   5.534   3.797 -0.0698  0.5347  0.0520
 7913TIP3   OH223702   0.779   5.864   4.969 -0.1109  0.0408  0.0971
 7913TIP3    H123703   0.697   5.913   4.970  0.2922  0.7533  1.6661
 7913TIP3    H223704   0.768   5.796   5.035 -0.0197 -0.9077 -0.8358
 7914TIP3   OH223705   0.361   1.896   4.976  0.0856 -0.5057  0.3826
 7914TIP3    H123706   0.365   1.804   5.003 -1.7193 -1.2833 -1.6591
 7914TIP3    H223707   0.397   1.945   5.049  2.3041 -2.9190  1.0290
 7915TIP3   OH223708   3.535   5.400   4.242  0.0790  0.2526 -0.6891
 7915TIP3    H123709   3.469   5.463   4.214 -0.0272 -0.2642 -1.6366
 7915TIP3    H223710   3.563   5.432   4.328  1.0466  2.3878 -1.7350
 7916TIP3   OH223711   4.243   6.745   2.050 -0.1785 -0.4372  0.3857
 7916TIP3    H123712   4.226   6.748   2.144 -1.6228  0.0292  0.1494
 7916TIP3    H223713   4.252   6.837   2.024  0.0904 -0.5533  0.0586
 7917TIP3   OH223714   1.008   0.184   5.445  0.1520  0.2635  0.2245
 7917TIP3    H123715   1.082   0.241   5.426 -3.5322  5.1141 -1.5938
 7917TIP3    H223716   1.008   0.119   5.375  1.4482  1.6434 -1.1247
 7918TIP3   OH223717   2.982   6.039   2.189  0.1433 -0.0659  0.0223
 7918TIP3    H123718   2.952   5.963   2.238 -0.5473 -0.3653 -0.8434
 7918TIP3    H223719   2.918   6.050   2.119  0.6394  0.8660 -0.3117
 7919TIP3   OH223720   3.880   0.798   2.059 -0.4778  0.1126 -0.1578
 7919TIP3    H123721   3.946   0.829   1.998 -1.9179  1.4098 -1.1557
 7919TIP3    H223722   3.914   0.819   2.145 -0.0948  1.9013 -0.7008
 7920TIP3   OH223723   1.658   1.273   4.937 -0.4472 -0.0896  0.3261
 7920TIP3    H123724   1.611   1.355   4.918  1.1676  0.5758 -1.0837
 7920TIP3    H223725   1.601   1.204   4.903 -0.4881  0.6875 -1.2957
 7921TIP3   OH223726   0.355   3.500   5.780 -0.2899  0.1454  0.7331
 7921TIP3    H123727   0.352   3.529   5.689  1.4433 -2.6499 -0.3819
 7921TIP3    H223728   0.269   3.463   5.797  0.0206 -1.3430 -0.6392
 7922TIP3   OH223729   5.345   4.122   4.835 -0.5790 -0.1308 -0.3251
 7922TIP3    H123730   5.401   4.048   4.809  0.1965  0.2961  0.0795
 7922TIP3    H223731   5.352   4.183   4.762  0.0290  0.2081  0.0018
 7923TIP3   OH223732   3.662   2.722   5.094  0.1460 -0.1018  0.4501
 7923TIP3    H123733   3.636   2.696   5.006  0.1367  1.1176  0.0767
 7923TIP3    H223734   3.752   2.752   5.084  0.6001 -1.1609  1.1148
 7924TIP3   OH223735   1.270   1.492   1.055 -0.0903 -0.8810  0.5207
 7924TIP3    H123736   1.331   1.453   0.993  2.3093  2.0192  0.8254
 7924TIP3    H223737   1.206   1.538   1.001  1.2404  0.5718  0.1231
 7925TIP3   OH223738   5.099   6.289   3.296 -0.5188 -0.1830  0.4244
 7925TIP3    H123739   5.150   6.370   3.293 -0.2594 -0.3624 -0.1817
 7925TIP3    H223740   5.138   6.239   3.368 -0.8338  0.3216  0.9575
 7926TIP3   OH223741   4.094   0.133   5.358  0.3828  0.0305 -0.2361
 7926TIP3    H123742   4.031   0.115   5.289  0.3998 -0.9486 -0.0110
 7926TIP3    H223743   4.146   0.207   5.325 -0.6722  0.6553 -0.5485
 7927TIP3   OH223744   1.527   1.402   4.625 -0.2767 -0.2047  0.5946
 7927TIP3    H123745   1.547   1.438   4.711 -0.2148 -1.1762  1.0082
 7927TIP3    H223746   1.432   1.386   4.628 -0.0472 -1.6985  1.1008
 7928TIP3   OH223747   2.852   4.299   3.514  0.6969  0.3489  0.3699
 7928TIP3    H123748   2.770   4.262   3.547  0.4326 -0.3972 -1.0351
 7928TIP3    H223749   2.842   4.393   3.523  0.4793  0.1884  1.9942
 7929TIP3   OH223750   3.726   6.030   5.083 -0.3273  0.0923  0.1457
 7929TIP3    H123751   3.684   5.947   5.105 -0.1966 -0.0022  0.0366
 7929TIP3    H223752   3.814   6.022   5.119 -0.5183  0.4336  0.6982
 7930TIP3   OH223753   6.943   1.856   5.332 -0.2482  0.0119  0.1125
 7930TIP3    H123754   7.019   1.885   5.282  0.0704  1.3294  1.3038
 7930TIP3    H223755   6.907   1.936   5.369 -2.2385 -0.5829 -0.4192
 7931TIP3   OH223756   5.844   2.646   5.149  0.3274 -0.9613  0.0703
 7931TIP3    H123757   5.903   2.710   5.109 -0.3984  0.1075  0.6570
 7931TIP3    H223758   5.814   2.688   5.230 -0.7809 -1.7096  0.0755
 7932TIP3   OH223759   3.987   2.334   3.484 -0.9111 -0.8215  0.6373
 7932TIP3    H123760   3.983   2.301   3.574  0.4729 -4.7707 -0.5596
 7932TIP3    H223761   4.080   2.333   3.461 -0.8372  3.0509 -0.0701
 7933TIP3   OH223762   2.020   3.006   0.764 -0.3183  0.0967 -0.1796
 7933TIP3    H123763   1.974   3.046   0.838 -0.0691  0.6927 -0.3378
 7933TIP3    H223764   2.092   3.066   0.746 -1.9839  1.5520 -2.7344
 7934TIP3   OH223765   3.573   4.117   0.762 -0.4024  0.4312 -0.2715
 7934TIP3    H123766   3.631   4.079   0.828 -2.2518  0.1523  1.2684
 7934TIP3    H223767   3.615   4.200   0.739  0.7371  0.1152  0.5596
 7935TIP3   OH223768   7.065   4.451   3.526  0.0502  0.1068  0.1290
 7935TIP3    H123769   7.147   4.457   3.576 -0.5834 -0.3060  1.2636
 7935TIP3    H223770   7.072   4.521   3.461  0.2687  1.7482  1.7940
 7936TIP3   OH223771   3.165   1.684   3.006 -0.7176 -0.3833  0.2640
 7936TIP3    H123772   3.202   1.770   2.985  1.3460 -1.2246  0.2178
 7936TIP3    H223773   3.153   1.685   3.101 -0.5351 -0.1033  0.2853
 7937TIP3   OH223774   6.571   1.608   2.257 -0.1460  0.0688  0.6444
 7937TIP3    H123775   6.647   1.570   2.299 -0.9667  1.0311  3.1739
 7937TIP3    H223776   6.583   1.590   2.164  3.2052  0.3146  0.9262
 7938TIP3   OH223777   5.391   5.944   0.666 -0.0452 -0.7211  0.0465
 7938TIP3    H123778   5.430   6.029   0.687 -0.1430 -1.0541  1.7633
 7938TIP3    H223779   5.409   5.931   0.573 -2.2570  2.3240 -0.9603
 7939TIP3   OH223780   4.195   2.576   1.000 -0.2632 -0.3964  0.2456
 7939TIP3    H123781   4.183   2.497   0.947  0.0406 -0.6113  0.4935
 7939TIP3    H223782   4.115   2.580   1.054 -1.9413  1.3806 -2.1743
 7940TIP3   OH223783   0.232   3.684   1.833  0.1755  0.3348 -0.3220
 7940TIP3    H123784   0.197   3.774   1.836  1.4092  0.9496 -2.4859
 7940TIP3    H223785   0.315   3.690   1.879  0.1415  0.2239 -0.2452
 7941TIP3   OH223786   2.701   6.564   4.153 -0.1449  0.0656 -0.4001
 7941TIP3    H123787   2.782   6.539   4.198 -0.6345 -1.9613 -0.5208
 7941TIP3    H223788   2.661   6.630   4.209  0.8349 -0.0439  0.4543
 7942TIP3   OH223789   6.622   1.180   5.222 -0.3320  0.1919  0.0830
 7942TIP3    H123790   6.677   1.106   5.198  0.4658  0.0927  2.0236
 7942TIP3    H223791   6.534   1.143   5.231 -0.2215 -0.2029 -0.4409
 7943TIP3   OH223792   3.839   2.803   1.381  0.4141 -0.2258 -0.2202
 7943TIP3    H123793   3.856   2.891   1.415  0.7676 -0.1466 -0.5844
 7943TIP3    H223794   3.882   2.803   1.295  0.3041 -0.7118 -0.2749
 7944TIP3   OH223795   0.371   1.871   0.550 -0.5430  0.3959 -0.0525
 7944TIP3    H123796   0.390   1.862   0.643  0.9957 -0.4043 -0.4122
 7944TIP3    H223797   0.314   1.948   0.545  3.0003  3.3992  1.1429
 7945TIP3   OH223798   3.364   1.308   3.390  0.1350 -0.1573  0.0453
 7945TIP3    H123799   3.448   1.269   3.412 -0.0220 -0.5891 -0.1143
 7945TIP3    H223800   3.355   1.381   3.451  0.1541 -0.7333  0.7549
 7946TIP3   OH223801   5.690   6.632   0.057 -0.0550  0.1491  0.3235
 7946TIP3    H123802   5.756   6.634   0.126  1.0296 -0.0795 -0.6670
 7946TIP3    H223803   5.713   6.706  -0.000  0.6385 -1.1483 -1.1471
 7947TIP3   OH223804   0.114   4.978   0.449  0.2735 -0.2282 -0.2352
 7947TIP3    H123805   0.063   4.921   0.392  1.0177  0.0892 -1.2376
 7947TIP3    H223806   0.205   4.963   0.423  0.4953  1.2953 -0.4200
 7948TIP3   OH223807   5.966   1.318   3.715  0.2457  0.2587 -0.4311
 7948TIP3    H123808   5.940   1.238   3.670  2.0728 -0.3090 -0.5499
 7948TIP3    H223809   6.062   1.312   3.722  0.3471  2.0487  0.2780
 7949TIP3   OH223810   6.082   3.688   3.724  0.0857 -0.0074  0.0469
 7949TIP3    H123811   6.006   3.720   3.676  0.3950 -0.4509 -0.7595
 7949TIP3    H223812   6.087   3.744   3.801  0.5090  1.7773 -1.2182
 7950TIP3   OH223813   3.779   3.028   2.013  0.2308  0.8184 -0.1610
 7950TIP3    H123814   3.843   3.089   2.051  0.3996  1.9232 -2.0820
 7950TIP3    H223815   3.815   3.008   1.927  0.1750 -2.0667  0.3973
 7951TIP3   OH223816   1.209   2.225   4.810 -0.0667 -0.4927 -0.2659
 7951TIP3    H123817   1.230   2.132   4.812  0.4863 -0.4662 -2.3073
 7951TIP3    H223818   1.294   2.269   4.817 -0.3630 -0.1069  1.1376
 7952TIP3   OH223819   0.854   4.697   3.221 -0.0828  0.0335  0.1873
 7952TIP3    H123820   0.895   4.751   3.288 -0.8198  0.3762  0.3753
 7952TIP3    H223821   0.927   4.652   3.178  0.4327  0.1804  0.8930
 7953TIP3   OH223822   0.511   6.523   3.359  0.0615 -0.3532 -0.2467
 7953TIP3    H123823   0.562   6.465   3.301  0.0844  0.1139 -0.6932
 7953TIP3    H223824   0.427   6.478   3.370 -0.3791  0.1074 -1.5834
 7954TIP3   OH223825   6.044   4.141   3.868 -0.2874 -0.0696  0.4483
 7954TIP3    H123826   6.020   4.228   3.902 -3.8084 -1.2891  1.5770
 7954TIP3    H223827   6.020   4.144   3.776 -0.1033  0.2538  0.4091
 7955TIP3   OH223828   4.732   6.286   2.623 -0.4088  0.4225  0.0914
 7955TIP3    H123829   4.772   6.261   2.707  0.9406  1.0630 -0.3236
 7955TIP3    H223830   4.705   6.203   2.584  1.7870 -0.2256 -0.2008
 7956TIP3   OH223831   5.342   0.940   5.098 -0.2754 -0.0039 -0.1708
 7956TIP3    H123832   5.253   0.925   5.128 -0.0677 -1.6880 -0.2853
 7956TIP3    H223833   5.383   0.854   5.100  1.0994  0.5916 -0.9333
 7957TIP3   OH223834   0.974   6.585   3.245  0.2966 -0.5014  0.1156
 7957TIP3    H123835   0.894   6.601   3.195  0.3808 -0.3047  0.0444
 7957TIP3    H223836   0.960   6.629   3.329  0.1165 -0.9106  0.3070
 7958TIP3   OH223837   6.461   6.104   1.927 -0.3831  0.4089  0.0363
 7958TIP3    H123838   6.484   6.173   1.864 -0.5016  0.2113 -0.2290
 7958TIP3    H223839   6.417   6.037   1.873 -0.7642  0.3775  0.3813
 7959TIP3   OH223840   3.762   1.306   4.118 -0.0997 -0.0697  0.2586
 7959TIP3    H123841   3.685   1.362   4.126  2.1704  3.2038  1.6384
 7959TIP3    H223842   3.819   1.353   4.057  1.3379 -1.6959  0.2893
 7960TIP3   OH223843   6.668   0.376   3.098 -0.4315 -0.3623 -0.3524
 7960TIP3    H123844   6.649   0.398   3.189 -1.9401 -0.0912 -0.7146
 7960TIP3    H223845   6.611   0.302   3.078 -1.4458  0.7107 -1.5878
 7961TIP3   OH223846   2.254   0.147   3.698 -0.2729 -0.4362  0.3873
 7961TIP3    H123847   2.179   0.138   3.639 -0.2272  0.1042  0.2403
 7961TIP3    H223848   2.324   0.183   3.643  0.1786 -1.1722  0.4607
 7962TIP3   OH223849   0.467   0.547   1.392  0.7247 -0.9512 -0.0451
 7962TIP3    H123850   0.468   0.451   1.394  0.8700 -0.9807 -0.9370
 7962TIP3    H223851   0.506   0.569   1.307 -0.3219 -0.1313 -0.3278
 7963TIP3   OH223852   7.171   3.472   1.384  0.3974 -0.1138 -0.3279
 7963TIP3    H123853   7.242   3.442   1.441  0.9447  0.1198 -0.8744
 7963TIP3    H223854   7.178   3.568   1.386 -0.4168 -0.0518  0.2491
 7964TIP3   OH223855   2.608   4.234   3.644 -0.4511  0.5791 -0.8003
 7964TIP3    H123856   2.515   4.256   3.651 -0.2985  2.3934 -2.9999
 7964TIP3    H223857   2.609   4.142   3.619 -1.6120  0.2721  0.1908
 7965TIP3   OH223858   5.328   1.162   3.487 -0.0094  0.2041 -0.4622
 7965TIP3    H123859   5.403   1.200   3.442 -0.1681  0.9223 -0.1394
 7965TIP3    H223860   5.306   1.084   3.437  1.2644 -0.3039 -0.2705
 7966TIP3   OH223861   2.785   3.935   4.949 -0.1973  0.2036  0.3315
 7966TIP3    H123862   2.799   4.023   4.914 -0.1699 -0.2939 -0.9831
 7966TIP3    H223863   2.766   3.882   4.872 -1.3368 -0.7298  1.2119
 7967TIP3   OH223864   4.981   2.707   3.019 -0.0273 -0.1505  0.6074
 7967TIP3    H123865   4.895   2.738   3.049  0.1962 -1.0017  2.2293
 7967TIP3    H223866   5.001   2.762   2.943 -1.3739  1.0086  1.0502
 7968TIP3   OH223867   3.021   3.394   1.737 -0.5526  0.0948 -0.7802
 7968TIP3    H123868   3.000   3.308   1.701  0.9916 -0.8395  0.4264
 7968TIP3    H223869   2.973   3.397   1.820  1.2611 -0.6597  0.3530
 7969TIP3   OH223870   3.349   2.741   2.821  0.2521  0.4214 -0.4066
 7969TIP3    H123871   3.410   2.767   2.752  0.4307 -0.0999 -0.4508
 7969TIP3    H223872   3.401   2.747   2.902  0.6161 -0.8025 -0.5309
 7970TIP3   OH223873   2.688   1.601   2.242  0.0054 -0.1743 -0.0009
 7970TIP3    H123874   2.610   1.626   2.193 -0.1236 -1.6155 -0.5723
 7970TIP3    H223875   2.681   1.650   2.324 -0.8437  0.6738 -0.5532
 7971TIP3   OH223876   5.551   4.059   5.287 -0.3276 -0.0586 -0.3884
 7971TIP3    H123877   5.607   4.100   5.353  0.8591  1.2051 -2.1317
 7971TIP3    H223878   5.582   4.093   5.204 -1.0113 -2.5137 -1.7404
 7972TIP3   OH223879   1.899   3.085   3.278 -0.7644  0.1252 -0.5221
 7972TIP3    H123880   1.984   3.071   3.319 -0.6141  2.1501 -0.0744
 7972TIP3    H223881   1.916   3.076   3.184 -0.2782 -0.4818 -0.3821
 7973TIP3   OH223882   1.128   2.523   2.910  0.0119 -0.1832  0.3506
 7973TIP3    H123883   1.148   2.522   3.004  3.9589 -0.4266 -0.3118
 7973TIP3    H223884   1.194   2.581   2.872 -0.5368 -1.2282 -2.4643
 7974TIP3   OH223885   3.100   0.105   4.302 -0.1998 -0.1138  1.0740
 7974TIP3    H123886   3.193   0.114   4.280 -0.4512 -0.2840 -0.1468
 7974TIP3    H223887   3.087   0.163   4.376  0.5540  1.1795  0.2353
 7975TIP3   OH223888   2.410   6.042   5.826 -0.0051 -0.0025 -0.1582
 7975TIP3    H123889   2.377   5.957   5.796  0.1314 -0.2668  0.4262
 7975TIP3    H223890   2.475   6.020   5.893 -1.3522  0.5836  1.4032
 7976TIP3   OH223891   6.297   4.366   5.450  0.3789 -0.3613 -0.1752
 7976TIP3    H123892   6.324   4.282   5.413  1.6040 -0.4179  0.7533
 7976TIP3    H223893   6.296   4.426   5.376 -2.4944 -1.5649 -1.2418
 7977TIP3   OH223894   1.868   3.387  -0.012 -0.0989  0.4616  0.1140
 7977TIP3    H123895   1.799   3.344  -0.063  2.1376 -0.6138 -2.2031
 7977TIP3    H223896   1.842   3.373   0.080 -2.5524 -0.5147 -0.6462
 7978TIP3   OH223897   0.065   1.370   1.005 -0.5659  0.5415  0.2688
 7978TIP3    H123898  -0.022   1.362   0.965 -0.8078 -0.9779  1.0217
 7978TIP3    H223899   0.046   1.397   1.095 -0.2372  0.4473  0.3650
 7979TIP3   OH223900   4.757   3.471   2.592 -0.1663 -0.0378  0.8612
 7979TIP3    H123901   4.852   3.466   2.585 -0.1174  0.4555  1.1276
 7979TIP3    H223902   4.730   3.382   2.619  0.1573 -0.3355  0.2167
 7980TIP3   OH223903   6.781   4.264   5.565  0.2191 -0.6981  0.6639
 7980TIP3    H123904   6.783   4.356   5.539  0.6212 -0.8554  0.1106
 7980TIP3    H223905   6.689   4.239   5.559 -0.2358  0.2074  2.8269
 7981TIP3   OH223906   4.993   5.289   2.594 -0.0693 -0.1050 -0.2680
 7981TIP3    H123907   5.055   5.335   2.650 -0.0882 -0.7631  0.3146
 7981TIP3    H223908   4.920   5.266   2.652 -1.3916  1.5791 -1.1604
 7982TIP3   OH223909   5.735   1.678   5.680 -0.1427  0.3386 -0.2065
 7982TIP3    H123910   5.753   1.663   5.587 -0.6443 -0.4792 -0.1831
 7982TIP3    H223911   5.794   1.749   5.705  0.7116 -0.1122 -0.9058
 7983TIP3   OH223912   3.936   4.665   1.969 -0.2114 -0.3271 -0.2434
 7983TIP3    H123913   3.973   4.591   1.922  0.7035  0.2338 -0.4349
 7983TIP3    H223914   3.844   4.667   1.942  0.1188 -0.4660 -1.4261
 7984TIP3   OH223915   3.097   4.192   3.858  0.7017 -0.4930 -0.1477
 7984TIP3    H123916   3.132   4.150   3.780 -0.8480 -0.6154 -0.8070
 7984TIP3    H223917   3.106   4.286   3.842  2.4417 -0.5005  0.5273
 7985TIP3   OH223918   4.149   6.789   4.144  0.6880  0.1091  0.6919
 7985TIP3    H123919   4.215   6.783   4.213 -0.1130 -2.5172  1.3366
 7985TIP3    H223920   4.065   6.788   4.191  0.1079 -2.4128 -0.2506
 7986TIP3   OH223921   1.391   0.530   3.595 -0.5944 -0.2036  0.1453
 7986TIP3    H123922   1.323   0.463   3.587 -1.0124  0.1280  0.8038
 7986TIP3    H223923   1.429   0.515   3.681  1.6756 -1.7621 -1.0469
 7987TIP3   OH223924   5.644   5.583   1.273 -0.2541 -0.1575 -0.9116
 7987TIP3    H123925   5.613   5.534   1.197  2.5341  1.3600 -3.2125
 7987TIP3    H223926   5.739   5.572   1.272  0.1567  2.4690  0.4688
 7988TIP3   OH223927   3.157   6.528   3.208 -0.1840  0.5316 -0.1510
 7988TIP3    H123928   3.147   6.599   3.144  0.0733  0.0563 -0.7279
 7988TIP3    H223929   3.249   6.501   3.200  0.3709  1.6685  1.7045
 7989TIP3   OH223930   2.876   0.521   4.029 -0.2170 -0.3315 -0.3247
 7989TIP3    H123931   2.923   0.470   4.095  1.8276  1.5656 -0.1921
 7989TIP3    H223932   2.938   0.528   3.956  0.2296  2.9906  0.2005
 7990TIP3   OH223933   3.716   1.197   3.241 -0.1287 -0.1452 -0.1794
 7990TIP3    H123934   3.795   1.206   3.187 -1.1552  0.0498 -1.7071
 7990TIP3    H223935   3.668   1.124   3.202 -1.7605  1.1309 -0.7000
 7991TIP3   OH223936   5.403   4.706   3.971 -0.0255  0.0411 -0.2956
 7991TIP3    H123937   5.364   4.635   3.920 -0.0248  0.4583 -0.8884
 7991TIP3    H223938   5.418   4.776   3.907  2.1938 -0.2889 -0.2093
 7992TIP3   OH223939   6.341   3.292   1.539 -0.1216  0.7299 -0.2078
 7992TIP3    H123940   6.251   3.288   1.507 -0.0412  2.6844 -0.8124
 7992TIP3    H223941   6.336   3.346   1.618  0.1380 -1.6088  1.5471
 7993TIP3   OH223942   4.312   3.619   4.391 -0.1745  0.0788  0.0402
 7993TIP3    H123943   4.356   3.537   4.367 -0.7808 -0.3445  0.3592
 7993TIP3    H223944   4.308   3.617   4.486 -1.6108 -0.2774 -0.0154
 7994TIP3   OH223945   6.068   4.186   4.367  0.0583  0.3908  0.0823
 7994TIP3    H123946   6.075   4.222   4.456 -1.1026 -0.0116  0.3514
 7994TIP3    H223947   6.121   4.246   4.313  0.1621  1.0732  0.9181
 7995TIP3   OH223948   1.385   3.465   2.951  0.1127  0.3800  0.2535
 7995TIP3    H123949   1.339   3.392   2.911  1.1212 -1.0709  1.6476
 7995TIP3    H223950   1.320   3.535   2.956 -0.7941 -0.2946 -1.3530
 7996TIP3   OH223951   5.377   3.612   5.375 -0.5787  0.5282  0.2130
 7996TIP3    H123952   5.378   3.694   5.326  0.5485  0.0174 -0.6754
 7996TIP3    H223953   5.433   3.630   5.451  0.5810  0.2862 -0.5513
 7997TIP3   OH223954   4.205   4.323   4.761  0.2563  0.3713 -0.3625
 7997TIP3    H123955   4.257   4.341   4.840 -1.5883  0.6354  0.8326
 7997TIP3    H223956   4.269   4.326   4.690  1.7562  1.4542  0.9603
 7998TIP3   OH223957   4.229   1.166   0.071  0.1215  0.0392 -0.3219
 7998TIP3    H123958   4.165   1.196   0.136 -0.3511  0.3243 -0.9031
 7998TIP3    H223959   4.305   1.222   0.084  0.9642 -1.4333  1.5471
 7999TIP3   OH223960   5.772   0.070   4.562 -0.5783  0.1355 -0.2976
 7999TIP3    H123961   5.689   0.060   4.515 -0.5771  1.4679 -0.6182
 7999TIP3    H223962   5.834   0.018   4.511 -0.9380  0.1926 -0.8096
 8000TIP3   OH223963   6.849   6.707   2.465  0.1756  0.6363 -0.3129
 8000TIP3    H123964   6.887   6.626   2.499  0.5295  1.1378  0.5297
 8000TIP3    H223965   6.756   6.687   2.454  0.3371 -0.0166 -0.5465
 8001TIP3   OH223966   1.183   0.785   2.154  0.1594 -0.8785 -0.4264
 8001TIP3    H123967   1.202   0.806   2.245  2.3258 -1.3123 -0.7333
 8001TIP3    H223968   1.099   0.738   2.157 -0.4391  0.2191  1.1674
 8002TIP3   OH223969   5.213   2.425   5.524 -0.6374  0.2071 -0.7434
 8002TIP3    H123970   5.210   2.466   5.610 -1.1720 -0.9174 -0.1970
 8002TIP3    H223971   5.186   2.493   5.462 -0.9211  0.8269  0.0593
 8003TIP3   OH223972   0.297   1.522   3.100  0.0491 -0.0032 -0.1644
 8003TIP3    H123973   0.353   1.447   3.124  0.1685  0.0436 -0.2934
 8003TIP3    H223974   0.255   1.548   3.182 -1.0501 -1.0756 -0.3480
 8004TIP3   OH223975   1.044   5.734   1.408 -0.3286 -0.5243  0.3754
 8004TIP3    H123976   1.072   5.809   1.460  0.5137 -0.9181  0.5197
 8004TIP3    H223977   0.950   5.726   1.424 -0.0740 -0.7094  1.9506
 8005TIP3   OH223978   1.901   4.060   5.421 -0.1498  0.3528  0.0036
 8005TIP3    H123979   1.856   3.996   5.365  0.5247 -0.5830  0.5002
 8005TIP3    H223980   1.958   4.108   5.361  1.8561 -1.7782  0.0489
 8006TIP3   OH223981   2.176   3.497   2.995 -0.1062  0.1395 -0.4665
 8006TIP3    H123982   2.092   3.455   2.978 -1.0017  1.8227 -0.3879
 8006TIP3    H223983   2.237   3.454   2.934 -1.0784 -0.8890 -0.7390
 8007TIP3   OH223984   0.394   2.387   2.889  0.2567 -0.1416 -0.4070
 8007TIP3    H123985   0.365   2.466   2.935 -1.1436 -0.8079 -0.0786
 8007TIP3    H223986   0.320   2.363   2.833 -0.2599 -2.3959  1.0838
 8008TIP3   OH223987   7.171   0.441   5.607 -0.0086  0.3075 -0.3519
 8008TIP3    H123988   7.222   0.454   5.527  0.1954  1.2767 -0.0708
 8008TIP3    H223989   7.205   0.359   5.643  1.0854  0.7364 -0.3772
 8009TIP3   OH223990   6.721   0.959   1.089  0.5500  0.2126 -0.0787
 8009TIP3    H123991   6.636   0.984   1.051  0.4203 -1.2396 -0.8085
 8009TIP3    H223992   6.785   1.008   1.037  0.2826 -0.5893 -1.2022
 8010TIP3   OH223993   1.449   5.887   2.584  0.6133 -0.0751 -0.5061
 8010TIP3    H123994   1.472   5.800   2.616 -0.8554 -0.1785  0.3707
 8010TIP3    H223995   1.480   5.947   2.652 -0.8759 -0.1587  0.2941
 8011TIP3   OH223996   4.311   1.183   3.488  0.2214  0.6585 -0.6071
 8011TIP3    H123997   4.249   1.233   3.542  0.3341 -0.3452  0.4954
 8011TIP3    H223998   4.349   1.119   3.548 -0.2440 -1.0665 -2.0814
 8012TIP3   OH223999   0.749   2.255   4.963  0.4526 -0.2595  0.8517
 8012TIP3    H124000   0.815   2.276   4.898 -1.7663  1.4331 -0.9900
 8012TIP3    H224001   0.752   2.328   5.025 -0.7533  0.7203 -0.1866
 8013TIP3   OH224002   3.334   1.507   4.500  0.2636 -0.5670 -0.5761
 8013TIP3    H124003   3.347   1.578   4.437  2.0176 -1.4381 -1.2636
 8013TIP3    H224004   3.422   1.487   4.533 -0.5431 -0.3138  2.0124
 8014TIP3   OH224005   6.312   3.926   3.735 -0.5042  0.0352  0.1680
 8014TIP3    H124006   6.344   4.007   3.775  1.4253 -0.4567 -0.2713
 8014TIP3    H224007   6.256   3.887   3.802  1.1208  0.1676  1.7070
 8015TIP3   OH224008   5.622   6.415   5.649 -0.3108  0.0535 -0.1469
 8015TIP3    H124009   5.612   6.384   5.558 -0.0036  1.3337 -0.6409
 8015TIP3    H224010   5.621   6.510   5.642 -3.2367  0.2473  1.5440
 8016TIP3   OH224011   1.050   6.572   4.076  0.2702 -0.1342 -0.0839
 8016TIP3    H124012   1.030   6.650   4.024 -3.2568 -0.6089  0.3016
 8016TIP3    H224013   1.011   6.590   4.162  0.4774 -1.8359  0.4097
 8017TIP3   OH224014   6.897   3.808   4.162  0.1354 -0.1475  0.3703
 8017TIP3    H124015   6.940   3.855   4.233 -1.8133  0.8845  0.9316
 8017TIP3    H224016   6.918   3.716   4.178 -0.5771  0.0169  2.5375
 8018TIP3   OH224017   3.815   1.688   4.358  0.4514 -0.5942 -0.0118
 8018TIP3    H124018   3.879   1.642   4.413  0.9931  0.3950  0.2056
 8018TIP3    H224019   3.771   1.747   4.418  1.0595  0.5141 -0.6220
 8019TIP3   OH224020   0.661   6.648   4.425  0.0768 -0.1783 -0.6861
 8019TIP3    H124021   0.638   6.664   4.517 -3.8889 -0.6631 -1.4253
 8019TIP3    H224022   0.657   6.734   4.384  1.1478 -0.0672 -0.5943
 8020TIP3   OH224023   6.269   2.837   5.431  0.1663 -0.2070  0.1922
 8020TIP3    H124024   6.282   2.856   5.338  0.4976  0.9276  0.4550
 8020TIP3    H224025   6.196   2.775   5.433  1.6090 -2.0345 -0.9544
 8021TIP3   OH224026   2.353   1.861   0.758 -0.2266 -0.1080 -0.5481
 8021TIP3    H124027   2.297   1.846   0.834  0.3148  0.7056  0.0233
 8021TIP3    H224028   2.439   1.827   0.785  0.1089  0.7085 -0.5766
 8022TIP3   OH224029   6.827   2.346   3.764  0.2528  0.6591  0.1811
 8022TIP3    H124030   6.901   2.388   3.720  0.4372  0.5481  0.3823
 8022TIP3    H224031   6.774   2.310   3.693  1.5223 -1.1842  0.0868
 8023TIP3   OH224032   5.924   3.021   2.682  0.0433 -0.1894  0.0519
 8023TIP3    H124033   5.974   3.011   2.763  0.6844  0.6914 -0.2218
 8023TIP3    H224034   5.891   3.110   2.685 -1.4810 -0.7252  0.1865
 8024TIP3   OH224035   5.222   1.598   0.676 -0.1570 -0.1072 -0.3262
 8024TIP3    H124036   5.136   1.617   0.713  1.0019  0.5115  2.3273
 8024TIP3    H224037   5.234   1.665   0.608 -1.2811  0.5935  0.1370
 8025TIP3   OH224038   4.209   2.605   0.373 -0.4449 -0.0570 -0.1168
 8025TIP3    H124039   4.260   2.616   0.292 -1.1365  1.2639 -0.3879
 8025TIP3    H224040   4.244   2.524   0.412 -0.6172 -1.1580 -2.1108
 8026TIP3   OH224041   2.917   6.476   4.296 -0.2185  0.2146 -0.0380
 8026TIP3    H124042   2.905   6.545   4.361 -0.1511  0.4234 -0.2469
 8026TIP3    H224043   2.964   6.518   4.225 -2.7551  0.7870 -1.5130
 8027TIP3   OH224044   5.875   2.641   3.827 -0.3713 -0.4094 -0.4288
 8027TIP3    H124045   5.816   2.585   3.876  0.2007 -0.4601  0.2204
 8027TIP3    H224046   5.848   2.630   3.736 -1.0779 -0.7567 -0.1864
 8028TIP3   OH224047   2.087   1.500   5.493 -0.6941 -0.0016 -0.2968
 8028TIP3    H124048   2.159   1.543   5.448 -0.2379  1.8824  1.9998
 8028TIP3    H224049   2.039   1.571   5.536 -3.1145 -1.3328 -0.6044
 8029TIP3   OH224050   5.500   2.752   0.911  0.3322  0.0446 -0.9729
 8029TIP3    H124051   5.530   2.677   0.963  0.6207  1.1246  0.4459
 8029TIP3    H224052   5.495   2.717   0.822  2.0073 -1.2530 -0.6233
 8030TIP3   OH224053   5.885   1.518   5.495  0.7802 -0.1442 -0.5126
 8030TIP3    H124054   5.943   1.508   5.571  0.4446 -0.8459 -0.3461
 8030TIP3    H224055   5.845   1.432   5.483 -0.8842  0.5409 -0.1040
 8031TIP3   OH224056   6.770   5.576   1.397  0.1279 -0.4743  0.0302
 8031TIP3    H124057   6.776   5.633   1.474 -1.9965  0.3730 -0.3524
 8031TIP3    H224058   6.751   5.636   1.325  0.6551 -1.4024 -0.9019
 8032TIP3   OH224059   1.812   2.450   0.342 -0.4765  0.3563  0.0660
 8032TIP3    H124060   1.875   2.505   0.296 -1.1214  0.4828 -0.6760
 8032TIP3    H224061   1.840   2.361   0.324 -0.2018  0.4160  0.1850
 8033TIP3   OH224062   3.146   6.785   1.462  0.0295  0.6812 -0.0495
 8033TIP3    H124063   3.143   6.847   1.535 -4.7779  1.7468 -0.8174
 8033TIP3    H224064   3.163   6.700   1.503  2.2708  1.8014  1.5659
 8034TIP3   OH224065   1.856   1.611   0.643  0.4799 -0.1906  0.6453
 8034TIP3    H124066   1.816   1.567   0.718  1.0581 -1.0954  0.4412
 8034TIP3    H224067   1.882   1.540   0.584  0.4765  0.4765 -0.1952
 8035TIP3   OH224068   1.488   0.815   1.215  0.9323 -0.0044  0.2150
 8035TIP3    H124069   1.473   0.816   1.310  0.6710 -0.3415  0.1788
 8035TIP3    H224070   1.403   0.837   1.177  1.4247  1.8153  0.0869
 8036TIP3   OH224071   3.824   4.935   3.145 -0.3588 -0.0040 -0.3496
 8036TIP3    H124072   3.852   4.943   3.054  0.5858 -0.9614 -0.1675
 8036TIP3    H224073   3.728   4.942   3.141 -0.2713  1.0504 -1.2691
 8037TIP3   OH224074   4.017   1.547   1.185 -0.5798 -0.3257  0.0207
 8037TIP3    H124075   4.011   1.549   1.090 -3.1282  0.1080  0.1009
 8037TIP3    H224076   3.939   1.595   1.214 -0.0755 -0.7927  2.3292
 8038TIP3   OH224077   5.583   4.449   1.939  0.2117 -0.0355  0.2485
 8038TIP3    H124078   5.525   4.377   1.916 -0.2526  0.9942 -1.9814
 8038TIP3    H224079   5.670   4.408   1.948 -0.5361 -1.3484  2.2822
 8039TIP3   OH224080   6.315   0.415   3.778  0.0151 -0.2401  0.4618
 8039TIP3    H124081   6.355   0.359   3.711 -1.7391 -0.1379 -0.7195
 8039TIP3    H224082   6.368   0.495   3.776 -0.6040  0.1790 -1.5842
 8040TIP3   OH224083   2.516   6.298   0.580  0.2290 -0.5701 -0.4421
 8040TIP3    H124084   2.459   6.265   0.649  1.3017 -1.3446  0.0990
 8040TIP3    H224085   2.601   6.310   0.622  0.7150 -0.3363 -1.4516
 8041TIP3   OH224086   0.143   2.774   5.725 -0.3472 -0.6067 -0.5384
 8041TIP3    H124087   0.070   2.717   5.702 -0.6458 -0.8280  0.8889
 8041TIP3    H224088   0.151   2.766   5.820  2.1198 -1.2776 -0.7569
 8042TIP3   OH224089   2.959   1.243   2.169 -0.2630 -0.0362  0.3583
 8042TIP3    H124090   2.976   1.276   2.257  1.4362 -0.2876  0.1656
 8042TIP3    H224091   3.019   1.169   2.160  0.6683  0.8710 -1.5038
 8043TIP3   OH224092   2.437   2.420   1.359 -0.4607 -0.0543  0.4159
 8043TIP3    H124093   2.397   2.346   1.315 -0.9608 -1.2339  2.6728
 8043TIP3    H224094   2.521   2.433   1.314 -0.3294 -2.0389  0.0001
 8044TIP3   OH224095   5.010   4.454   1.913 -0.8127 -0.0582 -0.6096
 8044TIP3    H124096   4.929   4.473   1.866 -1.1555  0.3488  0.1193
 8044TIP3    H224097   5.041   4.540   1.944  1.0891  0.1082 -2.7041
 8045TIP3   OH224098   0.914   5.230   0.212 -0.1709 -0.2224 -0.7446
 8045TIP3    H124099   0.890   5.210   0.303 -0.2704  1.3890 -0.3800
 8045TIP3    H224100   0.851   5.182   0.159 -0.3678 -0.8577  0.0437
 8046TIP3   OH224101   3.854   6.263   5.317 -0.4673  0.1181  0.5238
 8046TIP3    H124102   3.911   6.305   5.253 -0.9540  0.7456  0.4838
 8046TIP3    H224103   3.838   6.331   5.383 -2.7616  0.6765 -0.4864
 8047TIP3   OH224104   4.550   3.777   5.121 -0.0876  0.1441 -0.4162
 8047TIP3    H124105   4.593   3.851   5.164  0.7407 -0.8248  0.4566
 8047TIP3    H224106   4.507   3.816   5.045  2.2429  1.1928 -1.2972
 8048TIP3   OH224107   3.215   4.726   0.238 -0.7491 -0.4220  0.4459
 8048TIP3    H124108   3.163   4.686   0.307 -1.8963 -0.0166 -0.1713
 8048TIP3    H224109   3.254   4.803   0.280 -1.3306 -0.2528  0.6881
 8049TIP3   OH224110   0.133   5.498   0.400 -0.0751 -0.5752  0.5229
 8049TIP3    H124111   0.113   5.489   0.493  0.2851 -1.3725  0.5300
 8049TIP3    H224112   0.213   5.551   0.398 -0.9132  0.7359  0.5869
 8050TIP3   OH224113   5.105   4.756   1.236  0.2116 -0.2795  0.0697
 8050TIP3    H124114   5.124   4.662   1.238  0.7318 -0.1659  0.6510
 8050TIP3    H224115   5.010   4.760   1.245  0.1542 -0.7586 -0.2384
 8051TIP3   OH224116   2.516   2.886   0.708 -0.4658  0.2328  0.1463
 8051TIP3    H124117   2.473   2.956   0.658 -0.6727  1.0056  1.3833
 8051TIP3    H224118   2.502   2.909   0.799 -0.0868 -1.1674  0.5798
 8052TIP3   OH224119   0.167   1.496   5.573  0.1800  0.3115  0.0679
 8052TIP3    H124120   0.151   1.508   5.667 -0.8988 -1.0477  0.0791
 8052TIP3    H224121   0.107   1.559   5.531 -0.8721 -0.5261  0.2650
 8053TIP3   OH224122   1.867   4.556   0.165 -0.2809  0.0382 -0.2927
 8053TIP3    H124123   1.956   4.585   0.183 -0.5699 -0.2004  1.7301
 8053TIP3    H224124   1.866   4.464   0.191 -1.0796 -0.0020 -0.4486
 8054TIP3   OH224125   6.595   4.353   3.904 -0.2725  0.0337 -0.4821
 8054TIP3    H124126   6.672   4.295   3.905 -0.5587 -0.3604 -0.9506
 8054TIP3    H224127   6.627   4.434   3.866 -0.3194 -0.4821 -1.6772
 8055TIP3   OH224128   3.362   5.268   4.915  0.1452 -0.2981  0.0132
 8055TIP3    H124129   3.380   5.337   4.978 -0.3006  1.0094 -1.2291
 8055TIP3    H224130   3.389   5.187   4.959  2.6180  0.8416  0.7603
 8056TIP3   OH224131   2.703   0.656   5.017 -0.2281 -0.3764  0.0643
 8056TIP3    H124132   2.733   0.587   5.076  1.4554 -1.1988 -1.6643
 8056TIP3    H224133   2.625   0.620   4.976 -0.8711 -0.1693  1.0715
 8057TIP3   OH224134   3.209   0.865   4.169 -0.0684 -0.8655 -0.2035
 8057TIP3    H124135   3.127   0.838   4.209 -0.3618 -0.1327 -0.2912
 8057TIP3    H224136   3.252   0.918   4.236 -0.7346  0.6890 -0.9413
 8058TIP3   OH224137   1.360   4.966   1.957 -0.1743  0.0468 -0.4238
 8058TIP3    H124138   1.415   5.035   1.995 -0.5525  0.0379  0.1509
 8058TIP3    H224139   1.284   4.961   2.015 -0.8833  0.1884 -1.3182
 8059TIP3   OH224140   3.525   2.824   5.790  0.1701  0.6223  0.1833
 8059TIP3    H124141   3.583   2.815   5.866 -0.7037  2.1267  1.0683
 8059TIP3    H224142   3.439   2.842   5.827 -0.2661  1.4393 -1.1554
 8060TIP3   OH224143   2.577   1.656   0.109  0.0781  0.1025  0.2587
 8060TIP3    H124144   2.493   1.611   0.119 -0.3713  1.0411  0.8381
 8060TIP3    H224145   2.597   1.648   0.016 -0.2523 -0.8290  0.2567
 8061TIP3   OH224146   2.157   1.058   4.104 -0.1815 -0.5601 -0.0655
 8061TIP3    H124147   2.198   0.972   4.095 -0.8554 -0.8559 -0.4265
 8061TIP3    H224148   2.202   1.114   4.041  0.5989 -0.5125  0.5241
 8062TIP3   OH224149   1.325   1.365   5.720 -0.0123  0.0466 -0.1528
 8062TIP3    H124150   1.332   1.421   5.642  0.0869 -1.0214 -0.9321
 8062TIP3    H224151   1.345   1.277   5.688 -1.9074 -0.7378  0.6569
 8063TIP3   OH224152   3.020   3.614   4.434  0.1477 -0.1098  0.1119
 8063TIP3    H124153   3.006   3.650   4.346 -1.3388 -0.1597  0.2940
 8063TIP3    H224154   2.977   3.676   4.492  0.6111 -0.3828  0.7511
 8064TIP3   OH224155   2.159   4.270   3.059 -0.0038 -0.0422  0.1153
 8064TIP3    H124156   2.210   4.204   3.012  1.3394  1.3576 -0.4607
 8064TIP3    H224157   2.078   4.278   3.008 -1.0949 -2.5501  1.2504
 8065TIP3   OH224158   4.249   4.993   2.502 -0.0356  0.1736  0.2255
 8065TIP3    H124159   4.329   4.943   2.517 -0.3813 -0.4391  0.0438
 8065TIP3    H224160   4.229   5.033   2.586 -0.6360 -1.2924  0.8087
 8066TIP3   OH224161   5.883   2.164   5.212 -0.1798 -0.6170 -0.6645
 8066TIP3    H124162   5.874   2.113   5.292 -0.4078  1.4172  0.6780
 8066TIP3    H224163   5.793   2.180   5.183 -0.0900 -1.7164 -1.6016
 8067TIP3   OH224164   1.543   0.518   4.575  0.3153  0.4505 -0.1325
 8067TIP3    H124165   1.620   0.461   4.579  0.8753  1.2067 -0.0682
 8067TIP3    H224166   1.499   0.505   4.660 -0.8681 -1.6581 -0.9898
 8068TIP3   OH224167   6.921   2.521   4.506  0.2834  0.7781  0.5087
 8068TIP3    H124168   6.936   2.548   4.596 -0.5685 -1.3535  1.3394
 8068TIP3    H224169   6.912   2.426   4.510  1.4244  0.4853 -2.0078
 8069TIP3   OH224170   0.861   0.528   2.342 -0.1022  0.0426 -0.3137
 8069TIP3    H124171   0.771   0.549   2.368 -0.7478 -0.8792 -1.7064
 8069TIP3    H224172   0.900   0.612   2.319  0.2784  0.8230  2.7552
 8070TIP3   OH224173   0.535   6.763   2.537  0.0823  0.2487  0.0822
 8070TIP3    H124174   0.470   6.697   2.512  0.9363 -0.0186 -1.5713
 8070TIP3    H224175   0.489   6.846   2.526 -0.1905  0.0397 -0.3818
 8071TIP3   OH224176   6.456   5.266   2.385 -0.1989 -0.2644  0.1707
 8071TIP3    H124177   6.545   5.269   2.350  0.7293  0.0789  2.3970
 8071TIP3    H224178   6.449   5.345   2.439 -2.2665  0.2886 -0.8240
 8072TIP3   OH224179   5.238   4.819   4.767  0.7126 -0.1929 -0.1295
 8072TIP3    H124180   5.224   4.837   4.860 -3.3664  0.4581 -0.6937
 8072TIP3    H224181   5.151   4.821   4.729  1.9634 -2.8060 -3.6248
 8073TIP3   OH224182   5.127   6.328   4.082  0.2895 -0.5171 -0.6822
 8073TIP3    H124183   5.071   6.401   4.056  0.1188 -0.8179 -1.1952
 8073TIP3    H224184   5.142   6.280   4.000 -0.9604 -1.9771 -0.1128
 8074TIP3   OH224185   1.242   6.237   5.015 -0.2231 -0.2080 -0.4217
 8074TIP3    H124186   1.216   6.195   4.933 -0.7181 -0.8141  0.0377
 8074TIP3    H224187   1.259   6.328   4.991 -1.2653 -0.1616 -1.0244
 8075TIP3   OH224188   0.346   2.990   3.656 -0.5444  0.5753  0.4489
 8075TIP3    H124189   0.397   2.988   3.576  1.0224 -1.0068  1.4046
 8075TIP3    H224190   0.392   3.052   3.713 -1.7914  1.8865  0.0918
 8076TIP3   OH224191   3.986   4.084   4.040  0.4524  0.5890  0.3284
 8076TIP3    H124192   3.937   4.100   3.959 -1.5664 -0.5340  1.2239
 8076TIP3    H224193   4.017   3.994   4.032 -1.9012 -0.4618  1.7021
 8077TIP3   OH224194   5.403   5.173   3.335 -0.0895 -0.1440  0.3249
 8077TIP3    H124195   5.324   5.227   3.325 -0.9858 -1.5722 -0.6189
 8077TIP3    H224196   5.442   5.173   3.248 -0.0580 -0.9456  0.3362
 8078TIP3   OH224197   1.052   1.546   1.947 -0.4454 -0.0388  0.2898
 8078TIP3    H124198   1.138   1.586   1.931 -0.6815  0.7755  0.9543
 8078TIP3    H224199   0.992   1.621   1.952 -0.6847 -0.3121  2.9875
 8079TIP3   OH224200   4.985   0.076   4.233  0.5030  0.0088  0.0655
 8079TIP3    H124201   4.952   0.166   4.244 -1.3755 -0.4303 -1.3987
 8079TIP3    H224202   5.058   0.085   4.171  1.6085  0.7176  1.4191
 8080TIP3   OH224203   3.342   6.438   1.985  0.3954  0.2385  0.2313
 8080TIP3    H124204   3.307   6.374   1.923  0.4935  0.6668 -0.2669
 8080TIP3    H224205   3.400   6.386   2.041  0.1268 -0.1935  0.1180
 8081TIP3   OH224206   2.023   5.349   1.798  0.3272  0.5323  0.0438
 8081TIP3    H124207   2.118   5.340   1.804  0.2837  0.5099  0.7408
 8081TIP3    H224208   1.989   5.277   1.852 -0.0809  0.8267  0.1816
 8082TIP3   OH224209   1.729   6.431   0.271 -1.1383  0.0647  0.0775
 8082TIP3    H124210   1.819   6.417   0.300 -1.5805 -1.0834  0.9947
 8082TIP3    H224211   1.725   6.394   0.183 -0.3239  1.6027 -0.6393
 8083TIP3   OH224212   1.894   6.417   4.969  0.1496  0.0866 -0.2313
 8083TIP3    H124213   1.854   6.341   5.011 -2.5930  1.8074  0.6097
 8083TIP3    H224214   1.914   6.388   4.880 -0.2790 -1.7567  0.2311
 8084TIP3   OH224215   5.224   4.677   0.021 -0.2247  0.1065  0.0317
 8084TIP3    H124216   5.274   4.745  -0.023 -0.5679  0.7943  0.6910
 8084TIP3    H224217   5.288   4.634   0.079  0.0175 -0.2195 -0.4687
 8085TIP3   OH224218   5.078   2.559   1.037  0.3496  0.0610  0.0846
 8085TIP3    H124219   5.120   2.491   1.089 -1.1762  0.3415  1.7426
 8085TIP3    H224220   5.136   2.635   1.047  1.0241 -0.4051 -0.1753
 8086TIP3   OH224221   7.149   1.377   4.422  0.1148  0.5841 -0.2989
 8086TIP3    H124222   7.201   1.452   4.392  1.0903  0.4759  1.0300
 8086TIP3    H224223   7.120   1.402   4.510  1.6486 -1.1107  0.7674
 8087TIP3   OH224224   2.567   5.748   1.763 -0.1993  0.9359 -0.7338
 8087TIP3    H124225   2.530   5.684   1.703  0.1365  2.3484 -2.5559
 8087TIP3    H224226   2.644   5.705   1.800 -0.0744  0.2242 -1.7817
 8088TIP3   OH224227   6.156   5.911   4.401 -0.8599 -0.1713  0.4237
 8088TIP3    H124228   6.238   5.960   4.394 -0.9372 -0.1803 -0.7481
 8088TIP3    H224229   6.174   5.841   4.464 -0.2273  0.3120  0.7877
 8089TIP3   OH224230   5.219   3.796   2.430  0.0023  0.9230 -0.0487
 8089TIP3    H124231   5.231   3.884   2.395  0.5962  0.4693 -1.0571
 8089TIP3    H224232   5.272   3.740   2.372 -1.2367 -0.2288 -0.1360
 8090TIP3   OH224233   0.592   5.865   2.340 -1.0574  0.4009 -0.5700
 8090TIP3    H124234   0.559   5.777   2.359 -1.0211  0.5413  0.1751
 8090TIP3    H224235   0.587   5.872   2.245 -0.0208 -0.8226 -0.7582
 8091TIP3   OH224236   0.220   2.010   3.487 -0.1757 -0.3989  0.2284
 8091TIP3    H124237   0.136   2.044   3.516 -0.8905  0.2910 -2.4074
 8091TIP3    H224238   0.211   1.915   3.496 -0.8651 -0.2840  0.8615
 8092TIP3   OH224239   5.859   2.581   3.333 -0.3929  0.5817 -0.1799
 8092TIP3    H124240   5.856   2.655   3.272 -1.7432 -0.1951 -1.1169
 8092TIP3    H224241   5.769   2.549   3.336 -0.2833  0.3549  1.9701
 8093TIP3   OH224242   2.426   3.128   5.289 -0.3258 -0.0026  0.0304
 8093TIP3    H124243   2.423   3.035   5.312 -0.6296 -0.0373 -0.1513
 8093TIP3    H224244   2.513   3.140   5.252  0.1864  0.0591  1.2046
 8094TIP3   OH224245   4.940   2.992   2.061 -0.0232  0.1513  0.2532
 8094TIP3    H124246   4.874   2.922   2.059 -1.5468  1.4951  0.9829
 8094TIP3    H224247   5.007   2.964   2.000 -1.0066 -1.5473 -0.1060
 8095TIP3   OH224248   6.928   3.862   4.662  0.0883 -0.6727 -0.1136
 8095TIP3    H124249   7.013   3.880   4.700 -0.4044  0.2047  0.6070
 8095TIP3    H224250   6.916   3.931   4.596  0.4166 -1.4745 -1.0437
 8096TIP3   OH224251   4.693   1.558   3.257 -0.1217 -0.0721  0.4114
 8096TIP3    H124252   4.624   1.621   3.237 -0.1077 -0.2893 -0.3520
 8096TIP3    H224253   4.752   1.605   3.317  0.3838  0.9743 -0.8631
 8097TIP3   OH224254   6.695   4.643   2.111  0.2326  0.3575  0.2919
 8097TIP3    H124255   6.666   4.651   2.020 -0.7109 -1.1855  0.4269
 8097TIP3    H224256   6.618   4.613   2.159  1.7279 -3.0688  0.8380
 8098TIP3   OH224257   6.561   6.529   2.349  0.1420  1.0195  0.3611
 8098TIP3    H124258   6.510   6.576   2.415 -0.7881  0.7683 -0.1613
 8098TIP3    H224259   6.630   6.484   2.399  0.4838  2.1841  0.9608
 8099TIP3   OH224260   6.502   2.397   1.410 -0.2794 -0.5193 -0.0688
 8099TIP3    H124261   6.458   2.415   1.327 -0.6816  0.1424  0.2778
 8099TIP3    H224262   6.528   2.305   1.404 -0.6699 -0.5903 -0.7609
 8100TIP3   OH224263   0.207   3.117   0.300 -0.3322  0.1410  0.5173
 8100TIP3    H124264   0.252   3.068   0.231  0.2447  0.4822  0.6515
 8100TIP3    H224265   0.116   3.087   0.295 -0.3986  0.5067 -0.6958
 8101TIP3   OH224266   2.671   6.592   5.376  0.6035  0.2823 -0.2803
 8101TIP3    H124267   2.589   6.620   5.416  0.6647 -2.6544  2.2844
 8101TIP3    H224268   2.739   6.628   5.434  0.8971 -0.6826 -0.0133
 8102TIP3   OH224269   1.315   1.414   0.759 -0.5064 -0.0247  0.4777
 8102TIP3    H124270   1.238   1.358   0.750 -0.6091 -0.0011  1.1321
 8102TIP3    H224271   1.389   1.356   0.742 -0.5968 -0.4393  1.4391
 8103TIP3   OH224272   5.814   5.931   0.859  0.0486  0.5957 -0.3084
 8103TIP3    H124273   5.777   5.866   0.800 -0.6811  1.1563 -0.4807
 8103TIP3    H224274   5.750   5.938   0.930  0.9192 -0.0850  0.5784
 8104TIP3   OH224275   0.738   6.306   0.090 -0.3719  0.0436  0.0635
 8104TIP3    H124276   0.644   6.290   0.080 -0.1004 -1.2874 -0.6341
 8104TIP3    H224277   0.776   6.219   0.103  0.7751  0.5500  0.2378
 8105TIP3   OH224278   1.551   5.928   0.206 -0.0496  0.6499 -0.0727
 8105TIP3    H124279   1.536   6.012   0.163  2.0186  1.0023 -0.1698
 8105TIP3    H224280   1.592   5.873   0.139  0.8550  0.3692  0.6936
 8106TIP3   OH224281   5.054   0.725   3.809  0.1923 -0.1568 -0.0160
 8106TIP3    H124282   4.990   0.678   3.863 -0.1246 -0.4244 -0.6199
 8106TIP3    H224283   5.045   0.687   3.722  1.9022 -0.9011  0.1044
 8107TIP3   OH224284   3.689   1.028   0.956 -0.0078 -0.4156  0.0171
 8107TIP3    H124285   3.635   1.022   1.035 -0.4050  1.8680 -0.0125
 8107TIP3    H224286   3.772   1.064   0.987  0.1001 -0.2021 -0.5221
 8108TIP3   OH224287   4.676   0.030   2.948  0.2068 -0.0275  0.2198
 8108TIP3    H124288   4.615   0.101   2.964  0.2869 -0.2229  1.5275
 8108TIP3    H224289   4.667   0.010   2.855  0.1375  1.6347 -0.1598
 8109TIP3   OH224290   0.469   3.937   1.196 -0.4164  0.2924 -0.4203
 8109TIP3    H124291   0.409   3.953   1.124 -1.5411 -0.3185  0.3477
 8109TIP3    H224292   0.472   4.021   1.243 -0.9390  0.2337 -0.2742
 8110TIP3   OH224293   4.397   1.651   3.572 -0.3020 -0.2154  0.3500
 8110TIP3    H124294   4.404   1.600   3.491  0.9258  0.3309  0.0800
 8110TIP3    H224295   4.460   1.610   3.632 -1.3762 -0.7687  1.1278
 8111TIP3   OH224296   5.651   5.578   3.371  0.0701 -0.1371  0.2660
 8111TIP3    H124297   5.672   5.530   3.291 -0.0104  0.9822 -0.4472
 8111TIP3    H224298   5.673   5.518   3.442  1.2019 -0.7310 -0.5691
 8112TIP3   OH224299   4.202   2.869   3.532  0.0383  0.1144 -0.0754
 8112TIP3    H124300   4.224   2.921   3.455 -0.7686 -0.3619 -0.6336
 8112TIP3    H224301   4.128   2.815   3.505  0.0634 -0.4217  0.8811
 8113TIP3   OH224302   5.939   5.087   1.837  0.4797  0.0196  0.6759
 8113TIP3    H124303   5.948   5.043   1.752 -1.8686  0.0983  0.3098
 8113TIP3    H224304   5.904   5.020   1.895  0.8082  0.3279  1.2365
 8114TIP3   OH224305   0.365   5.215   4.211  0.3239  0.5919 -0.3267
 8114TIP3    H124306   0.430   5.148   4.234  0.3716  1.0475  0.8971
 8114TIP3    H224307   0.296   5.166   4.167  0.1787 -0.3404  0.8917
 8115TIP3   OH224308   6.125   2.099   3.257  0.0800  0.2877 -0.3802
 8115TIP3    H124309   6.110   2.192   3.237 -1.1737  0.2152  0.1201
 8115TIP3    H224310   6.057   2.077   3.321  1.4468 -0.5288  0.8691
 8116TIP3   OH224311   6.600   6.275   3.376 -0.5654  0.2041 -0.0650
 8116TIP3    H124312   6.664   6.310   3.438 -0.7938 -0.0009  0.2909
 8116TIP3    H224313   6.535   6.344   3.367 -0.2988  0.4158 -0.4334
 8117TIP3   OH224314   2.221   6.713   2.061  0.4826  0.0196 -0.4094
 8117TIP3    H124315   2.256   6.680   1.978 -0.0698  0.3297 -0.7712
 8117TIP3    H224316   2.165   6.642   2.092  1.6133 -0.5859  0.3020
 8118TIP3   OH224317   6.343   3.318   5.415 -0.5113  0.2273 -0.8546
 8118TIP3    H124318   6.252   3.290   5.423 -0.5468  0.6506  0.4360
 8118TIP3    H224319   6.384   3.251   5.360 -2.0490  1.1304 -3.2745
 8119TIP3   OH224320   0.948   2.017   3.767  0.2872  0.0594  0.7171
 8119TIP3    H124321   0.898   2.069   3.704 -1.9542  0.0819  2.3951
 8119TIP3    H224322   0.983   2.081   3.829  0.0135 -0.1894  1.1341
 8120TIP3   OH224323   0.500   4.630   2.648  0.2993 -0.0222  0.1715
 8120TIP3    H124324   0.447   4.708   2.639  0.6432  0.4405  1.7571
 8120TIP3    H224325   0.476   4.595   2.734  0.2760 -1.5754 -0.4293
 8121TIP3   OH224326   5.720   3.646   5.478  0.0948  0.2062  0.0799
 8121TIP3    H124327   5.647   3.700   5.507  0.6367  0.6798  0.5977
 8121TIP3    H224328   5.785   3.654   5.549 -0.1575 -1.8309  0.6064
 8122TIP3   OH224329   0.955   3.254   4.283 -0.2054 -0.3119  0.4652
 8122TIP3    H124330   0.860   3.249   4.293 -0.2014 -0.8384  0.2794
 8122TIP3    H224331   0.976   3.345   4.303 -1.1346  0.7278 -2.6035
 8123TIP3   OH224332   5.334   6.028   2.954  0.1567  0.6240  0.0208
 8123TIP3    H124333   5.284   6.108   2.940  2.2097  2.2367  1.3187
 8123TIP3    H224334   5.303   5.995   3.039 -0.8461 -0.1309 -0.6158
 8124TIP3   OH224335   4.374   2.658   3.360 -0.1511  0.1739  0.1137
 8124TIP3    H124336   4.288   2.667   3.400 -0.4080  1.0880 -0.6390
 8124TIP3    H224337   4.359   2.664   3.266  0.4544 -1.9769 -0.1806
 8125TIP3   OH224338   1.218   0.035   3.066  0.5643  0.4789  0.2640
 8125TIP3    H124339   1.182   0.124   3.061  0.2577  0.3998  0.8678
 8125TIP3    H224340   1.234   0.010   2.976 -0.8078  0.5637 -0.0148
 8126TIP3   OH224341   5.696   2.943   0.967  0.0190 -0.0665  0.0110
 8126TIP3    H124342   5.654   3.029   0.967  0.5049  0.2070  1.8973
 8126TIP3    H224343   5.625   2.881   0.950 -1.1097  0.4306  2.4589
 8127TIP3   OH224344   2.617   3.764   2.418  0.3038  0.2512 -0.2710
 8127TIP3    H124345   2.556   3.753   2.346 -1.3225  1.0317  0.9297
 8127TIP3    H224346   2.564   3.798   2.490  2.2325  1.4526  0.6849
 8128TIP3   OH224347   1.019   1.622   1.309 -0.2316  0.1326  0.0531
 8128TIP3    H124348   0.957   1.635   1.237  0.1176  1.6039 -0.0220
 8128TIP3    H224349   0.964   1.601   1.385 -0.4948 -3.8192 -1.0406
 8129TIP3   OH224350   7.056   5.859   1.584  0.4580 -0.1823  0.1451
 8129TIP3    H124351   7.048   5.907   1.502 -0.5759 -0.2141  0.2133
 8129TIP3    H224352   7.118   5.788   1.565  1.4997  0.7709 -0.1343
 8130TIP3   OH224353   1.840   4.306   3.999 -0.2871 -0.2482 -0.4091
 8130TIP3    H124354   1.776   4.319   3.928 -1.0227 -1.3862  0.0100
 8130TIP3    H224355   1.830   4.214   4.022  1.0492 -0.2677  0.1337
 8131TIP3   OH224356   4.494   4.362   1.220 -0.4899 -0.2965 -0.4399
 8131TIP3    H124357   4.476   4.270   1.198 -0.2596 -0.5913  0.5727
 8131TIP3    H224358   4.409   4.396   1.250 -0.9260  0.2440 -2.1226
 8132TIP3   OH224359   4.616   0.220   4.295 -0.3922 -0.1556 -0.0703
 8132TIP3    H124360   4.635   0.127   4.301  0.2858  0.0471  1.1265
 8132TIP3    H224361   4.702   0.262   4.298 -0.7591  0.5653  0.7904
 8133TIP3   OH224362   4.738   6.794   5.622 -0.2922  0.3403  0.3977
 8133TIP3    H124363   4.697   6.802   5.536 -0.9314 -1.1229  0.5342
 8133TIP3    H224364   4.667   6.767   5.680  0.2209  0.8990  1.3141
 8134TIP3   OH224365   6.413   4.619   3.116  0.0862  0.3268 -0.1302
 8134TIP3    H124366   6.382   4.566   3.043 -1.2077 -0.3025  0.8294
 8134TIP3    H224367   6.376   4.706   3.100 -1.1793 -0.0990  0.3340
 8135TIP3   OH224368   2.232   4.469   4.742 -0.2055 -0.4291  0.1299
 8135TIP3    H124369   2.170   4.438   4.807 -0.9568  1.5532  0.4319
 8135TIP3    H224370   2.278   4.542   4.785  1.6209 -1.1718 -0.4445
 8136TIP3   OH224371   0.109   5.215   3.137  0.1463 -0.1369  0.3510
 8136TIP3    H124372   0.109   5.188   3.045  0.4369 -1.2880  0.6721
 8136TIP3    H224373   0.126   5.309   3.134  0.2114 -0.1638 -0.7682
 8137TIP3   OH224374   4.938   4.657   3.387 -0.1733  0.0674 -0.1280
 8137TIP3    H124375   4.994   4.601   3.440 -0.2709 -1.1101 -1.2301
 8137TIP3    H224376   4.866   4.681   3.446 -0.4838 -1.5211  0.1827
 8138TIP3   OH224377   6.469   2.450   3.719 -0.8185 -0.1335  0.3656
 8138TIP3    H124378   6.504   2.490   3.798 -1.1816  2.0043 -0.5059
 8138TIP3    H224379   6.492   2.357   3.728  2.2559  0.5846  1.3569
 8139TIP3   OH224380   6.483   2.720   1.179 -0.2249  0.4474 -0.3432
 8139TIP3    H124381   6.556   2.735   1.119  0.8796 -0.1830  0.8096
 8139TIP3    H224382   6.485   2.795   1.239  1.0959 -0.7823  1.2445
 8140TIP3   OH224383   1.289   6.159   1.700  0.1651  0.0579 -0.1147
 8140TIP3    H124384   1.328   6.185   1.616 -1.4630  1.3037 -0.5511
 8140TIP3    H224385   1.195   6.172   1.687 -0.1419  0.0248  1.8286
 8141TIP3   OH224386   5.711   5.821   2.436  0.4744 -0.3964  0.3807
 8141TIP3    H124387   5.773   5.847   2.368  0.4659  0.4766  0.6869
 8141TIP3    H224388   5.642   5.888   2.431 -0.4631 -1.3583  0.0288
 8142TIP3   OH224389   5.504   1.545   1.181  0.5801  0.2942  0.3370
 8142TIP3    H124390   5.427   1.575   1.230  1.1604 -0.9023  2.0342
 8142TIP3    H224391   5.479   1.460   1.146  0.1087  1.1991 -1.7124
 8143TIP3   OH224392   4.136   2.081   3.011 -0.5357  0.3444 -0.1177
 8143TIP3    H124393   4.115   2.173   3.026  1.7557  1.1727 -1.4733
 8143TIP3    H224394   4.165   2.049   3.096 -0.2529  1.2140  0.1213
 8144TIP3   OH224395   7.169   6.096   1.154  0.0294  0.8802  0.4433
 8144TIP3    H124396   7.172   6.188   1.129 -1.8986  0.5290 -1.3292
 8144TIP3    H224397   7.259   6.065   1.142  0.8762  2.6454  1.7911
 8145TIP3   OH224398   2.338   4.673   2.634  0.0396 -0.4576  0.2860
 8145TIP3    H124399   2.425   4.713   2.627  0.6116 -1.9413 -2.3956
 8145TIP3    H224400   2.345   4.616   2.711  0.4678  1.4955  1.7762
 8146TIP3   OH224401   4.586   4.132   5.660 -0.2879  0.2604 -0.0511
 8146TIP3    H124402   4.538   4.054   5.633  2.0668 -1.1561 -0.4890
 8146TIP3    H224403   4.605   4.178   5.578  1.5149 -0.7468 -0.2532
 8147TIP3   OH224404   6.690   2.893   1.904 -0.1975  0.8002  0.8260
 8147TIP3    H124405   6.632   2.968   1.911  1.7010  2.3235  1.3194
 8147TIP3    H224406   6.760   2.911   1.967  1.2608 -0.4770 -0.3426
 8148TIP3   OH224407   5.661   5.516   1.826  0.6150 -0.0009 -0.4399
 8148TIP3    H124408   5.652   5.500   1.732 -0.9810 -1.5956 -0.0677
 8148TIP3    H224409   5.575   5.496   1.862  1.6479 -1.0685  1.5758
 8149TIP3   OH224410   7.097   4.295   4.594  0.4318  0.0457 -0.0279
 8149TIP3    H124411   7.166   4.276   4.531  0.2974  1.0353 -0.4980
 8149TIP3    H224412   7.144   4.325   4.672  0.5543  1.7272 -0.6932
 8150TIP3   OH224413   4.514   2.977   4.241  0.6910  0.3927  0.1907
 8150TIP3    H124414   4.493   2.961   4.149  1.1587  0.0041  0.1508
 8150TIP3    H224415   4.436   3.022   4.275  1.1828  2.1663 -0.8353
 8151TIP3   OH224416   0.144   1.217   0.500 -0.3466 -0.4629 -0.3140
 8151TIP3    H124417   0.155   1.273   0.423 -1.1131 -0.5010 -0.4609
 8151TIP3    H224418   0.188   1.264   0.571  0.3871 -0.4408 -0.7766
 8152TIP3   OH224419   0.035   0.233   1.846 -0.4731 -0.3292  0.3021
 8152TIP3    H124420   0.103   0.288   1.885 -0.0760 -0.5078 -0.1431
 8152TIP3    H224421  -0.023   0.295   1.801  1.0099 -0.3943 -1.8227
 8153TIP3   OH224422   2.372   2.696   2.446 -0.1880  0.3371  0.7171
 8153TIP3    H124423   2.348   2.623   2.504 -0.8452 -0.9555 -1.0702
 8153TIP3    H224424   2.288   2.727   2.412  0.2266  0.6149 -0.0551
 8154TIP3   OH224425   4.847   5.597   3.657 -0.1076 -0.0588 -0.0334
 8154TIP3    H124426   4.757   5.571   3.677  0.1405 -1.9923 -1.1298
 8154TIP3    H224427   4.839   5.684   3.619 -1.4173  0.1730  0.7386
 8155TIP3   OH224428   0.155   0.287   3.145 -0.0253  0.0427 -1.2967
 8155TIP3    H124429   0.195   0.331   3.219 -0.0046 -1.2400 -0.5091
 8155TIP3    H224430   0.076   0.338   3.126  1.4694  2.0826 -2.3125
 8156TIP3   OH224431   2.748   5.069   1.445  0.0555 -0.3566  0.3133
 8156TIP3    H124432   2.673   5.012   1.429  1.2894 -1.9186 -0.1768
 8156TIP3    H224433   2.753   5.077   1.540 -0.9260  0.0465  0.3357
 8157TIP3   OH224434   2.882   4.750   4.671  0.2535  0.2504  0.0755
 8157TIP3    H124435   2.911   4.705   4.750  0.4688  0.4752  0.1258
 8157TIP3    H224436   2.963   4.785   4.633  0.4269 -1.4197 -1.2378
 8158TIP3   OH224437   1.307   2.616   0.632  0.5015  0.2653 -0.0712
 8158TIP3    H124438   1.242   2.546   0.631  1.6712 -0.9831  1.9649
 8158TIP3    H224439   1.262   2.693   0.598 -2.1200 -0.4561  1.5256
 8159TIP3   OH224440   1.624   2.307   5.520  0.1532  0.4768  0.1258
 8159TIP3    H124441   1.704   2.324   5.470 -0.9500  0.2068 -1.8349
 8159TIP3    H224442   1.598   2.393   5.554  0.4100  0.8324 -0.5696
 8160TIP3   OH224443   2.976   3.358   4.568 -0.5946  0.1577  0.3009
 8160TIP3    H124444   2.974   3.434   4.510  1.1360 -0.5806 -0.8235
 8160TIP3    H224445   2.937   3.287   4.516  3.7247 -1.3072 -1.4331
 8161TIP3   OH224446   3.364   2.151   3.644  0.7774 -0.1511 -0.7579
 8161TIP3    H124447   3.427   2.221   3.628  0.1322  0.8464  0.8034
 8161TIP3    H224448   3.410   2.071   3.621  1.7487  0.7214 -2.0138
 8162TIP3   OH224449   0.452   2.835   1.635 -0.1530 -0.1861 -0.9389
 8162TIP3    H124450   0.486   2.896   1.569 -1.7796  2.1830  0.2803
 8162TIP3    H224451   0.376   2.795   1.593 -0.5797  0.5424 -0.8755
 8163TIP3   OH224452   3.437   1.108   4.360  0.1597 -0.1677  0.7935
 8163TIP3    H124453   3.425   1.125   4.453 -1.8200  0.6693  0.4334
 8163TIP3    H224454   3.419   1.014   4.350  2.1204 -0.6551  1.4663
 8164TIP3   OH224455   0.660   2.427   5.450  0.0837 -0.0045  0.1501
 8164TIP3    H124456   0.644   2.467   5.365 -0.0957  0.6169  0.4696
 8164TIP3    H224457   0.748   2.456   5.475  0.8098 -1.5269 -0.5553
 8165TIP3   OH224458   1.231   0.669   3.978  0.0330 -0.1034  0.2965
 8165TIP3    H124459   1.320   0.699   3.961  0.1756 -0.4084  0.5121
 8165TIP3    H224460   1.176   0.738   3.941  0.3489 -0.3536 -0.6708
 8166TIP3   OH224461   5.401   2.723   1.897  0.5859 -0.2675  0.4065
 8166TIP3    H124462   5.430   2.814   1.907 -0.2755 -0.1029  1.6149
 8166TIP3    H224463   5.479   2.671   1.918  1.1062  0.1678 -0.3703
 8167TIP3   OH224464   4.595   3.371   3.321 -0.2024 -0.2249  0.1865
 8167TIP3    H124465   4.503   3.344   3.310 -0.3058 -0.9513  2.3268
 8167TIP3    H224466   4.640   3.290   3.346  1.4180 -0.2449 -2.5010
 8168TIP3   OH224467   1.175   6.097   4.272 -0.0980  0.4444 -0.2141
 8168TIP3    H124468   1.105   6.124   4.212 -0.4561  0.5393  0.2330
 8168TIP3    H224469   1.128   6.059   4.346  0.3195  0.7365  0.2027
 8169TIP3   OH224470   5.788   3.666   0.654 -0.5588 -0.5385  0.3418
 8169TIP3    H124471   5.756   3.608   0.723 -1.6102  1.0023  1.2032
 8169TIP3    H224472   5.750   3.751   0.674 -0.1124  0.1825 -1.6106
 8170TIP3   OH224473   6.222   1.279   4.337 -0.3164 -0.2532 -0.1031
 8170TIP3    H124474   6.290   1.316   4.393 -0.5081  0.4353 -0.3152
 8170TIP3    H224475   6.269   1.253   4.257  0.2506 -2.7027  0.9269
 8171TIP3   OH224476   0.143   2.947   1.242  0.2500  0.3197  0.3210
 8171TIP3    H124477   0.131   2.867   1.293 -0.4460 -0.4069 -0.9334
 8171TIP3    H224478   0.057   2.988   1.240  0.4215  0.6842  0.2695
 8172TIP3   OH224479   1.325   6.109   3.174 -0.0219  0.0503  0.6130
 8172TIP3    H124480   1.344   6.103   3.268  0.6227 -1.3334  0.4240
 8172TIP3    H224481   1.332   6.202   3.154  0.1912  0.3208  1.8747
 8173TIP3   OH224482   2.917   0.500   1.036 -0.0500 -0.2678 -0.4632
 8173TIP3    H124483   2.940   0.574   0.980 -0.7776  0.6557  0.4399
 8173TIP3    H224484   2.983   0.500   1.105  0.3019 -0.8493 -0.7844
 8174TIP3   OH224485   6.377   6.615   1.724  0.2621 -0.2478 -0.1505
 8174TIP3    H124486   6.412   6.664   1.650  1.2162  0.4386  0.7246
 8174TIP3    H224487   6.367   6.680   1.794  0.5597 -1.1063  0.7133
 8175TIP3   OH224488   6.311   0.217   5.002 -0.5286 -0.6949  0.4100
 8175TIP3    H124489   6.280   0.281   5.067  2.6059  2.3022 -0.7609
 8175TIP3    H224490   6.374   0.163   5.050  1.7932  1.5223  0.0629
 8176TIP3   OH224491   0.517   0.286   3.503  0.8806  0.6873  0.3343
 8176TIP3    H124492   0.487   0.270   3.593  1.7827 -1.1002  0.3636
 8176TIP3    H224493   0.543   0.378   3.502  0.4439  0.8443  1.7873
 8177TIP3   OH224494   1.248   0.644   2.558 -0.8767 -0.2467  0.5442
 8177TIP3    H124495   1.210   0.557   2.554 -0.4804 -0.4154  0.3977
 8177TIP3    H224496   1.273   0.656   2.650 -1.9760  0.1682  0.8011
 8178TIP3   OH224497   6.164   6.460   4.465 -0.2321  0.0325  0.3093
 8178TIP3    H124498   6.249   6.459   4.510  0.3381  0.3101 -0.7261
 8178TIP3    H224499   6.118   6.384   4.500  0.6251 -0.3923  0.5522
 8179TIP3   OH224500   6.440   5.668   1.170  0.1154 -0.2994  0.1085
 8179TIP3    H124501   6.455   5.592   1.226 -0.9022 -2.6497 -2.5266
 8179TIP3    H224502   6.353   5.699   1.195  0.1773 -0.5416  0.6417
 8180TIP3   OH224503   0.108   3.074   5.461 -0.0278 -0.1677  0.6427
 8180TIP3    H124504   0.161   3.143   5.501  0.9583  0.0908 -1.0160
 8180TIP3    H224505   0.165   2.997   5.463 -0.8711 -0.7899  1.8700
 8181TIP3   OH224506   1.558   2.684   2.828 -0.5502  0.1623 -0.2271
 8181TIP3    H124507   1.615   2.621   2.784  0.2109  0.7720 -0.1211
 8181TIP3    H224508   1.617   2.750   2.864 -1.2249  0.1953  0.8837
 8182TIP3   OH224509   3.358   3.907   2.088  0.5556 -0.0976  0.2458
 8182TIP3    H124510   3.415   3.968   2.042 -3.5767  2.4250 -2.0720
 8182TIP3    H224511   3.271   3.924   2.053 -2.1161 -2.0626  5.0509
 8183TIP3   OH224512   6.162   6.054   3.916 -0.7233 -0.2274 -0.0971
 8183TIP3    H124513   6.251   6.087   3.931 -0.8647  0.6738 -1.1556
 8183TIP3    H224514   6.156   6.039   3.822 -1.5705 -0.6618  0.0099
 8184TIP3   OH224515   1.424   5.403   0.873  0.0972 -0.5623  0.7680
 8184TIP3    H124516   1.349   5.348   0.896 -0.0647 -0.8266 -0.3074
 8184TIP3    H224517   1.388   5.491   0.868 -0.3836 -0.7961 -0.6037
 8185TIP3   OH224518   0.367   6.482   0.961  0.0738  0.0016 -0.0713
 8185TIP3    H124519   0.431   6.458   0.895  1.5270  0.9748  0.9231
 8185TIP3    H224520   0.344   6.573   0.942  0.1183  0.1301  0.4552
 8186TIP3   OH224521   1.910   5.133   1.948  0.0618 -0.0166 -0.5038
 8186TIP3    H124522   1.841   5.108   1.887 -0.9813  3.1641 -0.8413
 8186TIP3    H224523   1.898   5.075   2.023 -3.3897  0.6974 -0.3362
 8187TIP3   OH224524   4.367   0.510   3.074  0.4102 -0.0073  0.0496
 8187TIP3    H124525   4.343   0.603   3.071 -0.0364 -0.1228 -0.0402
 8187TIP3    H224526   4.462   0.510   3.064  0.4418  0.4551  0.2757
 8188TIP3   OH224527   2.188   4.489   0.223 -0.1703 -0.5222  0.2869
 8188TIP3    H124528   2.148   4.519   0.305  0.5687  0.4713  0.3065
 8188TIP3    H224529   2.219   4.569   0.181  0.8921 -1.1643 -0.2023
 8189TIP3   OH224530   6.891   1.620   5.517 -0.3323 -0.1137 -0.7215
 8189TIP3    H124531   6.846   1.686   5.465  0.6047  0.2012 -1.1529
 8189TIP3    H224532   6.855   1.536   5.487  0.5978  0.0219 -2.3024
 8190TIP3   OH224533   2.479   0.927   3.390 -0.2082  0.1425 -0.0116
 8190TIP3    H124534   2.389   0.960   3.396  0.4420  2.1110 -0.3100
 8190TIP3    H224535   2.523   0.989   3.332  1.1822 -1.1918 -0.4428
 8191TIP3   OH224536   6.255   4.512   0.835 -0.1443 -0.1862 -0.7537
 8191TIP3    H124537   6.168   4.554   0.837  0.0599  0.2310 -0.3448
 8191TIP3    H224538   6.315   4.581   0.865  0.0204 -1.1893  1.4009
 8192TIP3   OH224539   6.135   1.943   1.622  0.2446 -0.2209  0.3727
 8192TIP3    H124540   6.070   1.903   1.680  0.8419 -1.0532  0.4919
 8192TIP3    H224541   6.083   1.983   1.552 -0.3882 -1.3844  0.1447
 8193TIP3   OH224542   5.090   3.253   5.447  0.2728  0.3665 -0.3405
 8193TIP3    H124543   5.005   3.296   5.456  0.5222  0.6613  0.7633
 8193TIP3    H224544   5.078   3.190   5.376 -1.2563 -0.5649  0.7125
 8194TIP3   OH224545   5.499   3.818   4.594  0.2994 -0.4999  0.4790
 8194TIP3    H124546   5.411   3.782   4.607  0.5675 -1.0920  0.7013
 8194TIP3    H224547   5.535   3.769   4.521  0.1259  0.3570 -0.1997
 8195TIP3   OH224548   0.713   1.931   1.654 -0.2434  0.1675 -0.3017
 8195TIP3    H124549   0.656   1.858   1.630 -0.6930  0.3519  0.1884
 8195TIP3    H224550   0.663   1.980   1.719  0.2228  0.6856 -0.3295
 8196TIP3   OH224551   5.684   5.249   2.012 -0.7385 -0.0757  0.1996
 8196TIP3    H124552   5.729   5.308   1.952  1.3368 -0.8446  0.9335
 8196TIP3    H224553   5.712   5.276   2.099  1.0432 -2.6434  0.5307
 8197TIP3   OH224554   5.440   2.777   3.881 -0.4933 -0.8577  0.8764
 8197TIP3    H124555   5.460   2.863   3.919 -0.4925 -0.8748  0.9143
 8197TIP3    H224556   5.452   2.715   3.953 -0.8049 -0.8538  0.9318
 8198TIP3   OH224557   6.903   4.925   1.013 -0.0079 -0.0049  0.2001
 8198TIP3    H124558   6.813   4.915   1.046 -0.9378  3.3696 -0.9325
 8198TIP3    H224559   6.958   4.890   1.083 -2.1456 -0.9952  1.4974
 8199TIP3   OH224560   2.572   3.081   2.617 -0.3990  0.1681 -0.0067
 8199TIP3    H124561   2.562   3.021   2.543 -0.9620 -0.4184  0.5285
 8199TIP3    H224562   2.593   3.165   2.577  0.6094 -0.4192 -0.7638
 8200TIP3   OH224563   1.576   6.110   2.797  0.9900  0.0967  0.0466
 8200TIP3    H124564   1.558   6.171   2.869 -1.4814 -0.8634  0.3354
 8200TIP3    H224565   1.548   6.158   2.719  0.5514 -0.0611  0.1030
 8201TIP3   OH224566   4.837   2.989   3.586  0.0156  0.0936  0.0482
 8201TIP3    H124567   4.928   2.965   3.569  0.4883  1.2814  0.7738
 8201TIP3    H224568   4.840   3.039   3.668 -1.3038  0.0502  0.1478
 8202TIP3   OH224569   3.856   6.756   4.529  0.0422 -0.2363  0.1320
 8202TIP3    H124570   3.907   6.805   4.593 -0.9615  1.1945 -0.1230
 8202TIP3    H224571   3.765   6.767   4.557 -0.2419 -1.6298 -0.1654
 8203TIP3   OH224572   3.603   2.971   1.369 -0.1504 -0.4248  0.3819
 8203TIP3    H124573   3.648   3.044   1.412  0.0048 -0.9684  1.1699
 8203TIP3    H224574   3.671   2.906   1.356 -0.5225 -0.9000  0.7758
 8204TIP3   OH224575   2.224   6.627   5.070 -0.0724  0.7143 -0.5971
 8204TIP3    H124576   2.228   6.583   4.985  2.4959  2.1739 -1.3327
 8204TIP3    H224577   2.309   6.609   5.110  0.5154  3.6864 -0.3052
 8205TIP3   OH224578   0.538   2.016   2.816 -0.2493 -0.1637  0.0780
 8205TIP3    H124579   0.484   1.938   2.802  1.8026 -1.4779 -0.9843
 8205TIP3    H224580   0.578   2.002   2.903 -2.0229  1.1295  1.1714
 8206TIP3   OH224581   1.852   5.233   0.471 -0.2958 -1.0764 -0.8258
 8206TIP3    H124582   1.786   5.301   0.454  0.4292 -0.0436  0.3224
 8206TIP3    H224583   1.873   5.198   0.385 -2.2792 -1.3905 -1.2395
 8207TIP3   OH224584   2.695   0.584   2.161  0.3106  0.9084 -0.3135
 8207TIP3    H124585   2.655   0.665   2.194 -1.4739 -0.4138  0.9310
 8207TIP3    H224586   2.634   0.552   2.096 -0.4465 -0.8266  1.1678
 8208TIP3   OH224587   0.681   6.670   0.840 -0.1502 -0.0488 -0.2269
 8208TIP3    H124588   0.777   6.663   0.840 -0.0219  0.6870  2.2214
 8208TIP3    H224589   0.650   6.579   0.837  0.6717 -0.3607  0.4805
 8209TIP3   OH224590   4.023   2.773   0.268 -0.3045 -0.0861 -0.7751
 8209TIP3    H124591   4.083   2.721   0.321 -0.8457  1.0958  1.1326
 8209TIP3    H224592   3.938   2.762   0.311 -0.8605  0.5985 -1.6599
 8210TIP3   OH224593   4.360   6.014   5.831 -0.3965  0.2343  0.2740
 8210TIP3    H124594   4.297   6.061   5.777 -1.0984 -0.0011  0.8775
 8210TIP3    H224595   4.392   5.943   5.775  0.4486  1.2118 -0.5409
 8211TIP3   OH224596   5.399   0.161   1.920  0.1087  0.3102 -0.5352
 8211TIP3    H124597   5.431   0.210   1.996  1.0161 -1.2061  0.1314
 8211TIP3    H224598   5.371   0.077   1.957 -0.2923 -0.1162 -1.7742
 8212TIP3   OH224599   5.726   2.792   3.553  0.0270 -0.2007  0.2555
 8212TIP3    H124600   5.789   2.809   3.483  0.6974 -1.1120  0.6187
 8212TIP3    H224601   5.768   2.828   3.632  1.2350 -2.8547  0.9433
 8213TIP3   OH224602   6.276   4.342   4.211 -0.0889  0.1997 -0.1503
 8213TIP3    H124603   6.226   4.423   4.224  0.4368  0.3021  1.5406
 8213TIP3    H224604   6.361   4.372   4.178 -0.5159  0.1667 -1.3178
 8214TIP3   OH224605   7.201   4.694   0.658 -0.4949  0.1160 -0.2171
 8214TIP3    H124606   7.187   4.600   0.672 -1.0515  0.3791  1.1434
 8214TIP3    H224607   7.180   4.708   0.566 -0.9613 -0.9918 -0.2930
 8215TIP3   OH224608   3.775   4.821   3.475 -0.4262 -0.0070  0.2930
 8215TIP3    H124609   3.831   4.896   3.456 -1.5278  1.2736  1.8836
 8215TIP3    H224610   3.750   4.788   3.389 -0.0606  1.5517 -0.4475
 8216TIP3   OH224611   2.899   2.876   2.914  0.0896 -0.4843  0.0040
 8216TIP3    H124612   2.930   2.830   2.836  0.0822  2.2028 -1.7073
 8216TIP3    H224613   2.814   2.912   2.888 -1.0983 -1.5398  2.1382
 8217TIP3   OH224614   1.389   0.384   0.349 -0.0822 -0.0631  0.0640
 8217TIP3    H124615   1.371   0.338   0.267  2.8916 -1.3310  0.0106
 8217TIP3    H224616   1.319   0.354   0.408 -1.5001 -0.1727 -1.5638
 8218TIP3   OH224617   3.766   1.620   4.875 -0.1038 -0.6846 -0.2312
 8218TIP3    H124618   3.795   1.711   4.871  0.0654 -0.5839  1.8574
 8218TIP3    H224619   3.839   1.573   4.914  0.2794 -2.0053 -2.3840
 8219TIP3   OH224620   0.166   5.630   5.738  0.5265  0.0592 -0.4998
 8219TIP3    H124621   0.122   5.612   5.655  0.5665  0.8040 -0.6850
 8219TIP3    H224622   0.179   5.725   5.738  1.3433 -0.0510 -0.0481
 8220TIP3   OH224623   1.657   5.808   1.873 -0.1638 -0.4175  0.1434
 8220TIP3    H124624   1.661   5.731   1.816 -1.6254  0.9449 -1.9604
 8220TIP3    H224625   1.582   5.791   1.930 -1.7900  0.2036 -1.6753
 8221TIP3   OH224626   2.820   0.336   0.240 -0.1815  0.1526 -0.4087
 8221TIP3    H124627   2.899   0.286   0.222 -0.6569 -0.1432 -1.8062
 8221TIP3    H224628   2.841   0.425   0.212 -0.4442  0.0056 -1.0783
 8222TIP3   OH224629   4.391   0.907   3.931  0.5465  0.3554  0.0986
 8222TIP3    H124630   4.404   0.835   3.993  0.9435 -0.5144 -0.9611
 8222TIP3    H224631   4.296   0.906   3.913  0.4107  0.7005  0.7866
 8223TIP3   OH224632   0.678   5.104   4.707  0.3336 -0.3553  0.0974
 8223TIP3    H124633   0.620   5.176   4.680  2.8890  1.4793 -0.9706
 8223TIP3    H224634   0.752   5.110   4.646  1.8506 -2.2859  1.6424
 8224TIP3   OH224635   0.592   0.761   5.704  0.0447 -0.2249 -0.3159
 8224TIP3    H124636   0.634   0.687   5.748  0.2925  0.0221 -0.1360
 8224TIP3    H224637   0.664   0.818   5.679 -0.1965  0.2655  0.1121
 8225TIP3   OH224638   2.084   0.067   0.774 -0.4917 -0.2838 -0.1215
 8225TIP3    H124639   2.039  -0.007   0.734 -0.9529 -0.6495  1.0468
 8225TIP3    H224640   2.064   0.141   0.716 -0.6409 -0.9151 -0.8869
 8226TIP3   OH224641   2.512   6.028   1.942  0.0739 -0.1700  0.2307
 8226TIP3    H124642   2.469   6.067   1.866 -1.5031 -0.0799  1.1256
 8226TIP3    H224643   2.461   5.949   1.960  0.9969 -0.6832  0.6502
 8227TIP3   OH224644   5.600   5.909   4.916 -0.4430 -0.4665 -0.0905
 8227TIP3    H124645   5.580   5.817   4.899 -0.4970 -0.5736  0.5330
 8227TIP3    H224646   5.565   5.955   4.840 -0.7346 -0.9221 -0.2395
 8228TIP3   OH224647   4.289   1.931   4.613  0.5824  0.2511 -0.0404
 8228TIP3    H124648   4.310   2.023   4.600  2.2999  0.3289  2.4974
 8228TIP3    H224649   4.374   1.888   4.625 -0.2759 -1.1123  1.7081
 8229TIP3   OH224650   1.193   5.151   1.547 -0.1425 -0.0705 -0.6798
 8229TIP3    H124651   1.200   5.170   1.453  0.0591 -0.5940 -0.7795
 8229TIP3    H224652   1.163   5.060   1.550  0.9116 -0.4199 -0.2497
 8230TIP3   OH224653   3.652   2.444   2.784 -1.0330  0.0101 -0.3218
 8230TIP3    H124654   3.557   2.440   2.775 -0.8697 -0.5229 -2.0806
 8230TIP3    H224655   3.682   2.487   2.705  0.2612 -0.7491 -0.2751
 8231TIP3   OH224656   0.645   4.422   5.498  0.0508  0.2136 -0.4261
 8231TIP3    H124657   0.644   4.517   5.508 -0.1647  0.0557  1.3192
 8231TIP3    H224658   0.736   4.397   5.517 -0.5601 -0.1793  2.3348
 8232TIP3   OH224659   6.376   5.013   3.428  0.4983  0.2065 -0.4545
 8232TIP3    H124660   6.336   4.929   3.451  0.3982  0.4823  0.4400
 8232TIP3    H224661   6.328   5.042   3.351 -1.6839  0.9301  1.0661
 8233TIP3   OH224662   1.237   2.448   1.687  0.0492  0.2731  0.5177
 8233TIP3    H124663   1.259   2.383   1.621 -0.5975 -1.2075  1.7040
 8233TIP3    H224664   1.238   2.400   1.770 -0.6875  1.7270  1.4180
 8234TIP3   OH224665   4.157   1.990   5.509 -0.5444  0.0746 -0.4224
 8234TIP3    H124666   4.202   1.959   5.430 -0.2420  0.3084 -0.3472
 8234TIP3    H224667   4.227   2.000   5.574 -1.0128 -1.7937  0.4254
 8235TIP3   OH224668   0.006   0.784   5.252  0.3550  0.5313  0.0179
 8235TIP3    H124669   0.095   0.806   5.276  1.0023  0.0340 -1.7882
 8235TIP3    H224670  -0.041   0.780   5.336  2.5190 -1.4801  1.2434
 8236TIP3   OH224671   6.642   6.629   0.257 -0.4738 -0.0610 -0.5719
 8236TIP3    H124672   6.635   6.589   0.344  0.2691 -2.3305 -1.4865
 8236TIP3    H224673   6.719   6.686   0.263  0.0840 -0.8622  0.0144
 8237TIP3   OH224674   6.452   0.765   1.206 -0.2549  0.1611 -0.0004
 8237TIP3    H124675   6.422   0.702   1.271  1.6737 -1.4902 -0.5949
 8237TIP3    H224676   6.521   0.815   1.250 -1.6409  1.8060  0.4066
 8238TIP3   OH224677   3.468   4.349   3.214  0.4008 -0.1542 -1.0279
 8238TIP3    H124678   3.456   4.295   3.292  0.0200  2.1369  0.5834
 8238TIP3    H224679   3.402   4.316   3.152 -1.7912  0.2746  0.9543
 8239TIP3   OH224680   3.396   5.175   4.118  0.0955 -0.1227  0.2451
 8239TIP3    H124681   3.440   5.247   4.164  0.6222 -0.3586  0.1177
 8239TIP3    H224682   3.305   5.203   4.112  0.1732  0.2575  0.7470
 8240TIP3   OH224683   3.875   2.157   4.045  0.0673  0.7255  0.1911
 8240TIP3    H124684   3.939   2.087   4.034  0.4750  1.3719 -1.9784
 8240TIP3    H224685   3.920   2.236   4.014 -1.1439  1.5525  0.4568
 8241TIP3   OH224686   6.866   6.059   0.758 -0.4962 -0.4303  0.7713
 8241TIP3    H124687   6.819   6.087   0.836 -1.5916  0.2682 -0.1206
 8241TIP3    H224688   6.945   6.113   0.757 -1.8350  1.6213 -0.0890
 8242TIP3   OH224689   7.016   4.201   3.442 -0.0143 -0.4918  0.2366
 8242TIP3    H124690   7.023   4.290   3.477 -0.3923 -1.1083  1.9336
 8242TIP3    H224691   6.968   4.212   3.359  1.4607  1.0620 -0.4739
 8243TIP3   OH224692   4.794   5.433   4.939  0.4725  0.1534 -0.1777
 8243TIP3    H124693   4.852   5.503   4.910  1.7921 -0.8796 -0.0748
 8243TIP3    H224694   4.833   5.401   5.020 -0.5358 -0.2253  0.1827
 8244TIP3   OH224695   1.158   4.715   2.698  0.2260  0.1554 -0.4505
 8244TIP3    H124696   1.154   4.792   2.641  0.1480  0.0613 -0.5715
 8244TIP3    H224697   1.169   4.752   2.786 -1.0970  0.3628 -0.3493
 8245TIP3   OH224698   6.809   4.710   0.271 -0.0228  0.2264 -0.5237
 8245TIP3    H124699   6.820   4.623   0.232  0.7188  0.4568 -0.8396
 8245TIP3    H224700   6.884   4.760   0.239  0.1907  0.6440  0.5983
 8246TIP3   OH224701   2.781   4.487   0.934  0.4798 -0.0116  0.1190
 8246TIP3    H124702   2.720   4.413   0.930  1.0339 -0.4543 -0.2263
 8246TIP3    H224703   2.808   4.492   1.026 -0.2664  0.3510  0.3287
 8247TIP3   OH224704   5.595   2.762   4.503  0.5153 -0.5719 -0.2307
 8247TIP3    H124705   5.648   2.828   4.457 -1.7382  2.3454  1.0121
 8247TIP3    H224706   5.657   2.717   4.560  2.1935  0.3291 -1.2504
 8248TIP3   OH224707   3.983   3.710   1.844 -0.1622  0.1369 -0.2424
 8248TIP3    H124708   3.933   3.768   1.902 -0.3962  0.2292 -0.5350
 8248TIP3    H224709   3.917   3.667   1.790  0.0497 -0.0085 -0.3871
 8249TIP3   OH224710   6.692   3.784   1.365  0.2070  0.0630  0.3879
 8249TIP3    H124711   6.616   3.771   1.422  0.7543  1.1961  1.4215
 8249TIP3    H224712   6.666   3.853   1.305  0.9992  1.7684  1.9244
 8250TIP3   OH224713   0.595   3.754   5.069  0.4657 -0.6109  0.7554
 8250TIP3    H124714   0.604   3.712   4.984 -3.7197  2.1621 -1.4307
 8250TIP3    H224715   0.652   3.831   5.065 -1.5186  0.9032 -0.8075
 8251TIP3   OH224716   3.225   6.001   3.742  0.1797  0.3276  0.1544
 8251TIP3    H124717   3.241   6.012   3.649  1.5252 -0.2395  0.2939
 8251TIP3    H224718   3.159   5.932   3.747 -0.0065  0.4619 -0.3771
 8252TIP3   OH224719   6.538   0.525   4.161  0.0596 -0.4695  0.0478
 8252TIP3    H124720   6.524   0.604   4.212 -1.2370 -0.5702 -0.1194
 8252TIP3    H224721   6.504   0.545   4.074 -0.4563 -1.2646  0.0547
 8253TIP3   OH224722   4.049   0.338   2.120 -0.6512  0.4409 -0.3067
 8253TIP3    H124723   4.070   0.383   2.202 -1.7350  1.5224 -0.5829
 8253TIP3    H224724   4.080   0.398   2.052  0.3409 -0.5009 -0.6936
 8254TIP3   OH224725   5.121   2.779   5.461 -0.4217  0.6380 -0.0647
 8254TIP3    H124726   5.141   2.840   5.532  0.5809  2.5366 -1.8843
 8254TIP3    H224727   5.206   2.744   5.434 -0.7046  0.5295 -0.8392
 8255TIP3   OH224728   2.020   6.719   5.401 -0.2825  0.2380  0.2126
 8255TIP3    H124729   2.015   6.645   5.341 -1.2184 -1.0254  1.7578
 8255TIP3    H224730   1.930   6.729   5.434  0.3765  0.2227  2.1331
 8256TIP3   OH224731   5.345   2.308   3.312 -0.4838  0.0714  0.1113
 8256TIP3    H124732   5.421   2.251   3.327 -0.6916  0.0970  1.3486
 8256TIP3    H224733   5.374   2.394   3.343 -0.6747  0.3179 -0.3856
 8257TIP3   OH224734   3.198   5.737   1.959  0.2235  0.2272  0.3248
 8257TIP3    H124735   3.274   5.762   2.011  0.5912 -0.2968  0.0400
 8257TIP3    H224736   3.144   5.686   2.019  0.6770 -0.4288  0.1731
 8258TIP3   OH224737   4.005   6.718   0.022  0.3367 -0.6126  0.2374
 8258TIP3    H124738   3.961   6.701  -0.061  0.6625 -1.5731  0.2492
 8258TIP3    H224739   3.942   6.771   0.071  0.3214  0.3239 -0.7708
 8259TIP3   OH224740   5.274   6.541   5.563 -0.2649 -0.1171 -0.2737
 8259TIP3    H124741   5.194   6.505   5.525  0.3006 -0.6026 -1.0293
 8259TIP3    H224742   5.281   6.629   5.525 -0.7760  0.1804  0.3019
 8260TIP3   OH224743   3.998   5.977   0.033 -0.1712  0.0445 -0.2069
 8260TIP3    H124744   4.026   6.061   0.069 -2.0218  0.9867 -0.8421
 8260TIP3    H224745   3.990   5.920   0.110  0.9525  0.4822  0.2498
 8261TIP3   OH224746   5.731   3.525   2.427  0.1088  0.1566  0.0475
 8261TIP3    H124747   5.773   3.441   2.406  0.0900  0.0708  0.3551
 8261TIP3    H224748   5.638   3.503   2.434  0.0575  0.2725 -0.2301
 8262TIP3   OH224749   5.520   1.946   3.491 -0.2536  0.0226  0.4539
 8262TIP3    H124750   5.505   1.862   3.448  1.1866 -0.6430  1.2030
 8262TIP3    H224751   5.432   1.979   3.510 -0.8522 -0.8307 -0.7520
 8263TIP3   OH224752   5.426   1.113   5.740  0.2698 -0.0219  0.0289
 8263TIP3    H124753   5.428   1.169   5.662  2.3271 -1.4632 -1.0544
 8263TIP3    H224754   5.389   1.030   5.708  0.0137 -0.2424  0.8875
 8264TIP3   OH224755   4.583   3.548   3.079 -0.3560 -0.2383  0.0873
 8264TIP3    H124756   4.581   3.468   3.131 -1.5324  0.1101  0.6081
 8264TIP3    H224757   4.575   3.518   2.988 -0.5976 -0.7123  0.2629
 8265TIP3   OH224758   6.769   4.798   3.184 -0.4524 -0.4584  0.2117
 8265TIP3    H124759   6.818   4.831   3.109 -2.8204  1.2078 -0.7198
 8265TIP3    H224760   6.746   4.876   3.234 -2.8173 -1.0392  0.1358
 8266TIP3   OH224761   1.395   4.590   5.792 -0.1907 -0.2226  0.2682
 8266TIP3    H124762   1.396   4.582   5.887 -0.7509 -2.3534  0.1404
 8266TIP3    H224763   1.320   4.537   5.764  0.2386 -0.0154 -1.4076
 8267TIP3   OH224764   2.804   2.076   0.304  0.3044  0.2018  0.2520
 8267TIP3    H124765   2.760   2.126   0.372  0.4680  1.6263 -0.6603
 8267TIP3    H224766   2.790   1.985   0.329 -0.5106  0.6736  1.6285
 8268TIP3   OH224767   2.528   3.778   1.400  0.2980  0.5985 -0.2138
 8268TIP3    H124768   2.473   3.793   1.478 -1.2712 -0.4502 -1.0569
 8268TIP3    H224769   2.473   3.805   1.327  0.7150 -0.9070 -1.1259
 8269TIP3   OH224770   3.091   5.792   3.605  0.2241  0.7629  0.2359
 8269TIP3    H124771   3.046   5.720   3.561  0.4708  0.2909  0.7336
 8269TIP3    H224772   3.184   5.780   3.583  0.2219  1.1602  0.0033
 8270TIP3   OH224773   2.440   5.556   4.670  0.1767 -0.8399 -0.2611
 8270TIP3    H124774   2.454   5.581   4.762  0.4700 -2.0455  0.0459
 8270TIP3    H224775   2.509   5.492   4.653  0.6073 -0.0479 -1.5785
 8271TIP3   OH224776   3.597   6.115   2.511  0.1403  0.3998  0.2848
 8271TIP3    H124777   3.536   6.168   2.562  0.6037  1.2372 -0.0187
 8271TIP3    H224778   3.593   6.152   2.423 -0.4771 -0.8848 -0.2654
 8272TIP3   OH224779   4.991   5.201   0.683 -0.0915 -0.3953 -0.0343
 8272TIP3    H124780   4.993   5.137   0.611  0.3723  0.0714 -0.4437
 8272TIP3    H224781   4.901   5.197   0.715 -1.3292  1.7055 -2.7895
 8273TIP3   OH224782   2.008   2.223   5.109  0.1750  0.1105 -0.3852
 8273TIP3    H124783   2.071   2.278   5.155 -0.4859  0.1600  0.5015
 8273TIP3    H224784   2.058   2.182   5.038  1.5688 -0.9383  1.1192
 8274TIP3   OH224785   6.081   2.219   4.566  0.0402 -0.1925  0.3093
 8274TIP3    H124786   6.152   2.220   4.630 -0.9503  0.2510  1.4301
 8274TIP3    H224787   6.073   2.310   4.538  0.4453 -0.3803 -0.4332
 8275TIP3   OH224788   4.875   5.077   0.253 -0.0621  0.1412 -0.7350
 8275TIP3    H124789   4.967   5.068   0.278 -0.7912 -1.0400  1.9454
 8275TIP3    H224790   4.865   5.171   0.235  1.6281  0.3133 -0.9842
 8276TIP3   OH224791   0.660   0.774   5.189  0.2615  0.0812 -0.9132
 8276TIP3    H124792   0.639   0.810   5.103  2.7608 -0.1136 -1.6887
 8276TIP3    H224793   0.726   0.707   5.171  0.8725  0.0566  1.1606
 8277TIP3   OH224794   5.333   2.703   4.628 -0.0954 -0.4299 -0.3007
 8277TIP3    H124795   5.406   2.731   4.573 -0.0988 -1.1461 -0.6821
 8277TIP3    H224796   5.324   2.773   4.693 -0.9583  1.1431 -1.9804
 8278TIP3   OH224797   2.955   2.963   0.511  0.5374 -0.0592  0.0782
 8278TIP3    H124798   2.988   2.912   0.437  0.6344 -1.2058  0.8957
 8278TIP3    H224799   3.017   3.036   0.519  0.3896  0.2216 -1.0986
 8279TIP3   OH224800   5.089   1.805   0.139 -0.5288  0.0668  0.7215
 8279TIP3    H124801   5.129   1.858   0.208  2.8327 -1.3461  0.0607
 8279TIP3    H224802   5.105   1.854   0.058 -0.7556 -0.1762  0.5276
 8280TIP3   OH224803   3.627   2.515   2.047  0.0597  0.5443 -0.2129
 8280TIP3    H124804   3.689   2.452   2.083 -2.1535 -1.0683  1.0556
 8280TIP3    H224805   3.577   2.545   2.123 -2.7809 -0.6644 -1.4627
 8281TIP3   OH224806   4.725   1.810   5.101  0.5907 -0.0536 -0.1049
 8281TIP3    H124807   4.803   1.853   5.136  0.5557  0.6148 -0.8229
 8281TIP3    H224808   4.666   1.802   5.177  0.3251  1.7931 -0.0763
 8282TIP3   OH224809   6.907   3.447   2.780  0.0855 -0.2916  0.4481
 8282TIP3    H124810   6.820   3.408   2.774  0.2407 -0.6762  0.6422
 8282TIP3    H224811   6.925   3.479   2.691 -0.3163 -0.0613  0.4446
 8283TIP3   OH224812   5.148   1.405   5.371  0.1918  0.4618  0.3282
 8283TIP3    H124813   5.067   1.357   5.355 -0.6736  1.2986  1.9731
 8283TIP3    H224814   5.170   1.444   5.286  0.5002 -2.0942 -0.8656
 8284TIP3   OH224815   1.674   6.230   1.658 -0.0783  0.3427  0.1113
 8284TIP3    H124816   1.643   6.236   1.748 -0.4497 -0.2027  0.0229
 8284TIP3    H224817   1.744   6.295   1.652  2.9279 -2.3982  1.9928
 8285TIP3   OH224818   2.257   0.360   0.954  0.0372 -0.2560  0.4169
 8285TIP3    H124819   2.299   0.303   0.890  0.3760  1.3782 -0.8942
 8285TIP3    H224820   2.252   0.445   0.910 -1.8232  0.3670  1.7160
 8286TIP3   OH224821   6.665   1.426   4.000 -0.3125  0.0040 -0.1179
 8286TIP3    H124822   6.711   1.495   3.952  0.2576 -1.1812 -1.3161
 8286TIP3    H224823   6.675   1.450   4.092  3.4196 -0.6082 -0.2409
 8287TIP3   OH224824   1.928   1.744   5.653  0.3604 -0.1438  0.3294
 8287TIP3    H124825   1.981   1.744   5.574  0.5358  0.3240  0.4429
 8287TIP3    H224826   1.866   1.673   5.640  0.4761 -0.1583 -0.1680
 8288TIP3   OH224827   0.526   1.200   4.041 -0.4278 -0.1201 -0.0704
 8288TIP3    H124828   0.482   1.191   3.956  0.7875  0.8136 -0.8404
 8288TIP3    H224829   0.494   1.283   4.076 -0.7569 -0.3949  0.2815
 8289TIP3   OH224830   2.519   1.109   2.976  0.1035 -0.4675 -0.1183
 8289TIP3    H124831   2.473   1.100   2.892 -0.3998 -1.4980  0.2564
 8289TIP3    H224832   2.527   1.204   2.989 -2.0993 -0.2320 -0.1073
 8290TIP3   OH224833   4.516   1.123   5.023  0.1266 -0.2596 -0.4788
 8290TIP3    H124834   4.601   1.099   5.060 -0.3002 -2.3711 -0.6966
 8290TIP3    H224835   4.455   1.116   5.097 -0.1933 -1.1328 -0.8009
 8291TIP3   OH224836   2.007   1.390   0.545  0.3734 -0.0478 -0.7721
 8291TIP3    H124837   2.041   1.346   0.623 -0.5158 -0.9826 -0.8874
 8291TIP3    H224838   1.966   1.320   0.495 -0.9600  0.9009 -1.0344
 8292TIP3   OH224839   4.696   2.069   4.016 -0.1876 -0.2900  0.1797
 8292TIP3    H124840   4.791   2.082   4.014 -0.1954 -0.2908 -0.6111
 8292TIP3    H224841   4.668   2.088   3.926 -0.8832 -0.6747  0.3110
 8293TIP3   OH224842   2.417   2.204   2.059 -0.0139  0.4582  0.1782
 8293TIP3    H124843   2.353   2.149   2.014 -1.3079  2.5243 -0.6713
 8293TIP3    H224844   2.379   2.220   2.145  0.4599 -0.0910  0.5006
 8294TIP3   OH224845   2.157   5.963   4.862 -0.0865  0.2549  0.2263
 8294TIP3    H124846   2.111   5.893   4.817  0.7350  0.1884 -0.5144
 8294TIP3    H224847   2.233   5.921   4.902 -0.0634  0.5626  0.5142
 8295TIP3   OH224848   6.091   2.538   0.780 -0.1453  0.0276 -0.0290
 8295TIP3    H124849   6.156   2.607   0.769  0.2844 -0.5544 -1.3518
 8295TIP3    H224850   6.008   2.584   0.791  0.1587  0.7468 -0.7054
 8296TIP3   OH224851   3.699   0.594   2.226  0.5692  0.4407  0.5530
 8296TIP3    H124852   3.651   0.638   2.155 -1.1865 -1.1043  0.7216
 8296TIP3    H224853   3.639   0.597   2.300  1.3422 -0.2708  1.2209
 8297TIP3   OH224854   3.132   1.341   2.385  0.6047  0.5712 -0.1822
 8297TIP3    H124855   3.166   1.401   2.451  0.5345 -1.0168  1.3818
 8297TIP3    H224856   3.209   1.291   2.356  0.0400 -1.9575  2.2308
 8298TIP3   OH224857   2.942   3.540   5.057 -0.0517 -0.4555 -0.0663
 8298TIP3    H124858   2.919   3.547   4.964  1.0757  0.7129 -0.2893
 8298TIP3    H224859   2.963   3.630   5.083  0.7256 -0.9407  1.0289
 8299TIP3   OH224860   3.977   2.778   4.396  0.4149 -1.0900  0.3659
 8299TIP3    H124861   4.049   2.775   4.333 -0.4727 -0.0321 -0.7443
 8299TIP3    H224862   3.979   2.868   4.429  0.4856 -1.4621  1.4304
 8300TIP3   OH224863   4.511   5.427   4.190 -0.5344 -0.0036  0.3711
 8300TIP3    H124864   4.504   5.517   4.221  0.3190  0.2595 -0.1749
 8300TIP3    H224865   4.604   5.404   4.201  0.2175  0.6430 -3.3554
 8301TIP3   OH224866   1.005   1.418   3.941 -0.2997  0.2189  0.3611
 8301TIP3    H124867   0.958   1.429   3.859  0.6240 -0.9603 -0.3488
 8301TIP3    H224868   0.943   1.373   3.998 -0.8449  0.7966  0.2397
 8302TIP3   OH224869   1.615   5.895   0.513  0.0572 -0.0047  0.2391
 8302TIP3    H124870   1.568   5.951   0.452  1.5849  0.8154 -0.2449
 8302TIP3    H224871   1.668   5.955   0.566  1.8484 -0.9409 -0.3910
 8303TIP3   OH224872   5.200   1.081   0.337  0.8582  0.2379 -0.0506
 8303TIP3    H124873   5.241   0.998   0.310 -0.7792 -0.3280 -0.9502
 8303TIP3    H224874   5.249   1.148   0.289  0.6450 -0.4378 -1.2785
 8304TIP3   OH224875   2.164   6.200   2.879 -0.3222  0.3328 -0.4960
 8304TIP3    H124876   2.193   6.265   2.815 -0.6206 -0.7047 -1.7370
 8304TIP3    H224877   2.130   6.128   2.826 -1.3341 -0.2302  0.8495
 8305TIP3   OH224878   3.986   2.472   2.352 -0.0937  0.7638 -0.2371
 8305TIP3    H124879   3.910   2.471   2.410  1.7285  1.9902  2.3679
 8305TIP3    H224880   3.971   2.400   2.291 -3.4765  1.1993 -0.0952
 8306TIP3   OH224881   0.650   1.195   4.949 -0.1723 -0.0606 -0.3923
 8306TIP3    H124882   0.706   1.267   4.920  0.4011 -0.6520 -0.7831
 8306TIP3    H224883   0.647   1.135   4.875  0.6105 -1.1842  0.4442
 8307TIP3   OH224884   2.117   3.711   0.192 -0.1712  0.4233  0.1466
 8307TIP3    H124885   2.031   3.683   0.160 -0.1270 -0.2194  0.5661
 8307TIP3    H224886   2.121   3.678   0.281  0.3004  0.9220  0.3182
 8308TIP3   OH224887   2.183   1.115   3.056  0.0381  0.2773 -0.3274
 8308TIP3    H124888   2.120   1.052   3.020  0.7871 -0.9992  0.5469
 8308TIP3    H224889   2.267   1.090   3.017  0.3046  0.8649 -0.1335
 8309TIP3   OH224890   5.786   2.957   4.431 -0.1430 -0.6359 -0.3850
 8309TIP3    H124891   5.773   2.996   4.344  2.7329 -0.5626 -0.8821
 8309TIP3    H224892   5.794   3.032   4.490 -0.6764 -0.6528 -0.2868
 8310TIP3   OH224893   6.783   3.589   2.980  0.4228  0.4707  0.1395
 8310TIP3    H124894   6.826   3.552   2.903 -0.9131  1.8257 -1.3347
 8310TIP3    H224895   6.846   3.577   3.051  1.4152 -1.4571 -0.9830
 8311TIP3   OH224896   5.898   6.005   5.865 -0.0075  0.6700  0.3681
 8311TIP3    H124897   5.922   6.068   5.797  2.0762  0.4387  0.8127
 8311TIP3    H224898   5.965   6.017   5.933 -1.3193  0.0463  1.8354
 8312TIP3   OH224899   4.410   3.619   2.765 -0.2615  0.4364 -0.1024
 8312TIP3    H124900   4.355   3.566   2.707  0.6421 -0.4861 -0.1426
 8312TIP3    H224901   4.353   3.690   2.795 -2.2641 -1.8771  1.8923
 8313TIP3   OH224902   6.960   3.319   3.969 -0.3372 -0.0375 -0.8579
 8313TIP3    H124903   7.053   3.335   3.979 -0.0620 -2.2502  0.7959
 8313TIP3    H224904   6.953   3.266   3.890 -0.1130 -0.2874 -0.7133
 8314TIP3   OH224905   5.892   4.579   4.522 -0.0846 -0.5918  0.6540
 8314TIP3    H124906   5.908   4.665   4.483 -1.3938  0.6196  2.5978
 8314TIP3    H224907   5.859   4.525   4.450 -0.1241  0.8001 -0.4077
 8315TIP3   OH224908   6.626   2.329   5.704  0.3216 -0.0023 -0.4824
 8315TIP3    H124909   6.609   2.354   5.612  0.0040  0.2884 -0.3502
 8315TIP3    H224910   6.631   2.234   5.702 -0.5580 -0.0569 -0.6686
 8316TIP3   OH224911   6.380   0.629   4.849  0.6259  0.1022 -0.1220
 8316TIP3    H124912   6.418   0.543   4.868  1.4830  0.5271  0.1456
 8316TIP3    H224913   6.314   0.642   4.917  0.3688 -0.4172 -0.2715
 8317TIP3   OH224914   0.708   5.339   2.238 -0.2987 -0.0276 -0.0991
 8317TIP3    H124915   0.728   5.282   2.164 -1.0239 -0.2840 -0.1082
 8317TIP3    H224916   0.626   5.305   2.274 -1.5721  1.8647 -1.0126
 8318TIP3   OH224917   1.554   6.225   0.375  0.0285 -0.2650 -0.0241
 8318TIP3    H124918   1.633   6.277   0.359  1.5941 -2.1861  1.0719
 8318TIP3    H224919   1.526   6.199   0.287 -0.4044  1.7873 -0.5513
 8319TIP3   OH224920   0.185   3.274   4.235 -0.3125 -0.2914  0.0879
 8319TIP3    H124921   0.131   3.221   4.293 -0.2645 -2.0348 -1.3925
 8319TIP3    H224922   0.257   3.216   4.209  0.5861  0.9875 -0.4230
 8320TIP3   OH224923   6.582   6.233   0.614  0.3171  0.0587 -0.5104
 8320TIP3    H124924   6.495   6.202   0.639  0.6681 -2.4978 -2.0347
 8320TIP3    H224925   6.615   6.278   0.691 -1.6665 -0.4665  0.7179
 8321TIP3   OH224926   3.912   6.681   2.236 -0.5170 -0.2816 -0.5618
 8321TIP3    H124927   3.942   6.661   2.147 -1.2407 -1.3490 -0.5915
 8321TIP3    H224928   3.818   6.661   2.234 -0.8347  1.0375  0.0694
 8322TIP3   OH224929   2.092   1.308   5.702  0.3984 -0.2978 -0.8910
 8322TIP3    H124930   2.119   1.351   5.621 -0.0550  0.3720 -0.6946
 8322TIP3    H224931   2.158   1.333   5.767  0.0274  0.2929 -0.7269
 8323TIP3   OH224932   6.668   2.217   3.084 -0.1359 -0.1050  0.2417
 8323TIP3    H124933   6.759   2.205   3.114  0.0764  1.0531  0.1216
 8323TIP3    H224934   6.645   2.305   3.114 -1.1403 -0.2928  0.0473
 8324TIP3   OH224935   4.804   5.360   4.174  0.3544  0.4048  0.1830
 8324TIP3    H124936   4.872   5.295   4.191  1.2046  1.3049  0.3325
 8324TIP3    H224937   4.850   5.443   4.172 -0.7878  1.0710  0.5248
 8325TIP3   OH224938   2.284   1.275   3.235 -1.0627 -0.0181  0.5601
 8325TIP3    H124939   2.233   1.239   3.162 -1.3955 -0.2243  0.8924
 8325TIP3    H224940   2.364   1.223   3.237 -1.6767 -0.9721  1.2362
 8326TIP3   OH224941   5.619   5.987   2.808 -0.3229  0.3157  0.0263
 8326TIP3    H124942   5.535   5.996   2.853  0.2725  0.5504  1.1250
 8326TIP3    H224943   5.626   6.065   2.753 -1.0635  0.0196 -0.5026
 8327TIP3   OH224944   2.327   3.062   2.773  0.2327 -0.2924  0.0875
 8327TIP3    H124945   2.422   3.065   2.757  0.2807  1.8898  0.4495
 8327TIP3    H224946   2.319   3.017   2.858  0.8849 -0.9668 -0.1950
 8328TIP3   OH224947   3.630   6.644   2.170  0.3662 -0.1180 -0.1417
 8328TIP3    H124948   3.536   6.661   2.170  0.1111 -1.3030  1.4227
 8328TIP3    H224949   3.670   6.731   2.178 -0.6547  0.2669  1.0670
 8329TIP3   OH224950   5.915   6.139   1.918 -0.3004  0.0800  0.0001
 8329TIP3    H124951   5.913   6.084   1.996  0.3775 -0.7451 -0.5471
 8329TIP3    H224952   5.823   6.161   1.901 -0.6365 -1.3192 -0.0614
 8330TIP3   OH224953   5.784   2.591   2.394  0.4840  0.3400  0.1187
 8330TIP3    H124954   5.737   2.544   2.463  0.4221 -1.4302 -1.0727
 8330TIP3    H224955   5.872   2.553   2.395 -0.1195 -1.3186 -2.1515
 8331TIP3   OH224956   6.543   2.944   1.304  0.1383  0.2281 -0.3133
 8331TIP3    H124957   6.533   2.986   1.389  0.7637  0.8284 -0.5269
 8331TIP3    H224958   6.609   2.996   1.259 -0.1393 -0.1238 -1.1471
 8332TIP3   OH224959   1.957   0.330   2.059 -0.6786  0.2155 -0.2082
 8332TIP3    H124960   1.967   0.391   2.133 -1.1661  0.0950 -0.0362
 8332TIP3    H224961   1.899   0.376   1.998 -1.4479 -0.2632  0.1449
 8333TIP3   OH224962   1.668   4.300   0.196 -0.2126  0.3462  0.2940
 8333TIP3    H124963   1.656   4.325   0.104  0.6881  0.4343  0.1850
 8333TIP3    H224964   1.606   4.354   0.244  1.5810  2.7683  0.0515
 8334TIP3   OH224965   1.470   4.894   5.233 -0.1826 -0.2620 -0.1433
 8334TIP3    H124966   1.393   4.920   5.182 -0.2933 -2.1412 -1.0579
 8334TIP3    H224967   1.489   4.969   5.289 -1.1399  1.2206 -1.7008
 8335TIP3   OH224968   3.517   6.291   3.025  0.1539  0.2750  0.3104
 8335TIP3    H124969   3.440   6.259   2.979 -0.1614  3.5307 -1.7180
 8335TIP3    H224970   3.589   6.240   2.990 -0.5587  0.1931 -1.0880
 8336TIP3   OH224971   1.862   5.370   3.283 -0.0692 -0.1890  0.2288
 8336TIP3    H124972   1.804   5.441   3.259 -0.4158  0.1562  1.9425
 8336TIP3    H224973   1.823   5.333   3.363  0.0669 -2.3353 -0.6245
 8337TIP3   OH224974   1.446   3.397   5.441 -0.4177  0.1702 -0.2713
 8337TIP3    H124975   1.399   3.445   5.372 -0.3039  0.8091  0.0856
 8337TIP3    H224976   1.488   3.466   5.493 -2.1754 -0.1394  1.6698
 8338TIP3   OH224977   6.812   0.241   2.148 -0.4496 -0.2075 -0.5286
 8338TIP3    H124978   6.856   0.274   2.070 -0.9882 -2.1544 -1.7237
 8338TIP3    H224979   6.882   0.202   2.200 -0.5821 -3.1757 -2.3607
 8339TIP3   OH224980   2.336   4.520   1.838  0.0719 -0.0697 -0.6901
 8339TIP3    H124981   2.384   4.560   1.910  1.2129  0.5475 -1.7643
 8339TIP3    H224982   2.366   4.566   1.760 -3.9880  2.0866 -1.2854
 8340TIP3   OH224983   4.655   5.243   3.076  0.7102 -0.3531 -0.0536
 8340TIP3    H124984   4.732   5.271   3.125  0.5320 -0.3635  0.2317
 8340TIP3    H224985   4.620   5.169   3.125 -0.3681  0.6084  0.6880
 8341TIP3   OH224986   0.618   5.314   0.468 -0.2218 -0.2352  0.2963
 8341TIP3    H124987   0.642   5.289   0.379 -0.3908 -0.7571  0.3969
 8341TIP3    H224988   0.539   5.367   0.458  0.7305  1.1828 -0.0082
 8342TIP3   OH224989   0.810   2.777   0.667  0.4774  0.0062 -0.3360
 8342TIP3    H124990   0.841   2.807   0.581 -0.0272  2.6118  0.2909
 8342TIP3    H224991   0.715   2.775   0.658  0.4397  0.0018  0.0636
 8343TIP3   OH224992   6.800   1.995   1.572  0.1079 -0.0163 -0.1234
 8343TIP3    H124993   6.717   2.006   1.526  0.6033 -0.3987 -1.1514
 8343TIP3    H224994   6.854   1.945   1.511  0.1828 -2.2073  1.6387
 8344TIP3   OH224995   4.309   0.426   0.289 -0.2122  0.4027 -0.3540
 8344TIP3    H124996   4.273   0.466   0.368 -1.1752  3.1300 -2.0253
 8344TIP3    H224997   4.402   0.411   0.309 -0.6528  0.0754  1.5839
 8345TIP3   OH224998   1.550   2.897   5.662 -0.0253  0.4733 -0.2338
 8345TIP3    H124999   1.475   2.841   5.642 -0.0990  0.4651  0.0492
 8345TIP3    H225000   1.568   2.944   5.581 -1.3442  1.6527  0.1130
 8346TIP3   OH225001   1.682   0.656   4.886  0.4175  0.0414 -0.1504
 8346TIP3    H125002   1.592   0.631   4.906  0.8323 -2.2937 -0.8592
 8346TIP3    H225003   1.674   0.735   4.833 -1.1760  0.3137  0.4670
 8347TIP3   OH225004   5.812   2.177   2.019  0.9478 -0.2820  0.1901
 8347TIP3    H125005   5.747   2.144   2.081 -0.0272 -1.2247 -1.2688
 8347TIP3    H225006   5.765   2.244   1.968  1.0619 -1.0181 -0.9233
 8348TIP3   OH225007   2.655   5.707   3.437 -0.5153 -0.3138  0.0650
 8348TIP3    H125008   2.617   5.791   3.410  0.6870  0.2716  0.1427
 8348TIP3    H225009   2.641   5.704   3.531 -2.2459 -1.0962 -0.1717
 8349TIP3   OH225010   0.924   4.704   4.216 -0.3523 -0.3740  0.8582
 8349TIP3    H125011   0.843   4.730   4.173  0.6003 -0.4817 -1.0883
 8349TIP3    H225012   0.946   4.779   4.273 -0.5718  0.7086 -0.4325
 8350TIP3   OH225013   5.831   5.071   1.036 -0.5263 -0.2653  0.5919
 8350TIP3    H125014   5.764   5.003   1.040 -0.6067 -0.4566 -2.1347
 8350TIP3    H225015   5.789   5.144   0.990  1.3133 -0.7742 -2.1502
 8351TIP3   OH225016   2.455   2.195   0.287 -0.0144 -0.4208 -0.3747
 8351TIP3    H125017   2.467   2.289   0.294  0.8869 -0.5298 -0.3236
 8351TIP3    H225018   2.518   2.157   0.349 -0.8165 -1.0456  0.0878
 8352TIP3   OH225019   0.737   0.730   2.694 -0.2410 -0.3580  0.0674
 8352TIP3    H125020   0.819   0.682   2.691  2.2636  3.5299 -0.7978
 8352TIP3    H225021   0.711   0.740   2.602 -2.0031 -1.8636  0.3378
 8353TIP3   OH225022   0.265   6.681   1.472  0.0007 -0.1974  0.0143
 8353TIP3    H125023   0.278   6.729   1.390  0.5787 -0.2249  0.0843
 8353TIP3    H225024   0.340   6.621   1.476 -1.2020 -1.8405 -0.5806
 8354TIP3   OH225025   4.768   1.372   3.885  0.1887 -0.4301 -0.4562
 8354TIP3    H125026   4.715   1.297   3.911 -0.1080  0.0914  0.4387
 8354TIP3    H225027   4.708   1.430   3.839  0.4204 -0.7308 -1.1558
 8355TIP3   OH225028   0.692   1.272   3.198  0.3206  0.3670  0.1561
 8355TIP3    H125029   0.706   1.180   3.176 -0.1887  0.1926  0.5602
 8355TIP3    H225030   0.780   1.306   3.215  0.4074 -0.3551  1.2355
 8356TIP3   OH225031   0.711   4.193   3.272  0.7156  0.2131  0.2973
 8356TIP3    H125032   0.747   4.153   3.193 -0.7279 -0.5617 -0.0077
 8356TIP3    H225033   0.630   4.145   3.288  0.7743  0.6234  2.0306
 8357TIP3   OH225034   1.493   2.667   1.825 -0.3208 -0.0079  0.7125
 8357TIP3    H125035   1.468   2.610   1.898 -2.5666 -0.3337 -0.2224
 8357TIP3    H225036   1.456   2.624   1.748  0.9980  0.9291 -0.4866
 8358TIP3   OH225037   4.747   5.077   2.413 -0.0569 -0.2607  0.5699
 8358TIP3    H125038   4.841   5.067   2.429  0.0414  0.6586  0.6272
 8358TIP3    H225039   4.711   5.102   2.499  0.0019  1.6504  0.0720
 8359TIP3   OH225040   4.742   3.855   3.402  0.2669 -0.5422  0.1373
 8359TIP3    H125041   4.677   3.906   3.451  0.9237 -0.7168  1.2110
 8359TIP3    H225042   4.823   3.905   3.410  0.1750 -0.0487 -1.6454
 8360TIP3   OH225043   2.210   0.322   2.625 -0.2486  0.0944  0.0391
 8360TIP3    H125044   2.273   0.253   2.604  0.3561  0.0525  1.8052
 8360TIP3    H225045   2.200   0.371   2.544  0.3633 -1.2357 -0.8821
 8361TIP3   OH225046   2.585   0.161   0.019 -0.1242 -0.8401 -0.1400
 8361TIP3    H125047   2.561   0.245  -0.019 -0.6227 -0.5899  0.6948
 8361TIP3    H225048   2.558   0.168   0.111 -1.6045 -2.4767 -0.4142
 8362TIP3   OH225049   5.297   2.022   3.604  0.2944  0.2418  0.2413
 8362TIP3    H125050   5.313   2.082   3.677  1.5097 -1.2617  1.2723
 8362TIP3    H225051   5.202   2.012   3.603  0.2862 -0.4713  2.3174
 8363TIP3   OH225052   6.360   0.582   1.687  0.7035 -0.0836  0.1397
 8363TIP3    H125053   6.401   0.661   1.723  0.5293  0.2419 -0.3734
 8363TIP3    H225054   6.312   0.545   1.761 -1.1194  1.5438 -0.1324
 8364TIP3   OH225055   3.152   5.497   0.560  0.2056 -0.1983 -0.4284
 8364TIP3    H125056   3.114   5.567   0.613  0.4623  0.1494 -0.7000
 8364TIP3    H225057   3.077   5.447   0.528  0.0702 -0.9759  1.0156
 8365TIP3   OH225058   5.026   6.054   1.079 -0.4390  0.5606 -0.0777
 8365TIP3    H125059   5.079   6.128   1.106 -1.8415  1.3437  0.6715
 8365TIP3    H225060   4.996   6.015   1.162  1.0366 -1.4664 -0.4128
 8366TIP3   OH225061   5.174   5.068   3.647 -0.0179 -0.2380 -0.2240
 8366TIP3    H125062   5.087   5.030   3.660  0.3899 -1.1778 -0.2019
 8366TIP3    H225063   5.172   5.149   3.699 -1.3133  0.4525 -1.2671
 8367TIP3   OH225064   0.734   1.911   1.175  0.2289 -0.0426  0.4248
 8367TIP3    H125065   0.771   1.949   1.254  1.3750  0.7247 -0.4359
 8367TIP3    H225066   0.656   1.964   1.157 -0.4231 -0.6557  1.3891
 8368TIP3   OH225067   1.559   4.657   4.712  0.0394  0.1211  0.3730
 8368TIP3    H125068   1.504   4.705   4.774 -0.9216 -1.2283  0.6003
 8368TIP3    H225069   1.529   4.686   4.626 -0.8932 -0.4261  0.4991
 8369TIP3   OH225070   2.099   3.556   5.031 -0.4146 -0.2249 -0.0263
 8369TIP3    H125071   2.149   3.548   4.950 -0.0196 -1.6020  0.3192
 8369TIP3    H225072   2.137   3.490   5.089 -0.3621  1.0552  1.4645
 8370TIP3   OH225073   4.399   6.583   2.262 -0.1441 -0.5000  0.2287
 8370TIP3    H125074   4.470   6.627   2.215 -1.2522  1.8412  0.5979
 8370TIP3    H225075   4.384   6.502   2.212  1.1607  0.1289 -1.2684
 8371TIP3   OH225076   3.854   0.441   0.973 -0.3817  0.3278 -0.2530
 8371TIP3    H125077   3.874   0.517   0.918  2.2512  2.2550  2.9275
 8371TIP3    H225078   3.798   0.476   1.043 -0.5081 -1.0498  0.3776
 8372TIP3   OH225079   2.024   2.532   3.628 -0.3869 -0.0064  0.1994
 8372TIP3    H125080   2.067   2.492   3.703 -1.5486 -2.0965 -0.1609
 8372TIP3    H225081   1.931   2.519   3.644 -0.6638 -0.3688 -1.5030
 8373TIP3   OH225082   5.852   2.625   1.067 -0.4366 -0.2819 -0.4297
 8373TIP3    H125083   5.867   2.698   1.127 -0.2183 -1.6264  1.2189
 8373TIP3    H225084   5.877   2.659   0.981  1.1350  1.1024  0.5127
 8374TIP3   OH225085   6.336   5.799   5.198  0.8263  0.5411 -0.4825
 8374TIP3    H125086   6.376   5.714   5.179  1.7739  0.3766  1.8476
 8374TIP3    H225087   6.338   5.846   5.115  2.2955 -0.9205 -1.3276
 8375TIP3   OH225088   6.824   2.560   4.147  0.2718 -0.0183  0.4821
 8375TIP3    H125089   6.761   2.562   4.220  0.2801  0.0244  0.4888
 8375TIP3    H225090   6.816   2.472   4.111 -1.1089  0.5398 -0.6761
 8376TIP3   OH225091   4.026   4.474   5.697 -0.1909 -0.4856 -0.0322
 8376TIP3    H125092   4.054   4.514   5.615 -2.0523 -0.6622 -0.7855
 8376TIP3    H225093   3.995   4.387   5.673 -0.2450 -0.7541  0.9465
 8377TIP3   OH225094   4.922   2.495   3.966 -0.2959  0.0276  0.2419
 8377TIP3    H125095   4.880   2.579   3.988  0.6657  0.7589 -0.5949
 8377TIP3    H225096   4.977   2.476   4.042 -2.5992 -1.3257  1.6848
 8378TIP3   OH225097   3.808   1.336   4.722 -0.0193 -0.0375  0.2465
 8378TIP3    H125098   3.846   1.424   4.714  1.6457 -0.6978  0.5120
 8378TIP3    H225099   3.846   1.288   4.648  0.9351 -1.1476  1.4190
 8379TIP3   OH225100   6.927   2.674   1.888 -0.1983  0.5882 -0.1898
 8379TIP3    H125101   6.946   2.581   1.885 -1.9384  0.1181  1.6006
 8379TIP3    H225102   6.831   2.680   1.879 -0.0137  2.3256 -1.7890
 8380TIP3   OH225103   7.080   0.275   2.916 -0.2688  0.0142  0.1035
 8380TIP3    H125104   7.069   0.194   2.966  0.7097 -0.0178  0.2821
 8380TIP3    H225105   7.174   0.278   2.895 -0.1418  1.4713  0.7407
 8381TIP3   OH225106   6.661   2.791   4.093 -0.1377 -0.2234  0.1511
 8381TIP3    H125107   6.729   2.849   4.058 -0.8368  0.9639  0.6732
 8381TIP3    H225108   6.639   2.733   4.020  1.5026 -0.7210  0.0105
 8382TIP3   OH225109   1.944   4.542   1.424 -0.1317 -0.0045  0.0289
 8382TIP3    H125110   1.952   4.635   1.444  0.3934  0.3115 -1.4769
 8382TIP3    H225111   1.894   4.505   1.497  1.0164  1.1477  1.4500
 8383TIP3   OH225112   6.184   2.665   3.810  0.2023 -0.1816 -0.3620
 8383TIP3    H125113   6.220   2.690   3.725  0.4483  3.6963  0.7114
 8383TIP3    H225114   6.090   2.654   3.795  0.4680 -1.2241 -1.3955
 8384TIP3   OH225115   2.985   6.062   0.949 -0.1421  0.3955  0.6279
 8384TIP3    H125116   3.044   6.107   0.888 -0.2322  0.1975  0.3910
 8384TIP3    H225117   3.024   5.976   0.961  0.5609  0.8602  1.8475
 8385TIP3   OH225118   4.216   4.264   0.843  0.5886 -0.5594 -0.0790
 8385TIP3    H125119   4.228   4.357   0.860  1.2541 -0.2711 -1.9001
 8385TIP3    H225120   4.286   4.221   0.894  0.4608 -0.0452  0.5315
 8386TIP3   OH225121   3.380   3.675   1.288  0.2264 -0.7362  0.3451
 8386TIP3    H125122   3.300   3.647   1.243  0.6276  0.7418 -1.4249
 8386TIP3    H225123   3.439   3.701   1.217  0.9700  1.5611  1.6919
 8387TIP3   OH225124   5.910   5.524   4.468 -0.4974  0.1315  0.3428
 8387TIP3    H125125   5.828   5.572   4.473 -1.0706 -0.8539  0.9364
 8387TIP3    H225126   5.919   5.484   4.555 -0.6913 -1.8002 -0.4557
 8388TIP3   OH225127   5.541   2.102   2.654  0.8110 -0.6394 -0.5358
 8388TIP3    H125128   5.529   2.079   2.746  1.9601  0.8732  0.0245
 8388TIP3    H225129   5.453   2.120   2.622  0.3552 -1.5938  0.1340
 8389TIP3   OH225130   4.385   0.428   5.304  0.2529 -0.1885  0.0579
 8389TIP3    H125131   4.423   0.343   5.280 -0.8760 -0.6033 -0.3159
 8389TIP3    H225132   4.363   0.419   5.397 -2.3476 -1.3325 -0.5657
 8390TIP3   OH225133   6.505   4.913   4.501  0.9596 -0.2994  0.1062
 8390TIP3    H125134   6.465   4.842   4.551  0.9336 -0.7211 -0.4900
 8390TIP3    H225135   6.590   4.927   4.542  0.2600  0.5534  1.3428
 8391TIP3   OH225136   5.488   5.412   5.587  0.0826  0.0144 -0.1306
 8391TIP3    H125137   5.581   5.389   5.587 -0.1786 -1.1127 -0.3228
 8391TIP3    H225138   5.460   5.395   5.497 -0.3079  0.3618 -0.0748
 8392TIP3   OH225139   3.785   4.274   0.989  0.3025  0.5465 -0.0286
 8392TIP3    H125140   3.843   4.238   1.056 -0.1358  1.0874  0.6634
 8392TIP3    H225141   3.829   4.354   0.960 -0.5214  1.4943  1.2061
 8393TIP3   OH225142   3.385   1.422   5.462 -0.4307 -0.5971 -0.5728
 8393TIP3    H125143   3.445   1.353   5.489 -0.8926 -1.0146 -0.6054
 8393TIP3    H225144   3.434   1.503   5.478  0.0553 -0.9199 -0.3884
 8394TIP3   OH225145   6.423   3.427   2.491  0.0519 -0.0854  0.2554
 8394TIP3    H125146   6.392   3.376   2.565 -3.1761 -0.9598 -1.5177
 8394TIP3    H225147   6.359   3.497   2.481  0.9474  0.5797 -1.1477
 8395TIP3   OH225148   3.515   0.887   4.009 -0.2190  0.0602 -0.0748
 8395TIP3    H125149   3.490   0.971   3.972 -0.7043  0.1802  0.5158
 8395TIP3    H225150   3.437   0.833   4.001  0.2014 -0.4569 -0.7890
 8396TIP3   OH225151   4.976   4.488   0.987 -0.3527  0.2127  0.0105
 8396TIP3    H125152   5.034   4.556   0.951  0.5527 -0.3081  0.4548
 8396TIP3    H225153   4.940   4.526   1.067 -0.3522  0.4115 -0.0843
 8397TIP3   OH225154   1.282   2.959   1.557 -0.0706  0.3225 -0.1807
 8397TIP3    H125155   1.369   2.935   1.586 -0.6194  0.2109  1.4430
 8397TIP3    H225156   1.224   2.894   1.596 -1.1195  1.7448  0.7713
 8398TIP3   OH225157   6.651   3.567   4.927 -0.1108 -0.2675  0.0537
 8398TIP3    H125158   6.736   3.536   4.897 -0.2823 -1.6528  0.9066
 8398TIP3    H225159   6.627   3.636   4.865  1.4389 -0.1335 -0.4342
 8399TIP3   OH225160   4.956   3.087   2.585 -0.1453  0.3674 -0.4109
 8399TIP3    H125161   4.991   3.174   2.564  0.5395  0.5114  1.1627
 8399TIP3    H225162   4.865   3.090   2.555  0.1703  1.2486 -1.3358
 8400TIP3   OH225163   5.187   4.652   1.693 -0.2042  0.0259 -0.5635
 8400TIP3    H125164   5.280   4.670   1.679 -0.1461 -0.2324 -0.5242
 8400TIP3    H225165   5.162   4.711   1.764 -0.3634  0.9339 -1.3555
 8401TIP3   OH225166   4.416   1.528   2.048  0.2930  0.5844  0.1381
 8401TIP3    H125167   4.389   1.545   2.138  0.1795  0.7070  0.0822
 8401TIP3    H225168   4.505   1.493   2.055 -0.4537 -1.3850  0.4478
 8402TIP3   OH225169   6.987   3.691   3.434 -0.2130 -0.1623  0.2464
 8402TIP3    H125170   6.997   3.786   3.437  1.4128 -0.1362 -2.6685
 8402TIP3    H225171   6.904   3.675   3.480  0.6621  2.3401  3.0064
 8403TIP3   OH225172   7.017   5.033   4.603  1.1671 -0.1972  0.7359
 8403TIP3    H125173   7.034   4.944   4.570  1.2883  0.3545 -0.7667
 8403TIP3    H225174   7.048   5.090   4.533 -1.6585  0.9784  0.3276
 8404TIP3   OH225175   0.765   0.994   2.211 -0.3433  0.4541  0.2493
 8404TIP3    H125176   0.856   1.015   2.232 -1.0873  1.7471  2.3502
 8404TIP3    H225177   0.715   1.070   2.239 -2.2224 -0.7217  0.2534
 8405TIP3   OH225178   1.555   2.048   4.183 -0.2736  0.0921 -0.5717
 8405TIP3    H125179   1.623   2.064   4.249  0.7542 -0.0003 -1.5909
 8405TIP3    H225180   1.557   2.126   4.128 -1.9080  0.6770  0.1436
 8406TIP3   OH225181   6.757   4.948   5.340 -0.0728  0.0109  0.8198
 8406TIP3    H125182   6.711   5.022   5.380 -0.1637  0.0370  0.6681
 8406TIP3    H225183   6.698   4.873   5.352 -1.0025  0.4043 -1.0004
 8407TIP3   OH225184   2.538   0.814   3.150  0.0174  0.0380  0.1795
 8407TIP3    H125185   2.576   0.864   3.078 -0.0472 -1.0565 -0.6294
 8407TIP3    H225186   2.612   0.795   3.208  0.2171  0.2115 -0.0178
 8408TIP3   OH225187   0.393   6.414   5.679 -0.0008  0.2251  0.4570
 8408TIP3    H125188   0.405   6.482   5.744 -4.3982  1.1159  0.6075
 8408TIP3    H225189   0.436   6.448   5.600  0.8122  1.5634  1.4426
 8409TIP3   OH225190   2.538   0.389   3.932 -0.4130  0.2927  0.2385
 8409TIP3    H125191   2.609   0.454   3.929 -1.4980  1.4829 -1.2656
 8409TIP3    H225192   2.525   0.364   3.840 -1.2805 -0.6570  0.6021
 8410TIP3   OH225193   7.002   0.153   0.899 -0.4710 -0.6981 -0.2214
 8410TIP3    H125194   6.916   0.124   0.930 -1.3148  0.6811 -1.1871
 8410TIP3    H225195   7.013   0.108   0.815 -1.2290  0.6868 -1.1149
 8411TIP3   OH225196   0.650   3.242   3.613  0.4657  0.1676  0.3044
 8411TIP3    H125197   0.609   3.245   3.700  0.9922  0.2478  0.5578
 8411TIP3    H225198   0.681   3.152   3.604 -0.7852 -0.2154 -0.3806
 8412TIP3   OH225199   4.426   1.911   3.447  0.0853 -0.2988 -0.1531
 8412TIP3    H125200   4.506   1.962   3.458  0.3090 -0.8539  0.9607
 8412TIP3    H225201   4.454   1.820   3.448 -0.5827 -0.5144  0.6774
 8413TIP3   OH225202   4.143   6.759   0.835 -0.1047 -0.2236  0.4778
 8413TIP3    H125203   4.103   6.712   0.761 -0.1249 -0.4381  0.6224
 8413TIP3    H225204   4.074   6.762   0.902 -0.0927 -0.0141  0.4817
 8414TIP3   OH225205   6.974   4.696   1.907 -0.2780  0.0806  0.0414
 8414TIP3    H125206   6.982   4.630   1.976  0.2919  0.3823  0.2741
 8414TIP3    H225207   7.055   4.747   1.913  1.5629 -2.0724 -3.1440
 8415TIP3   OH225208   5.596   3.290   4.850 -0.5317  0.0378 -0.3531
 8415TIP3    H125209   5.663   3.329   4.793  0.8905 -0.5626  0.8567
 8415TIP3    H225210   5.530   3.256   4.789  2.3868 -3.3361 -1.9742
 8416TIP3   OH225211   0.155   1.583   5.150 -0.0735  0.1578 -0.3348
 8416TIP3    H125212   0.182   1.662   5.195  1.0130  0.0056 -0.6937
 8416TIP3    H225213   0.207   1.513   5.189 -2.8238 -0.8888  1.8201
 8417TIP3   OH225214   5.298   6.559   3.804 -0.0950  0.2610 -0.1931
 8417TIP3    H125215   5.288   6.647   3.767  0.8874  0.5117  0.1242
 8417TIP3    H225216   5.248   6.562   3.885 -1.3278  0.0465 -0.9087
 8418TIP3   OH225217   4.340   6.355   2.145 -0.0295  0.5445 -0.2665
 8418TIP3    H125218   4.285   6.329   2.071  2.1068 -1.3675 -1.3152
 8418TIP3    H225219   4.342   6.277   2.201  2.6226 -0.0160 -0.9809
 8419TIP3   OH225220   3.684   5.159   1.375  0.7559  0.1264 -0.1145
 8419TIP3    H125221   3.666   5.067   1.353 -0.7170  0.4962 -0.5652
 8419TIP3    H225222   3.649   5.169   1.464  1.4465  0.1110  0.1625
 8420TIP3   OH225223   5.543   4.852   4.347  0.1593 -0.2348  0.3691
 8420TIP3    H125224   5.591   4.825   4.425 -1.3662 -0.5488  1.2288
 8420TIP3    H225225   5.533   4.947   4.357  1.4189 -0.0037 -0.3141
 8421TIP3   OH225226   3.335   6.729   5.839  0.1396  0.1872  0.3329
 8421TIP3    H125227   3.365   6.814   5.870  0.1060  0.3003  0.0538
 8421TIP3    H225228   3.242   6.741   5.823  0.1244  0.0822  0.3393
 8422TIP3   OH225229   0.850   2.285   1.143  0.1470 -0.0500 -0.3228
 8422TIP3    H125230   0.892   2.274   1.228  0.7922 -2.6920 -0.8881
 8422TIP3    H225231   0.916   2.257   1.080 -0.0623  2.4886 -1.8279
 8423TIP3   OH225232   2.202   1.948   4.232 -0.2513 -0.2160  0.2805
 8423TIP3    H125233   2.111   1.931   4.257 -0.1273 -0.3977  0.6136
 8423TIP3    H225234   2.220   1.884   4.163 -0.7161  0.5484 -0.5671
 8424TIP3   OH225235   2.146   1.769   4.473  0.0814  0.2274 -0.3172
 8424TIP3    H125236   2.109   1.829   4.408  2.1079  1.8030 -0.1339
 8424TIP3    H225237   2.115   1.802   4.557  1.0000  0.9398 -0.2341
 8425TIP3   OH225238   6.073   4.566   4.235 -0.4581  0.4270  0.2619
 8425TIP3    H125239   6.000   4.517   4.272 -0.0785  0.2238  0.7567
 8425TIP3    H225240   6.032   4.636   4.185 -1.0078  1.3982  1.9756
 8426TIP3   OH225241   4.791   1.823   0.203 -0.0750  0.3009 -0.1547
 8426TIP3    H125242   4.774   1.868   0.120  2.4692  0.6258 -0.5803
 8426TIP3    H225243   4.882   1.794   0.197  0.4627  1.0151  2.8237
 8427TIP3   OH225244   2.642   6.021   5.035  0.1347  0.0001  0.1750
 8427TIP3    H125245   2.719   6.051   5.083 -0.2161 -0.9457  1.4169
 8427TIP3    H225246   2.604   6.100   4.997  1.5292  0.5203 -0.1879
 8428TIP3   OH225247   1.142   4.706   3.101  0.5846  0.4981 -0.0495
 8428TIP3    H125248   1.124   4.632   3.043  0.3807 -0.9025  1.7073
 8428TIP3    H225249   1.235   4.725   3.087  0.2327  1.1295 -1.8099
 8429TIP3   OH225250   2.956   0.229   4.826 -0.1080  0.2950 -0.1913
 8429TIP3    H125251   3.035   0.189   4.862 -0.1364  0.2095 -0.2233
 8429TIP3    H225252   2.986   0.311   4.785  0.4029 -0.9748 -2.5505
 8430TIP3   OH225253   0.795   1.428   1.309  0.6143  0.1244 -1.0223
 8430TIP3    H125254   0.816   1.444   1.217 -1.9503  0.0708 -1.6982
 8430TIP3    H225255   0.701   1.411   1.310  0.4542  0.6363  1.6960
 8431TIP3   OH225256   5.571   2.548   1.079  0.1800 -0.0129 -0.0530
 8431TIP3    H125257   5.622   2.487   1.025 -1.2892 -2.2201  0.8751
 8431TIP3    H225258   5.609   2.541   1.166 -0.3266 -0.0184  0.1720
 8432TIP3   OH225259   3.967   4.503   1.465 -0.1305  0.3928  0.5177
 8432TIP3    H125260   3.926   4.584   1.436 -0.1793 -0.4240 -1.9244
 8432TIP3    H225261   3.974   4.449   1.386  0.8926 -1.5689  1.8368
 8433TIP3   OH225262   3.058   5.265   3.754 -0.0636  0.3256  0.5299
 8433TIP3    H125263   2.991   5.199   3.737  1.7589 -1.1880 -1.3179
 8433TIP3    H225264   3.141   5.221   3.734  1.4906  2.2375  2.2967
 8434TIP3   OH225265   2.816   1.198   0.627  0.1598 -0.6407 -0.2710
 8434TIP3    H125266   2.812   1.102   0.620 -2.3130 -0.9394  2.9631
 8434TIP3    H225267   2.853   1.214   0.714 -1.3829  1.2294  0.1079
 8435TIP3   OH225268   5.507   2.182   5.575 -0.7959  0.0433 -0.2183
 8435TIP3    H125269   5.540   2.093   5.584 -1.0738 -0.1660 -1.1256
 8435TIP3    H225270   5.523   2.204   5.483  1.1261  1.6963  0.4424
 8436TIP3   OH225271   5.448   3.533   3.995  0.0540  0.6129 -0.3654
 8436TIP3    H125272   5.407   3.478   4.062  0.5741  1.3659  0.5940
 8436TIP3    H225273   5.525   3.483   3.968 -0.5490 -0.0234 -0.9359
 8437TIP3   OH225274   0.914   3.142   2.092  0.5288 -0.0147  0.1446
 8437TIP3    H125275   0.992   3.161   2.040 -0.7609  0.1491 -1.8448
 8437TIP3    H225276   0.946   3.091   2.166  2.2895 -1.6630 -1.6286
 8438TIP3   OH225277   2.360   3.139   0.043 -0.3187  0.3942 -0.0968
 8438TIP3    H125278   2.286   3.160  -0.014 -0.2275 -0.1280 -0.4139
 8438TIP3    H225279   2.435   3.185   0.005 -0.4935  0.9989  0.2777
 8439TIP3   OH225280   2.083   4.278   1.981 -0.1045 -0.1385  0.1892
 8439TIP3    H125281   2.076   4.347   2.047 -0.8036  0.6256 -0.6570
 8439TIP3    H225282   2.008   4.221   1.998 -2.0469  1.6847 -1.7174
 8440TIP3   OH225283   3.091   2.538   1.227  0.0404  0.4487 -0.0381
 8440TIP3    H125284   3.025   2.542   1.158  1.6270  0.7807 -1.5915
 8440TIP3    H225285   3.120   2.446   1.226  1.7449  0.9512 -1.5154
 8441TIP3   OH225286   5.162   3.863   1.580 -0.1374 -0.4625 -0.4442
 8441TIP3    H125287   5.219   3.789   1.563  0.5180  0.7090 -4.1126
 8441TIP3    H225288   5.215   3.940   1.560 -1.0915  1.0506  2.3093
 8442TIP3   OH225289   2.740   5.984   0.243  0.8500 -0.2141 -0.6418
 8442TIP3    H125290   2.675   6.000   0.311  0.5407  0.3772 -1.0741
 8442TIP3    H225291   2.816   5.950   0.291  0.4055 -0.4306 -0.0797
 8443TIP3   OH225292   2.546   0.116   4.307  0.0603  0.2028  0.5051
 8443TIP3    H125293   2.609   0.145   4.241 -0.2567  2.0207  0.9499
 8443TIP3    H225294   2.483   0.064   4.259  0.8875 -0.1005 -0.2733
 8444TIP3   OH225295   5.440   4.635   0.793  0.2690 -0.1319  0.5914
 8444TIP3    H125296   5.470   4.725   0.780 -1.0466  0.4599  1.4244
 8444TIP3    H225297   5.388   4.616   0.716 -0.4288  0.2757  0.9443
 8445TIP3   OH225298   6.492   1.874   2.035 -0.0821  0.0317  0.2740
 8445TIP3    H125299   6.499   1.912   2.123 -2.0354  0.9079  0.0969
 8445TIP3    H225300   6.400   1.851   2.026  0.1504 -0.3377 -1.4465
 8446TIP3   OH225301   2.625   6.679   2.655 -0.7562  0.0918  0.2144
 8446TIP3    H125302   2.558   6.731   2.610  0.0254 -0.2071 -1.3706
 8446TIP3    H225303   2.598   6.588   2.639  0.5709 -0.0650 -1.4130
 8447TIP3   OH225304   3.199   1.321   3.822 -0.2195  0.2817  0.0743
 8447TIP3    H125305   3.198   1.349   3.730 -1.1656  1.7765  0.5167
 8447TIP3    H225306   3.258   1.382   3.865 -0.1739 -0.1049  0.5643
 8448TIP3   OH225307   0.969   1.328   3.225  0.0478  0.3099 -0.2152
 8448TIP3    H125308   1.055   1.355   3.258  0.2471  2.7198 -2.3430
 8448TIP3    H225309   0.983   1.239   3.193  0.0766 -1.8077  4.7786
 8449TIP3   OH225310   5.508   4.857   5.344  0.0485  0.2087  0.2580
 8449TIP3    H125311   5.432   4.887   5.393 -0.6879  0.1360 -0.8003
 8449TIP3    H225312   5.554   4.798   5.404 -0.6900  0.3078  0.9315
 8450TIP3   OH225313   2.582   0.600   0.320 -0.0167  0.3762  0.3642
 8450TIP3    H125314   2.593   0.634   0.231  4.6301  1.3969  1.0944
 8450TIP3    H225315   2.525   0.664   0.362  0.7774  2.0269 -0.9171
 8451TIP3   OH225316   1.376   2.509   3.304 -0.5125  0.4776 -0.1885
 8451TIP3    H125317   1.451   2.490   3.360 -1.9360  1.6665  2.2915
 8451TIP3    H225318   1.364   2.429   3.251  1.4360 -0.3526  0.5504
 8452TIP3   OH225319   6.427   2.760   0.446  0.2275 -0.1318  0.1393
 8452TIP3    H125320   6.511   2.716   0.451  0.9165  1.0739 -0.4589
 8452TIP3    H225321   6.398   2.766   0.538  0.7790 -0.5514  0.3448
 8453TIP3   OH225322   1.390   0.204   4.633 -0.2716 -0.1842  0.0558
 8453TIP3    H125323   1.465   0.151   4.608 -1.0169 -2.1456  1.6715
 8453TIP3    H225324   1.421   0.256   4.708 -1.2743 -3.6328  3.1584
 8454TIP3   OH225325   0.502   0.657   0.918  0.2944 -0.0374 -0.5598
 8454TIP3    H125326   0.459   0.573   0.934 -0.2861  0.3616  0.0419
 8454TIP3    H225327   0.595   0.635   0.910  0.6087 -0.4460  2.6501
 8455TIP3   OH225328   1.105   2.836   1.899 -0.4578  0.0537  0.1762
 8455TIP3    H125329   1.016   2.820   1.929 -0.6422  0.1442 -0.3186
 8455TIP3    H225330   1.109   2.797   1.812 -0.6455  1.8174 -0.6722
 8456TIP3   OH225331   4.115   2.257   4.445  0.4234  0.0910 -0.3672
 8456TIP3    H125332   4.204   2.251   4.412  0.4504  0.6742 -0.4107
 8456TIP3    H225333   4.100   2.351   4.459 -0.3790  0.0584 -0.8996
 8457TIP3   OH225334   6.188   0.108   1.605 -0.2599  0.3465 -0.1356
 8457TIP3    H125335   6.133   0.186   1.602 -0.7684  0.1474  2.0933
 8457TIP3    H225336   6.126   0.035   1.609  0.1789 -0.0289 -0.1255
 8458TIP3   OH225337   5.460   2.457   1.989 -0.1988 -0.2923 -0.2017
 8458TIP3    H125338   5.517   2.483   2.061 -0.7308 -0.9481  0.4813
 8458TIP3    H225339   5.519   2.419   1.923  0.2795  0.2139 -0.0705
 8459TIP3   OH225340   3.380   5.438   1.490 -0.4189  0.4243  0.2491
 8459TIP3    H125341   3.340   5.355   1.466 -0.9994  0.8334 -0.2283
 8459TIP3    H225342   3.435   5.461   1.415  0.5803 -0.0254  0.8079
 8460TIP3   OH225343   2.356   6.410   5.412 -0.3607 -0.4147  0.3340
 8460TIP3    H125344   2.366   6.504   5.429 -1.0218 -0.6456  2.2032
 8460TIP3    H225345   2.366   6.369   5.498  0.6929 -2.1410 -0.5667
 8461TIP3   OH225346   0.007   0.087   2.118  0.0624 -0.0232  0.1463
 8461TIP3    H125347   0.078   0.026   2.141 -0.6585 -0.8660  0.1965
 8461TIP3    H225348   0.025   0.111   2.027 -0.4329 -1.4863 -0.3776
 8462TIP3   OH225349   6.721   0.858   5.362 -0.1189 -0.2164 -0.0964
 8462TIP3    H125350   6.642   0.815   5.392  0.3261  0.1326  1.6846
 8462TIP3    H225351   6.692   0.912   5.288 -1.4435 -0.4611  0.2188
 8463TIP3   OH225352   0.598   5.541   0.769 -0.1629  0.3350  0.4962
 8463TIP3    H125353   0.536   5.503   0.831 -0.6804 -0.8197 -0.6791
 8463TIP3    H225354   0.547   5.552   0.689  1.1981 -0.8753 -0.5705
 8464TIP3   OH225355   2.268   5.532   3.099 -0.1901  0.0723 -0.1036
 8464TIP3    H125356   2.267   5.492   3.186  0.0588 -2.0842 -1.0105
 8464TIP3    H225357   2.357   5.564   3.088 -0.0457 -0.2197  0.1975
 8465TIP3   OH225358   4.059   3.446   0.846  0.1369 -0.2905 -0.0546
 8465TIP3    H125359   4.101   3.420   0.764 -0.2164 -0.0704 -0.3039
 8465TIP3    H225360   4.065   3.541   0.847 -1.5889 -0.1493 -0.7610
 8466TIP3   OH225361   2.239   5.901   5.401  0.2062  0.2029 -0.2179
 8466TIP3    H125362   2.174   5.943   5.343  0.8766  0.4067 -0.8394
 8466TIP3    H225363   2.323   5.933   5.369  0.8173 -2.1721 -1.2184
 8467TIP3   OH225364   4.085   3.303   5.217  0.1892 -0.1774  0.5108
 8467TIP3    H125365   4.121   3.357   5.146 -0.8177  1.7427  1.4049
 8467TIP3    H225366   4.153   3.304   5.284  0.9802 -1.6843 -0.1963
 8468TIP3   OH225367   6.581   2.359   4.164 -0.0051  0.0923  0.2401
 8468TIP3    H125368   6.634   2.308   4.224  0.1442  1.6163  1.4653
 8468TIP3    H225369   6.537   2.294   4.109  0.4581 -1.3154  1.4742
 8469TIP3   OH225370   1.358   5.714   0.045  0.6091 -0.6609 -0.1079
 8469TIP3    H125371   1.448   5.743   0.033  0.6014  0.0601  1.3315
 8469TIP3    H225372   1.307   5.795   0.048  0.2380 -0.9154  1.3654
 8470TIP3   OH225373   2.787   2.306   1.834  0.1127 -0.3588 -0.3311
 8470TIP3    H125374   2.739   2.275   1.758  0.4701  0.6514 -0.9932
 8470TIP3    H225375   2.785   2.233   1.896 -1.6915 -0.5616 -0.5957
 8471TIP3   OH225376   3.213   3.731   0.963  0.6425 -0.5304  0.5584
 8471TIP3    H125377   3.290   3.769   0.922 -0.5683 -0.3571 -1.6993
 8471TIP3    H225378   3.161   3.807   0.991  0.3530 -0.5862  0.1886
 8472TIP3   OH225379   4.324   4.015   4.286  1.0306 -0.2924  0.7683
 8472TIP3    H125380   4.365   4.040   4.203  2.2217 -0.3646  1.3086
 8472TIP3    H225381   4.398   3.989   4.341  0.2163 -0.5959  1.7262
 8473TIP3   OH225382   5.346   0.773   1.675  0.1851  0.2451 -0.1314
 8473TIP3    H125383   5.326   0.681   1.657  0.3150  0.4371 -1.3097
 8473TIP3    H225384   5.382   0.806   1.594 -0.6926  1.5820 -0.0061
 8474TIP3   OH225385   3.994   0.382   4.473  0.2596 -0.5035 -0.3866
 8474TIP3    H125386   4.046   0.453   4.511  0.0871 -1.6602  2.2006
 8474TIP3    H225387   4.058   0.323   4.435  0.8591 -1.3927  1.8563
 8475TIP3   OH225388   5.440   0.411   3.953 -0.2755  0.1266  0.4864
 8475TIP3    H125389   5.354   0.370   3.961  0.7987 -3.0381 -2.1465
 8475TIP3    H225390   5.427   0.482   3.890 -0.5622 -2.3828 -2.5419
 8476TIP3   OH225391   1.282   6.171   2.610  0.8342  0.2097  0.0285
 8476TIP3    H125392   1.347   6.158   2.541  1.7976 -1.9388  1.2327
 8476TIP3    H225393   1.283   6.089   2.659 -3.0770 -0.0838 -0.0748
 8477TIP3   OH225394   4.032   5.162   0.325  0.4489  0.2298  0.3091
 8477TIP3    H125395   4.093   5.088   0.326 -0.0014 -0.1407  0.3717
 8477TIP3    H225396   4.007   5.171   0.233  1.4868  1.1231  0.0926
 8478TIP3   OH225397   5.055   0.396   5.279  0.1839 -0.0043  0.5418
 8478TIP3    H125398   5.010   0.439   5.352  0.1162 -0.6414  0.8819
 8478TIP3    H225399   5.148   0.403   5.301  0.1933  0.2535  0.4302
 8479TIP3   OH225400   6.173   0.868   4.592  0.1319  0.6611  0.5878
 8479TIP3    H125401   6.131   0.952   4.612 -1.3259 -0.2021  1.3352
 8479TIP3    H225402   6.231   0.853   4.667  2.6435  2.2884 -0.8665
 8480TIP3   OH225403   1.115   1.194   5.496 -0.0932 -0.0474  0.3594
 8480TIP3    H125404   1.044   1.246   5.458  0.6590  0.8284  0.1175
 8480TIP3    H225405   1.083   1.168   5.582 -0.9781 -0.2556 -0.0246
 8481TIP3   OH225406   5.582   1.576   4.757  0.0665 -0.2044 -1.1613
 8481TIP3    H125407   5.538   1.541   4.679  0.6700  0.2514 -1.7147
 8481TIP3    H225408   5.612   1.663   4.731 -1.2131  0.6584  0.1274
 8482TIP3   OH225409   3.891   2.209   5.094  0.3054  0.0645  0.3802
 8482TIP3    H125410   3.811   2.174   5.055  0.9639 -0.9362 -0.1074
 8482TIP3    H225411   3.911   2.287   5.042  0.3147 -0.3774 -0.2939
 8483TIP3   OH225412   0.543   2.256   4.743 -0.3645  0.4744 -0.3339
 8483TIP3    H125413   0.453   2.289   4.739 -1.4272 -2.1840  0.0154
 8483TIP3    H225414   0.588   2.317   4.802 -1.9158  1.8372 -0.4971
 8484TIP3   OH225415   3.598   5.296   3.949 -0.5654 -0.6711 -0.2298
 8484TIP3    H125416   3.652   5.317   4.026 -1.1748 -0.4456  0.1474
 8484TIP3    H225417   3.510   5.285   3.985 -1.2447  1.3912 -1.1577
 8485TIP3   OH225418   0.650   4.601   5.869 -0.2872  0.0365 -0.5718
 8485TIP3    H125419   0.583   4.669   5.882 -0.9088 -0.4302 -1.2395
 8485TIP3    H225420   0.667   4.603   5.774  2.6223  1.9875 -0.1493
 8486TIP3   OH225421   3.558   5.781   1.378 -0.4735 -0.1878  0.4370
 8486TIP3    H125422   3.501   5.721   1.331  0.0101  0.7835 -1.5095
 8486TIP3    H225423   3.641   5.778   1.330 -0.3672  1.8128  0.3799
 8487TIP3   OH225424   4.298   5.930   0.658 -0.5741  0.3121 -0.4177
 8487TIP3    H125425   4.275   5.838   0.662 -0.4304  0.2598 -0.7349
 8487TIP3    H225426   4.356   5.937   0.581 -0.7502  0.6982 -0.5185
 8488TIP3   OH225427   2.894   2.081   4.172  1.0701 -0.3785 -0.0718
 8488TIP3    H125428   2.965   2.096   4.110  1.9223 -2.7746  0.2132
 8488TIP3    H225429   2.847   2.004   4.138 -1.8913  1.5055 -0.6280
 8489TIP3   OH225430   7.217   0.082   1.068  0.0013  0.1980  0.1776
 8489TIP3    H125431   7.185   0.002   1.110 -0.3182  0.5155  0.5566
 8489TIP3    H225432   7.139   0.121   1.029  0.3189 -0.1573 -0.8319
 8490TIP3   OH225433   4.789   6.012   2.591  0.2580 -0.1248 -0.6063
 8490TIP3    H125434   4.751   5.924   2.580  0.8983 -0.7184  1.5450
 8490TIP3    H225435   4.850   6.020   2.518 -1.1756 -0.6825 -1.9299
 8491TIP3   OH225436   3.353   4.368   2.328 -0.1586  0.6305  0.0153
 8491TIP3    H125437   3.385   4.278   2.315  0.4547  1.0464 -1.6457
 8491TIP3    H225438   3.432   4.419   2.344 -0.4927  0.9186  0.7833
 8492TIP3   OH225439   1.223   1.660   0.288 -0.3526 -0.1576  0.3543
 8492TIP3    H125440   1.273   1.581   0.310 -0.2841 -0.0230  0.6977
 8492TIP3    H225441   1.169   1.676   0.365 -1.9982 -1.1041 -0.5508
 8493TIP3   OH225442   1.926   1.311   4.449 -0.0311  0.0055  0.4865
 8493TIP3    H125443   1.920   1.221   4.418  4.0001  0.0288 -0.9348
 8493TIP3    H225444   1.973   1.304   4.532 -0.3860  0.7526  0.7531
 8494TIP3   OH225445   4.838   4.295   4.517 -1.0093  0.2533  0.1849
 8494TIP3    H125446   4.844   4.200   4.514  0.3468  0.3336 -0.3223
 8494TIP3    H225447   4.928   4.325   4.530 -1.3733  1.4708  0.0585
 8495TIP3   OH225448   6.063   6.743   1.723 -0.0627  0.2277 -0.1740
 8495TIP3    H125449   6.086   6.656   1.688 -0.1733  0.2351 -0.2626
 8495TIP3    H225450   6.117   6.751   1.801 -1.7974 -0.9563  1.2421
 8496TIP3   OH225451   2.527   6.237   1.677 -0.6001  0.4372 -0.3414
 8496TIP3    H125452   2.597   6.300   1.695 -0.4985  0.4530 -0.7668
 8496TIP3    H225453   2.571   6.151   1.681 -0.5735  0.4419 -0.5277
 8497TIP3   OH225454   0.945   6.676   0.780 -0.5630 -0.7661 -0.1916
 8497TIP3    H125455   0.978   6.596   0.739 -0.3239 -0.8517  0.1681
 8497TIP3    H225456   0.980   6.747   0.725  2.2051 -0.7088  1.4750
 8498TIP3   OH225457   1.880   3.141   4.387 -0.5100 -0.6442  0.8749
 8498TIP3    H125458   1.791   3.132   4.356 -0.4763  2.2337 -0.4482
 8498TIP3    H225459   1.934   3.099   4.320 -0.7773 -0.1344  0.3299
 8499TIP3   OH225460   0.381   4.102   5.030 -0.5495 -0.1999 -0.1534
 8499TIP3    H125461   0.297   4.146   5.024 -0.2318  0.2085 -2.3871
 8499TIP3    H225462   0.418   4.132   5.113 -1.1198  2.3642 -0.7529
 8500TIP3   OH225463   6.808   6.124   0.456  0.0122  0.4573 -0.0346
 8500TIP3    H125464   6.775   6.145   0.543 -0.0707  1.1435 -0.2278
 8500TIP3    H225465   6.887   6.179   0.447  0.0298  0.3749 -0.3819
 8501TIP3   OH225466   0.467   5.335   3.231  0.0827 -0.1421 -0.5967
 8501TIP3    H125467   0.477   5.372   3.143  4.0180 -0.4879 -0.4644
 8501TIP3    H225468   0.487   5.242   3.221  1.2569 -0.0663  0.7078
 8502TIP3   OH225469   3.556   6.357   2.114 -0.1977 -0.0433 -0.0340
 8502TIP3    H125470   3.622   6.291   2.135 -1.7485 -0.7344  3.3566
 8502TIP3    H225471   3.589   6.438   2.154 -1.3066 -0.3946  1.6810
 8503TIP3   OH225472   4.556   5.460   3.262  0.4335  0.3850 -0.2748
 8503TIP3    H125473   4.580   5.371   3.289  1.4732  0.5838 -0.4681
 8503TIP3    H225474   4.485   5.447   3.199 -0.0032 -0.2530  0.3371
 8504TIP3   OH225475   1.810   2.300   0.760  0.1046  0.1473  0.3938
 8504TIP3    H125476   1.814   2.367   0.691 -2.5171  0.5485  0.5233
 8504TIP3    H225477   1.832   2.347   0.841  1.7601 -0.0014  0.0618
 8505TIP3   OH225478   6.166   0.124   5.351  0.5527 -0.0293 -0.2797
 8505TIP3    H125479   6.158   0.065   5.276  0.2217 -2.3779  1.5033
 8505TIP3    H225480   6.076   0.149   5.371  0.5371 -0.3271  0.0237
 8506TIP3   OH225481   6.743   5.381   3.923  0.0018  0.2235  0.1889
 8506TIP3    H125482   6.712   5.470   3.939 -0.3979 -0.2714  2.4798
 8506TIP3    H225483   6.695   5.326   3.985  0.4010 -1.5942 -0.9989
 8507TIP3   OH225484   5.653   0.142   0.404  0.0037  0.1809  0.1112
 8507TIP3    H125485   5.580   0.176   0.457  0.3669 -0.8112  1.2947
 8507TIP3    H225486   5.623   0.150   0.314 -1.1503  0.7652  0.5295
 8508TIP3   OH225487   5.858   6.761   4.921  0.1313 -0.0205 -0.4871
 8508TIP3    H125488   5.845   6.727   4.832  0.2100  0.2386 -0.6002
 8508TIP3    H225489   5.952   6.779   4.926  0.0102  0.6733 -0.6107
 8509TIP3   OH225490   4.790   3.051   4.954  0.3732  0.0534  0.1630
 8509TIP3    H125491   4.753   3.077   5.039  0.6435  0.9585  0.0146
 8509TIP3    H225492   4.848   3.123   4.931  0.8527 -0.5244 -0.4595
 8510TIP3   OH225493   0.983   4.160   3.936  0.2726  0.1225  0.2097
 8510TIP3    H125494   0.975   4.253   3.918  0.5250  0.0762 -0.1369
 8510TIP3    H225495   0.995   4.119   3.850 -0.0028 -0.2449  0.3435
 8511TIP3   OH225496   6.071   0.677   1.317  0.3452 -0.5224  0.0079
 8511TIP3    H125497   6.101   0.742   1.381  2.8305 -0.8146 -0.7873
 8511TIP3    H225498   6.046   0.602   1.371 -0.4606  0.2581  0.7838
 8512TIP3   OH225499   4.160   1.108   0.784  0.4452 -0.5550 -0.1076
 8512TIP3    H125500   4.163   1.015   0.761 -2.1899 -1.4795  2.5724
 8512TIP3    H225501   4.080   1.140   0.742  2.3862  1.1738 -2.7460
 8513TIP3   OH225502   5.879   0.483   1.897 -0.5286  0.4672 -0.1118
 8513TIP3    H125503   5.942   0.412   1.881  1.8864  2.4214  0.1401
 8513TIP3    H225504   5.910   0.525   1.978 -2.7586  0.9579  0.5598
 8514TIP3   OH225505   1.606   6.428   1.071 -0.3061  0.1064  0.1811
 8514TIP3    H125506   1.543   6.392   1.134  0.6160  0.9966  1.6421
 8514TIP3    H225507   1.591   6.522   1.072  0.8386  0.3027  0.3198
 8515TIP3   OH225508   7.135   2.050   0.232  0.1702 -0.0732 -0.0545
 8515TIP3    H125509   7.078   1.984   0.272  0.0843  0.0408  0.0113
 8515TIP3    H225510   7.140   2.120   0.297  0.2464 -0.0059 -0.1326
 8516TIP3   OH225511   5.410   5.134   1.694 -0.2700 -0.3698 -0.4459
 8516TIP3    H125512   5.498   5.140   1.732  2.1058 -0.1618 -5.1705
 8516TIP3    H225513   5.374   5.222   1.703  0.3282 -0.2290  0.8263
 8517TIP3   OH225514   6.744   0.261   5.827 -0.7650 -0.1714 -0.1930
 8517TIP3    H125515   6.740   0.165   5.830  0.1428 -0.1913  1.4648
 8517TIP3    H225516   6.809   0.281   5.760 -0.7019 -0.7266 -0.2986
 8518TIP3   OH225517   3.781   3.060   0.119 -0.4866 -0.0225 -0.3028
 8518TIP3    H125518   3.789   3.152   0.093  2.6430  0.5435  1.9700
 8518TIP3    H225519   3.780   3.063   0.215 -0.4449 -2.3324 -0.1907
 8519TIP3   OH225520   4.451   2.742   0.228  0.1976 -0.7291  0.0939
 8519TIP3    H125521   4.382   2.753   0.163  0.3489 -0.4518 -0.0195
 8519TIP3    H225522   4.474   2.831   0.254 -0.0117 -0.8421  0.6823
 8520TIP3   OH225523   3.577   1.426   3.145  0.4267 -0.0389 -0.2470
 8520TIP3    H125524   3.601   1.335   3.160  0.3376  0.1064  0.8228
 8520TIP3    H225525   3.512   1.446   3.212 -0.9088  0.2945 -1.5818
 8521TIP3   OH225526   5.935   6.217   4.730  0.6151  0.5461 -0.2740
 8521TIP3    H125527   5.848   6.212   4.690  1.0041 -0.4970 -1.0735
 8521TIP3    H225528   5.995   6.226   4.655  1.2977 -0.4251  0.1303
 8522TIP3   OH225529   5.032   3.629   1.012 -0.1118 -0.0542 -0.2242
 8522TIP3    H125530   5.023   3.724   1.005  0.6919  0.0853  0.4432
 8522TIP3    H225531   5.122   3.611   0.987 -1.1882 -1.0920 -3.9848
 8523TIP3   OH225532   2.328   2.265   2.929 -0.0792 -0.0816  0.1666
 8523TIP3    H125533   2.267   2.227   2.865 -0.6556 -0.2735  0.8073
 8523TIP3    H225534   2.317   2.211   3.007 -1.0730  1.4910  1.1835
 8524TIP3   OH225535   5.228   2.988   2.412  0.1007 -0.5098  0.2943
 8524TIP3    H125536   5.156   3.039   2.374  0.3307  0.3388  0.9547
 8524TIP3    H225537   5.231   3.016   2.503  3.1572  1.7607 -0.3293
 8525TIP3   OH225538   0.311   4.880   2.645  0.1883  0.4312  0.1242
 8525TIP3    H125539   0.277   4.875   2.734 -0.1971 -0.1564 -0.0517
 8525TIP3    H225540   0.397   4.922   2.655  0.9258 -1.1788  0.9900
 8526TIP3   OH225541   1.324   0.057   4.957  0.2598  0.7274 -0.2061
 8526TIP3    H125542   1.380   0.014   5.021 -1.1688  0.1577  0.7018
 8526TIP3    H225543   1.385   0.099   4.897  1.7021 -1.1776 -0.1833
 8527TIP3   OH225544   6.277   1.390   2.648  0.6691  0.2141  0.5656
 8527TIP3    H125545   6.190   1.428   2.633  0.5713  0.0373  0.6873
 8527TIP3    H225546   6.318   1.450   2.711  1.2379  1.1965 -0.6808
 8528TIP3   OH225547   4.952   3.512   1.826  0.0598  0.1509 -0.1979
 8528TIP3    H125548   4.925   3.567   1.899  2.0669  0.3317  0.4724
 8528TIP3    H225549   4.970   3.573   1.755 -2.3777 -0.0582 -1.0871
 8529TIP3   OH225550   5.993   4.805   1.673 -0.6948  0.3774  0.6103
 8529TIP3    H125551   5.995   4.867   1.601  1.4681  0.0313  0.2946
 8529TIP3    H225552   5.957   4.725   1.636 -0.5683  0.5182  0.1841
 8530TIP3   OH225553   3.997   6.512   4.535 -0.1121  0.2602 -0.0867
 8530TIP3    H125554   3.944   6.438   4.507  1.3932 -0.4116 -1.3419
 8530TIP3    H225555   3.937   6.586   4.537 -1.8562 -1.0912  2.0505
 8531TIP3   OH225556   5.550   1.651   3.979  0.5713  0.3731 -0.5804
 8531TIP3    H125557   5.533   1.732   3.931  2.4667  1.6470  0.7242
 8531TIP3    H225558   5.587   1.592   3.913  0.4324  1.0571 -1.2881
 8532TIP3   OH225559   4.768   1.837   5.589 -0.2230 -0.1361  0.0544
 8532TIP3    H125560   4.793   1.775   5.520  1.2570  1.0369 -0.5346
 8532TIP3    H225561   4.841   1.900   5.592 -1.1916  0.9927  1.3138
 8533TIP3   OH225562   6.302   4.332   1.401  0.8139 -0.1528 -0.6597
 8533TIP3    H125563   6.366   4.401   1.382  2.0227 -0.6685  1.2597
 8533TIP3    H225564   6.255   4.320   1.319  1.5071  1.9758 -1.4390
 8534TIP3   OH225565   3.333   1.955   5.560 -0.2646  0.0143  0.0019
 8534TIP3    H125566   3.408   1.996   5.518 -0.9327 -0.2440 -1.4873
 8534TIP3    H225567   3.287   2.028   5.602 -0.5682  0.5834 -1.2682
 8535TIP3   OH225568   6.652   3.004   5.305 -0.0348  0.8706  0.7122
 8535TIP3    H125569   6.692   2.934   5.357 -0.7424 -1.0104 -1.1071
 8535TIP3    H225570   6.727   3.057   5.276  1.0902 -1.4767 -1.0625
 8536TIP3   OH225571   1.101   5.873   1.073 -0.0975 -0.7425 -0.0139
 8536TIP3    H125572   1.066   5.828   0.996 -0.3878 -0.5858  0.0255
 8536TIP3    H225573   1.128   5.802   1.131  1.9990 -0.8966 -1.0768
 8537TIP3   OH225574   5.981   0.372   5.817 -0.0617 -0.1562  0.1254
 8537TIP3    H125575   6.064   0.387   5.863  0.6168  1.7200 -1.5672
 8537TIP3    H225576   6.005   0.316   5.743 -0.1688  0.8532 -0.6859
 8538TIP3   OH225577   6.583   3.106   1.545  0.4919 -0.1349  0.6519
 8538TIP3    H125578   6.621   3.194   1.542  0.2598  0.0002  1.3094
 8538TIP3    H225579   6.504   3.116   1.599  2.0650 -1.2849  3.4250
 8539TIP3   OH225580   5.009   5.996   1.716  0.2204  0.2485  0.8325
 8539TIP3    H125581   4.946   6.042   1.771 -1.1100 -0.1088 -0.3171
 8539TIP3    H225582   5.090   5.994   1.767 -0.0577  2.6272  1.4873
 8540TIP3   OH225583   4.097   3.700   4.976  0.2161 -0.4993 -0.3272
 8540TIP3    H125584   4.131   3.616   4.943 -0.6855 -0.6389 -0.9319
 8540TIP3    H225585   4.061   3.743   4.898 -4.0081 -1.7767  0.6619
 8541TIP3   OH225586   3.327   3.366   1.807 -0.5875 -0.0278  0.1848
 8541TIP3    H125587   3.338   3.379   1.713  1.0464 -1.2968  0.1538
 8541TIP3    H225588   3.237   3.336   1.818 -0.1037 -2.2257 -1.2790
 8542TIP3   OH225589   2.277   1.915   5.799 -0.3042 -0.4589 -0.4294
 8542TIP3    H125590   2.251   1.960   5.880 -0.0311 -0.4756 -0.3314
 8542TIP3    H225591   2.312   1.985   5.744 -0.1728 -0.5012 -0.3994
 8543TIP3   OH225592   5.106   5.689   2.359  0.2174 -0.3611 -0.2104
 8543TIP3    H125593   5.149   5.766   2.321 -0.7651  0.7953  0.9262
 8543TIP3    H225594   5.014   5.699   2.335 -0.1237 -0.5188  0.9652
 8544TIP3   OH225595   7.018   2.723   4.341 -0.3848  0.4819 -0.0654
 8544TIP3    H125596   6.986   2.647   4.392  1.7920 -0.3358  0.1787
 8544TIP3    H225597   7.016   2.693   4.250 -1.1541  0.7783 -0.1571
 8545TIP3   OH225598   6.434   6.250   2.682 -0.0617 -0.4191 -0.5590
 8545TIP3    H125599   6.438   6.264   2.588  1.1382 -0.6883 -0.5644
 8545TIP3    H225600   6.405   6.159   2.691  0.6938 -0.6789 -0.6937
 8546TIP3   OH225601   6.040   2.954   4.794  0.3883  0.3513  0.0049
 8546TIP3    H125602   6.123   3.000   4.802  0.1751  1.2150 -2.0641
 8546TIP3    H225603   6.060   2.877   4.740 -0.4661  1.6361 -2.2502
 8547TIP3   OH225604   5.877   3.440   4.395 -0.1464 -0.4344 -0.2295
 8547TIP3    H125605   5.958   3.390   4.403  0.0021 -0.2991 -0.8237
 8547TIP3    H225606   5.895   3.503   4.325 -0.7528 -0.3766 -0.3364
 8548TIP3   OH225607   6.458   4.444   5.783  0.1192 -0.0285 -0.8488
 8548TIP3    H125608   6.529   4.487   5.831  0.0370  0.7019 -1.3589
 8548TIP3    H225609   6.446   4.360   5.827  2.0111 -0.6237 -1.3908
 8549TIP3   OH225610   3.107   2.512   2.101  0.3872  0.0964 -0.5544
 8549TIP3    H125611   3.030   2.503   2.045  0.4095  0.1511 -0.5940
 8549TIP3    H225612   3.119   2.425   2.139  0.4779  0.0140 -0.7745
 8550TIP3   OH225613   4.337   3.231   3.640  0.7479  0.4606 -0.2160
 8550TIP3    H125614   4.256   3.281   3.645  0.7572  0.5633 -1.0014
 8550TIP3    H225615   4.385   3.269   3.567  1.8014  0.8284  0.6260
 8551TIP3   OH225616   3.880   1.308   0.025 -0.2600 -0.4029 -0.4011
 8551TIP3    H125617   3.928   1.264   0.095  2.5599 -0.8594 -2.4072
 8551TIP3    H225618   3.848   1.389   0.064 -0.2576 -1.3995  1.7982
 8552TIP3   OH225619   6.372   0.070   2.986  0.0788 -0.0209  0.6222
 8552TIP3    H125620   6.361   0.155   3.029 -0.5267 -0.5704  1.5937
 8552TIP3    H225621   6.304   0.067   2.918 -1.4117 -0.6064  2.0646
 8553TIP3   OH225622   4.836   0.981   3.831  0.4120  0.5605 -0.0934
 8553TIP3    H125623   4.925   0.988   3.797  0.1876 -0.4059 -0.9395
 8553TIP3    H225624   4.846   0.936   3.915  0.6096 -0.9615 -0.8988
 8554TIP3   OH225625   0.482   1.664   5.705 -0.1805  0.1515  0.2145
 8554TIP3    H125626   0.452   1.587   5.753  0.2568 -1.2278 -1.6003
 8554TIP3    H225627   0.533   1.628   5.632  1.6640  2.2215  0.3666
 8555TIP3   OH225628   1.524   3.386   0.281 -0.3132  0.0088  0.2999
 8555TIP3    H125629   1.488   3.329   0.349 -0.4213 -1.4650 -0.9282
 8555TIP3    H225630   1.453   3.447   0.261 -1.2145 -1.1813 -0.2582
 8556TIP3   OH225631   5.879   2.229   5.643 -0.4206  0.0150 -0.1770
 8556TIP3    H125632   5.908   2.289   5.574 -2.2516  0.6902 -0.4255
 8556TIP3    H225633   5.959   2.185   5.672  0.6617  1.0434 -1.4575
 8557TIP3   OH225634   6.767   0.597   1.248  0.2189 -0.0147 -0.5848
 8557TIP3    H125635   6.802   0.633   1.166  1.2939  0.8322  0.2140
 8557TIP3    H225636   6.809   0.512   1.256  1.1925  0.4884 -0.2351
 8558TIP3   OH225637   1.097   0.456   4.066 -0.4353 -0.6511 -0.1852
 8558TIP3    H125638   1.130   0.370   4.041 -1.2461 -0.6067 -1.4787
 8558TIP3    H225639   1.138   0.516   4.005  2.8027  0.4382  2.7390
 8559TIP3   OH225640   4.841   4.976   2.181 -0.4174 -0.6373  0.3184
 8559TIP3    H125641   4.785   5.014   2.248 -1.5183 -0.4258 -0.6915
 8559TIP3    H225642   4.930   5.003   2.205 -1.0393  1.5760  0.2743
 8560TIP3   OH225643   4.315   2.853   0.824 -0.3438 -0.1970 -0.0010
 8560TIP3    H125644   4.369   2.865   0.747  0.4541  0.0165  0.5788
 8560TIP3    H225645   4.255   2.782   0.802 -0.4228  0.1629 -0.9669
 8561TIP3   OH225646   4.184   4.638   3.788 -0.0585 -0.1239  0.0716
 8561TIP3    H125647   4.188   4.731   3.768 -1.2938 -0.0091  0.3112
 8561TIP3    H225648   4.173   4.634   3.883 -2.3417 -0.4195 -0.1608
 8562TIP3   OH225649   2.556   3.225   4.029 -0.2092  0.2461  0.0272
 8562TIP3    H125650   2.492   3.202   3.962 -0.0249  1.8855 -0.7464
 8562TIP3    H225651   2.505   3.235   4.109 -0.4908 -1.2864  0.0794
 8563TIP3   OH225652   3.761   3.957   0.923  0.6990  0.1311  0.8958
 8563TIP3    H125653   3.789   4.037   0.967  0.7073  0.3512  0.4933
 8563TIP3    H225654   3.795   3.887   0.978 -0.3229  0.3926  1.8920
 8564TIP3   OH225655   3.590   6.383   0.154  0.4439  0.3215  0.1428
 8564TIP3    H125656   3.589   6.392   0.059 -0.8124 -1.0382 -0.0181
 8564TIP3    H225657   3.661   6.439   0.183 -0.2116  2.0846 -1.4489
 8565TIP3   OH225658   2.141   6.345   0.537 -0.7092  0.1285 -0.1468
 8565TIP3    H125659   2.108   6.291   0.609 -0.4642 -1.7851 -1.3834
 8565TIP3    H225660   2.084   6.323   0.463  0.0563  0.8052 -0.9576
 8566TIP3   OH225661   4.690   1.386   2.300  0.0207  0.7878  0.3214
 8566TIP3    H125662   4.720   1.296   2.311 -0.4471  0.6775  0.7361
 8566TIP3    H225663   4.595   1.381   2.313  0.1496  1.5597  1.7259
 8567TIP3   OH225664   0.993   5.509   2.872  0.6668 -0.1754  0.3740
 8567TIP3    H125665   0.986   5.604   2.870  1.5728  0.0133  3.2373
 8567TIP3    H225666   1.086   5.491   2.856  0.8797 -0.4266  1.7718
 8568TIP3   OH225667   0.198   5.477   1.185 -0.0247  0.3060 -0.0685
 8568TIP3    H125668   0.205   5.571   1.170 -0.3352  0.1434 -1.3495
 8568TIP3    H225669   0.182   5.440   1.099  0.5804 -0.9789  0.3369
 8569TIP3   OH225670   0.629   3.049   0.644  0.0332  0.0393  0.1842
 8569TIP3    H125671   0.551   3.092   0.608  0.7076  1.3621  0.2057
 8569TIP3    H225672   0.644   2.974   0.586 -1.2390 -0.2265  0.1816
 8570TIP3   OH225673   5.919   0.282   1.562  0.1169  0.1772 -0.1922
 8570TIP3    H125674   5.841   0.320   1.601  0.2451 -0.1356  0.3956
 8570TIP3    H225675   5.888   0.204   1.516  0.2911 -1.1749  1.7976
 8571TIP3   OH225676   7.147   5.991   2.660  0.2878 -0.3995 -0.5378
 8571TIP3    H125677   7.092   6.038   2.597 -0.2037 -0.4505 -0.1488
 8571TIP3    H225678   7.174   6.058   2.723  0.5435 -0.4049 -0.6414
 8572TIP3   OH225679   2.301   6.087   1.284  0.4464 -0.0129 -0.3770
 8572TIP3    H125680   2.263   6.173   1.266  1.2589  0.2875 -0.7060
 8572TIP3    H225681   2.275   6.067   1.374  1.8831  1.4885  0.4229
 8573TIP3   OH225682   2.940   4.322   2.442 -0.7300  0.3923  0.4492
 8573TIP3    H125683   2.877   4.312   2.371 -0.7390 -0.2284  0.5375
 8573TIP3    H225684   3.015   4.367   2.402  0.2216 -1.8965 -0.5750
 8574TIP3   OH225685   6.132   2.725   4.642 -0.0713 -0.3115 -0.3964
 8574TIP3    H125686   6.166   2.744   4.554  1.1720  2.2319  0.5340
 8574TIP3    H225687   6.194   2.662   4.678  0.2768 -0.2249 -0.8279
 8575TIP3   OH225688   6.131   4.611   2.662  0.0654 -0.1167 -0.0859
 8575TIP3    H125689   6.129   4.679   2.729 -1.0289  0.9212 -1.1148
 8575TIP3    H225690   6.041   4.609   2.628  0.2643 -1.5579 -0.6026
 8576TIP3   OH225691   4.028   3.299   3.694 -0.6075 -0.3291 -0.4172
 8576TIP3    H125692   3.952   3.357   3.697  0.5088  1.1740  0.9934
 8576TIP3    H225693   4.054   3.297   3.602 -2.0115 -0.4302 -0.8253
 8577TIP3   OH225694   0.380   3.292   2.587  0.1111  0.2397  0.6749
 8577TIP3    H125695   0.446   3.296   2.517 -0.4339 -0.1837  0.1255
 8577TIP3    H225696   0.355   3.383   2.602  0.7364  0.3933  0.8117
 8578TIP3   OH225697   1.229   1.950   5.715  0.0560 -0.1601  0.2947
 8578TIP3    H125698   1.166   2.005   5.668  0.0321 -1.0553 -0.7488
 8578TIP3    H225699   1.314   1.973   5.676  0.1555 -0.2365  0.4671
 8579TIP3   OH225700   2.596   3.691   3.308 -0.3080 -0.9773  0.2284
 8579TIP3    H125701   2.688   3.678   3.330  0.4406  1.7499 -0.7905
 8579TIP3    H225702   2.585   3.646   3.224  0.5568 -0.0544 -0.4021
 8580TIP3   OH225703   3.350   0.523   4.100  0.1596 -0.1426  0.0553
 8580TIP3    H125704   3.331   0.430   4.095 -0.2940 -0.0899  0.6570
 8580TIP3    H225705   3.317   0.550   4.186  0.2170  0.5836 -0.1384
 8581TIP3   OH225706   6.930   2.876   1.186  0.2095  0.9796 -0.0233
 8581TIP3    H125707   6.944   2.836   1.271  3.2872  1.2965 -0.2586
 8581TIP3    H225708   6.845   2.919   1.193 -1.4484 -2.2254  1.5071
 8582TIP3   OH225709   3.039   5.335   4.533 -0.3066 -0.8195 -0.3141
 8582TIP3    H125710   3.129   5.304   4.523  0.0140  0.3270 -1.1025
 8582TIP3    H225711   3.029   5.349   4.628  0.9079  0.6227 -0.3593
 8583TIP3   OH225712   1.125   0.443   2.865 -0.5158 -0.5701 -0.2202
 8583TIP3    H125713   1.157   0.398   2.786 -2.5308  0.7374 -1.8951
 8583TIP3    H225714   1.177   0.523   2.869 -1.5786  0.2198 -1.3293
 8584TIP3   OH225715   0.762   3.079   0.294  0.7552 -0.2480  0.6920
 8584TIP3    H125716   0.817   3.151   0.326 -0.5380  0.4440  1.4943
 8584TIP3    H225717   0.790   3.065   0.204 -0.2376  2.6728 -0.2011
 8585TIP3   OH225718   6.924   1.535   2.307  0.2924  0.0367 -0.0931
 8585TIP3    H125719   6.873   1.455   2.296 -0.3229  0.5988 -1.6775
 8585TIP3    H225720   7.015   1.506   2.305  0.0701 -0.7864  0.9794
 8586TIP3   OH225721   0.720   2.738   4.999  0.3740  0.2146  0.8948
 8586TIP3    H125722   0.694   2.711   4.911  0.1390 -0.3163  1.1246
 8586TIP3    H225723   0.648   2.792   5.030  1.6783  2.8415 -0.3138
 8587TIP3   OH225724   4.638   1.523   2.710  0.2252 -0.1635 -0.3113
 8587TIP3    H125725   4.671   1.485   2.791 -0.4611  0.5035  0.3016
 8587TIP3    H225726   4.714   1.565   2.670  0.5989 -0.6368 -0.0994
 8588TIP3   OH225727   3.836   4.546   0.887 -0.2041 -0.4956 -0.5473
 8588TIP3    H125728   3.858   4.635   0.916 -0.7504 -0.1770 -1.1102
 8588TIP3    H225729   3.792   4.557   0.803  2.1597 -1.4531 -2.0403
 8589TIP3   OH225730   2.672   5.427   5.818 -0.2384  0.7206 -0.6042
 8589TIP3    H125731   2.762   5.422   5.852 -0.4694  0.4055 -0.0288
 8589TIP3    H225732   2.645   5.335   5.811 -0.0235  0.7518 -2.1205
 8590TIP3   OH225733   4.024   6.001   0.868 -0.3561  0.5715 -0.6275
 8590TIP3    H125734   3.988   6.010   0.779 -0.4995 -0.3635 -0.6682
 8590TIP3    H225735   4.115   6.033   0.860  0.4250 -1.7107 -1.6849
 8591TIP3   OH225736   0.086   2.377   3.616 -0.6772 -0.0360 -0.6920
 8591TIP3    H125737   0.072   2.283   3.622  0.6539 -0.2104  0.2173
 8591TIP3    H225738   0.145   2.388   3.541 -2.4163  0.3092 -2.0784
 8592TIP3   OH225739   2.952   6.003   4.440 -0.2961 -0.1183 -0.4797
 8592TIP3    H125740   2.874   6.002   4.385 -2.1489 -0.5269  1.9421
 8592TIP3    H225741   2.919   5.986   4.529  2.6060 -0.6917  0.6238
 8593TIP3   OH225742   4.632   3.825   4.151 -0.3603 -0.1487  0.1382
 8593TIP3    H125743   4.581   3.891   4.103 -1.7495  0.2982  2.0950
 8593TIP3    H225744   4.692   3.876   4.205  0.8404 -0.6341 -0.6973
 8594TIP3   OH225745   1.021   4.712   5.232 -0.2785  0.2008 -0.5610
 8594TIP3    H125746   0.978   4.746   5.154 -0.1955 -0.5594 -0.9496
 8594TIP3    H225747   1.010   4.617   5.226 -1.0267  0.1729  0.7975
 8595TIP3   OH225748   2.543   0.392   4.384 -0.0921 -0.0271 -0.0363
 8595TIP3    H125749   2.545   0.297   4.377  0.8079 -0.0264  0.0669
 8595TIP3    H225750   2.451   0.416   4.369 -0.4817 -0.9653  0.7848
 8596TIP3   OH225751   4.519   3.741   0.973 -0.3548 -0.0083 -0.6170
 8596TIP3    H125752   4.490   3.817   1.024 -0.8178  0.8547 -2.1034
 8596TIP3    H225753   4.504   3.766   0.882  0.1224 -1.6345 -1.1795
 8597TIP3   OH225754   6.669   6.038   5.121  0.2280 -0.1040  0.7617
 8597TIP3    H125755   6.652   6.130   5.102 -0.7368 -0.4625 -0.1692
 8597TIP3    H225756   6.642   5.991   5.042 -0.7831 -1.3410  1.7875
 8598TIP3   OH225757   6.686   5.471   0.625  0.5030 -0.3620  0.0985
 8598TIP3    H125758   6.672   5.563   0.650 -1.5609  0.0149 -2.0819
 8598TIP3    H225759   6.769   5.471   0.578 -0.5188  0.8867 -1.8187
 8599TIP3   OH225760   0.065   6.442   4.798 -0.2861 -0.2089  0.3613
 8599TIP3    H125761   0.059   6.528   4.840 -0.9309 -0.0582 -0.0255
 8599TIP3    H225762   0.011   6.385   4.852  2.0478 -0.9723  2.0278
 8600TIP3   OH225763   5.634   0.343   4.119 -0.1444 -0.1644  0.5482
 8600TIP3    H125764   5.586   0.304   4.192  0.4237  1.2117  1.6932
 8600TIP3    H225765   5.567   0.375   4.060 -0.6224 -0.4745  0.9191
 8601TIP3   OH225766   2.813   5.190   2.305  0.2210 -0.3006  0.3233
 8601TIP3    H125767   2.764   5.155   2.379  0.3768 -0.9492  0.1270
 8601TIP3    H225768   2.748   5.239   2.254  0.4085  1.4441  1.6625
 8602TIP3   OH225769   6.108   3.393   3.739  0.0106 -0.0074 -0.8566
 8602TIP3    H125770   6.091   3.487   3.732 -3.3437 -0.4126  0.0514
 8602TIP3    H225771   6.132   3.381   3.831 -1.7187 -0.2464 -0.4077
 8603TIP3   OH225772   6.628   2.101   1.956  0.6868  0.8349 -0.0195
 8603TIP3    H125773   6.585   2.019   1.980  1.9137  1.0232  3.3374
 8603TIP3    H225774   6.560   2.168   1.967 -0.3070  0.4028 -2.7336
 8604TIP3   OH225775   4.245   4.950   0.296 -0.0777 -0.0017 -0.2808
 8604TIP3    H125776   4.312   4.981   0.236 -1.5527  1.1331 -1.4148
 8604TIP3    H225777   4.172   4.923   0.240 -1.0933  0.0952  0.9425
 8605TIP3   OH225778   6.689   2.732   0.585 -0.1282 -0.0485 -0.0865
 8605TIP3    H125779   6.704   2.748   0.492 -0.1309 -1.6263 -0.3867
 8605TIP3    H225780   6.767   2.686   0.615 -1.3162 -2.1515 -0.0277
 8606TIP3   OH225781   0.600   4.081   0.164  0.4336 -0.0661 -0.2358
 8606TIP3    H125782   0.643   3.996   0.154  0.6906  0.0669 -0.2593
 8606TIP3    H225783   0.533   4.082   0.095  0.1538 -0.4178  0.0250
 8607TIP3   OH225784  -0.021   2.904   5.321 -0.1318  0.2921  0.4961
 8607TIP3    H125785  -0.011   2.978   5.381 -0.3656  3.2732 -2.7901
 8607TIP3    H225786   0.060   2.903   5.270 -0.1758 -1.7283  0.3768
 8608TIP3   OH225787   6.165   6.487   5.442  0.5162  0.1175 -0.2991
 8608TIP3    H125788   6.088   6.452   5.396 -0.3814  0.8836  0.5653
 8608TIP3    H225789   6.135   6.500   5.532  1.6625  0.4577  0.0457
 8609TIP3   OH225790   6.964   3.083   4.929 -0.6095  0.8818  0.0011
 8609TIP3    H125791   6.874   3.064   4.904 -0.4204  1.0655 -0.8809
 8609TIP3    H225792   6.973   3.177   4.918  0.1380  0.6652 -1.5559
 8610TIP3   OH225793   5.505   6.811   5.427  0.7036 -0.1317  0.1420
 8610TIP3    H125794   5.474   6.736   5.375  2.7403 -0.5609 -0.5750
 8610TIP3    H225795   5.564   6.772   5.492 -1.1964  0.4961  2.3611
 8611TIP3   OH225796   0.214   4.697   1.664 -0.4962 -0.1643  0.3961
 8611TIP3    H125797   0.302   4.720   1.634 -0.8905 -1.5414 -2.0383
 8611TIP3    H225798   0.159   4.770   1.635 -0.3151  0.3338  1.2552
 8612TIP3   OH225799   4.256   5.653   0.631  0.2423  0.3842  0.3227
 8612TIP3    H125800   4.174   5.677   0.675 -1.3053 -1.5638 -1.2489
 8612TIP3    H225801   4.227   5.600   0.557  3.0478 -1.5535  0.4970
 8613TIP3   OH225802   2.416   2.593   4.195 -0.2457  0.4406 -0.1834
 8613TIP3    H125803   2.434   2.683   4.222 -1.3122  0.2643  1.2538
 8613TIP3    H225804   2.474   2.539   4.249  0.2829  0.2338 -0.9327
 8614TIP3   OH225805   1.180   2.737   1.629  0.4616  0.4854  0.4142
 8614TIP3    H125806   1.194   2.643   1.641 -0.3762  0.2656 -0.2408
 8614TIP3    H225807   1.101   2.743   1.575  0.3148  1.5791  0.7327
 8615TIP3   OH225808   2.193   5.885   3.885 -0.0773 -0.2287  0.2918
 8615TIP3    H125809   2.163   5.831   3.811 -2.4354  0.5396  0.6073
 8615TIP3    H225810   2.223   5.966   3.845 -0.0458 -0.3374  0.0932
 8616TIP3   OH225811   3.753   6.757   3.736 -0.3667  0.6797 -0.6896
 8616TIP3    H125812   3.756   6.851   3.753 -1.2251  0.7794 -1.0762
 8616TIP3    H225813   3.791   6.747   3.649 -0.9742  0.7576 -0.9688
 8617TIP3   OH225814   1.678   0.424   4.105  0.5062  0.4330 -0.0544
 8617TIP3    H125815   1.740   0.411   4.177 -0.9182  1.4886  1.4534
 8617TIP3    H225816   1.633   0.340   4.097  1.4204 -0.0322 -0.4979
 8618TIP3   OH225817   1.736   6.262   2.003 -0.3902 -0.3054  0.8158
 8618TIP3    H125818   1.806   6.261   1.938 -0.9901 -1.0158  0.1565
 8618TIP3    H225819   1.666   6.313   1.962 -0.7023 -0.5942  0.9827
 8619TIP3   OH225820   4.405   0.348   2.478  0.2107 -0.2765 -0.0870
 8619TIP3    H125821   4.336   0.289   2.509 -0.8350  2.7777  4.4140
 8619TIP3    H225822   4.358   0.419   2.434  0.8236  0.0156 -0.2762
 8620TIP3   OH225823   1.008   5.346   1.506  0.4584 -0.0060 -0.3602
 8620TIP3    H125824   1.037   5.277   1.566 -0.7747 -0.4946 -0.3034
 8620TIP3    H225825   0.923   5.375   1.541  1.2404  2.0440  0.0195
 8621TIP3   OH225826   6.236   5.384   1.762  0.6006 -0.2927 -0.4301
 8621TIP3    H125827   6.141   5.393   1.763  0.6899  1.1084 -1.7519
 8621TIP3    H225828   6.262   5.390   1.854 -0.3581  2.3420 -0.2544
 8622TIP3   OH225829   3.006   4.573   4.836  0.2829  0.6638 -0.3442
 8622TIP3    H125830   3.077   4.521   4.873  0.1542  0.8567  0.1807
 8622TIP3    H225831   2.939   4.573   4.903 -0.8418 -0.7504 -1.4105
 8623TIP3   OH225832   2.844   1.744   1.299 -0.1481 -0.0049  0.2318
 8623TIP3    H125833   2.776   1.753   1.232 -0.4014 -0.9557  0.3501
 8623TIP3    H225834   2.909   1.811   1.276 -0.2497 -0.2823 -0.9469
 8624TIP3   OH225835   1.717   1.676   4.458 -0.2175 -0.1662  0.0410
 8624TIP3    H125836   1.654   1.623   4.409  0.3201 -0.7078 -0.0778
 8624TIP3    H225837   1.758   1.614   4.519  0.0699  0.2220  0.2479
 8625TIP3   OH225838   2.218   0.447   3.610  0.4537 -0.4010 -0.4959
 8625TIP3    H125839   2.200   0.492   3.527  1.6293 -1.2041 -1.2189
 8625TIP3    H225840   2.218   0.354   3.588  1.0445 -0.6133  0.3516
 8626TIP3   OH225841   6.382   5.742   4.066 -0.4884  0.0787 -0.1554
 8626TIP3    H125842   6.471   5.756   4.098 -0.1305  0.2968 -1.2036
 8626TIP3    H225843   6.358   5.825   4.024 -0.4880 -0.5572 -1.4685
 8627TIP3   OH225844   0.552   1.105   2.672 -0.5122  0.0733  0.2134
 8627TIP3    H125845   0.619   1.173   2.664 -0.6291  0.2682  0.8400
 8627TIP3    H225846   0.506   1.126   2.754 -0.7024 -0.6198  0.2910
 8628TIP3   OH225847   1.438   6.044   1.958 -0.3692  0.1431 -0.0887
 8628TIP3    H125848   1.345   6.029   1.977 -0.6667  0.9411 -0.8341
 8628TIP3    H225849   1.437   6.099   1.879  0.7603 -1.5361 -1.3529
 8629TIP3   OH225850   6.736   3.268   3.435 -0.5818  0.0769 -0.5865
 8629TIP3    H125851   6.830   3.277   3.449 -0.8895  0.0627  1.9231
 8629TIP3    H225852   6.705   3.358   3.424 -0.4539  0.1980  0.0109
 8630TIP3   OH225853   0.494   0.690   3.997 -0.4716  0.5670 -0.1909
 8630TIP3    H125854   0.461   0.778   3.977  1.3082  1.4236  0.3797
 8630TIP3    H225855   0.549   0.668   3.922 -0.1800  0.3544  0.0835
 8631TIP3   OH225856   2.011   4.054   0.505 -0.3736  0.1862 -0.2545
 8631TIP3    H125857   1.975   3.966   0.494 -2.1591  0.8905 -0.3272
 8631TIP3    H225858   2.010   4.068   0.600 -1.0917  0.5025 -0.3001
 8632TIP3   OH225859   0.791   5.469   5.668  0.4200  0.4459  0.1000
 8632TIP3    H125860   0.780   5.489   5.575  0.3269 -0.9900 -0.2114
 8632TIP3    H225861   0.860   5.528   5.697 -0.3991  1.7981 -0.5618
 8633TIP3   OH225862   6.891   5.154   5.625  0.1425 -0.2044 -0.9067
 8633TIP3    H125863   6.863   5.240   5.655  1.2174  0.1634 -0.8952
 8633TIP3    H225864   6.816   5.119   5.578 -0.8492  0.0868  0.4159
 8634TIP3   OH225865   3.029   0.965   3.264  0.7356 -0.2813  0.3480
 8634TIP3    H125866   3.011   1.008   3.180  0.3442 -0.1932  0.4759
 8634TIP3    H225867   3.119   0.989   3.285  0.3819  0.8270  0.6324
 8635TIP3   OH225868   0.974   6.247   2.946 -0.4551 -0.2341  0.2254
 8635TIP3    H125869   0.910   6.188   2.987  0.7831 -1.3442  0.6473
 8635TIP3    H225870   1.007   6.301   3.018 -1.9900  1.4324 -0.2525
 8636TIP3   OH225871   2.905   1.583   3.393  0.2828 -0.0759 -0.5175
 8636TIP3    H125872   2.911   1.490   3.413  1.0149  0.3385  1.3330
 8636TIP3    H225873   2.973   1.598   3.328  0.9370 -0.6261  0.0320
 8637TIP3   OH225874   4.566   3.214   2.564 -0.1213 -0.8528 -0.1368
 8637TIP3    H125875   4.478   3.204   2.527 -0.2998 -1.1430  0.3555
 8637TIP3    H225876   4.619   3.149   2.518  0.1057  0.0915 -1.2495
 8638TIP3   OH225877   5.939   0.407   0.672 -0.7746 -0.2944 -0.1045
 8638TIP3    H125878   6.016   0.376   0.720 -0.6542 -1.3242 -0.9011
 8638TIP3    H225879   5.972   0.426   0.584 -1.3911 -0.5762 -0.4025
 8639TIP3   OH225880   0.583   2.979   1.431 -0.1548  0.0206 -0.5635
 8639TIP3    H125881   0.671   3.003   1.405 -0.6535  3.3467  0.3380
 8639TIP3    H225882   0.529   2.996   1.353 -0.3946  1.0474 -0.1851
 8640TIP3   OH225883   5.832   3.716   3.582  0.6253  0.0776 -0.7624
 8640TIP3    H125884   5.853   3.624   3.570 -0.6637 -0.1005 -1.9700
 8640TIP3    H225885   5.740   3.723   3.557  0.0238  1.2926  1.5087
 8641TIP3   OH225886   4.232   5.434   3.761  0.1018 -0.0935 -0.3879
 8641TIP3    H125887   4.306   5.445   3.821  1.7351 -0.4853 -2.2597
 8641TIP3    H225888   4.158   5.413   3.819  1.3327  0.6599  1.5694
 8642TIP3   OH225889   4.694   6.222   1.639  0.2367  0.4357  0.2512
 8642TIP3    H125890   4.700   6.162   1.565  0.4036 -1.7294  1.9061
 8642TIP3    H225891   4.627   6.286   1.613 -0.7973 -1.1341 -1.1829
 8643TIP3   OH225892   0.534   1.723   2.191  0.1383  0.5011 -0.0993
 8643TIP3    H125893   0.562   1.676   2.113  2.1415  0.7010  0.4500
 8643TIP3    H225894   0.517   1.812   2.160  0.8079  0.5496 -0.3518
 8644TIP3   OH225895   4.458   4.484   1.743  1.1199  0.0698  0.2559
 8644TIP3    H125896   4.429   4.560   1.693  1.7073 -0.1179 -0.3914
 8644TIP3    H225897   4.422   4.497   1.830  0.3504  0.5694 -0.1307
 8645TIP3   OH225898   1.611   0.211   5.457 -0.3207 -0.8576 -0.2449
 8645TIP3    H125899   1.698   0.204   5.418  0.5634  0.4870  1.3379
 8645TIP3    H225900   1.621   0.172   5.544 -0.7701  0.9105  0.6509
 8646TIP3   OH225901   3.579   0.819   2.042 -0.4163 -0.2713  0.4746
 8646TIP3    H125902   3.669   0.838   2.069  0.3158 -1.7230 -0.7191
 8646TIP3    H225903   3.580   0.832   1.947 -1.1107 -1.4818  0.2811
 8647TIP3   OH225904   6.006   5.135   3.012 -0.0739  0.1558  0.8115
 8647TIP3    H125905   5.920   5.128   2.970  0.3863 -1.4151  0.0599
 8647TIP3    H225906   6.054   5.198   2.958 -0.2115 -0.2081  0.2571
 8648TIP3   OH225907   3.636   3.937   0.216 -0.5587  0.9804 -0.0781
 8648TIP3    H125908   3.576   3.943   0.290  0.1063  0.5956  0.5059
 8648TIP3    H225909   3.705   3.877   0.246  0.3957  1.8198 -0.5305
 8649TIP3   OH225910   1.556   1.955   1.805  0.4605 -0.3478 -0.5433
 8649TIP3    H125911   1.539   1.873   1.758 -1.0171 -1.3305  1.5380
 8649TIP3    H225912   1.627   1.933   1.866 -0.1068 -0.1723  0.1946
 8650TIP3   OH225913   2.839   5.399   0.498  0.1535 -0.1095  0.2199
 8650TIP3    H125914   2.893   5.408   0.420  0.7255 -0.2555  0.5886
 8650TIP3    H225915   2.798   5.312   0.489  0.3102 -0.1748  0.1409
 8651TIP3   OH225916   6.986   0.690   3.567  0.2075  0.2056 -0.3410
 8651TIP3    H125917   6.913   0.729   3.520 -0.1300 -1.3649 -1.1827
 8651TIP3    H225918   6.946   0.647   3.642  0.7989  3.1706  1.8300
 8652TIP3   OH225919   0.251   0.526   5.741 -0.1808 -0.8728  0.4934
 8652TIP3    H125920   0.238   0.573   5.824  1.3448  0.1808  0.1664
 8652TIP3    H225921   0.271   0.436   5.767  0.8951 -0.4168  1.3229
 8653TIP3   OH225922   6.416   6.232   0.896 -0.1065  0.7497  0.0753
 8653TIP3    H125923   6.322   6.219   0.884  0.1712 -0.2983 -1.2025
 8653TIP3    H225924   6.430   6.325   0.877 -1.0235  1.1901  1.4179
 8654TIP3   OH225925   0.198   1.625   3.377 -0.5241  0.8495 -0.0227
 8654TIP3    H125926   0.193   1.673   3.460  1.3691 -0.2203  0.8010
 8654TIP3    H225927   0.168   1.537   3.399  0.9835  0.2714 -0.1721
 8655TIP3   OH225928   7.145   3.026   0.307 -0.8305  0.7152  0.4741
 8655TIP3    H125929   7.090   3.072   0.243 -1.1351 -0.5938 -0.2554
 8655TIP3    H225930   7.130   2.933   0.288  1.2240  0.3150  0.6051
 8656TIP3   OH225931   1.772   2.068   1.241  0.4566  0.2470 -0.0485
 8656TIP3    H125932   1.754   1.986   1.194  1.0970 -0.4314  0.8527
 8656TIP3    H225933   1.688   2.112   1.246  0.5133  0.8128 -2.6625
 8657TIP3   OH225934   5.798   5.812   3.347 -0.1771  0.1880  0.5219
 8657TIP3    H125935   5.887   5.775   3.346  0.1294  0.8744 -1.1357
 8657TIP3    H225936   5.741   5.736   3.343  0.1940 -0.4016  3.4849
 8658TIP3   OH225937   4.259   2.854   2.474  0.3434 -0.0583 -0.6442
 8658TIP3    H125938   4.183   2.911   2.467  1.0503  1.0976  0.5202
 8658TIP3    H225939   4.233   2.773   2.430 -1.0445  0.7975 -1.4773
 8659TIP3   OH225940   3.158   4.388   1.721 -0.0673 -0.1144 -0.0824
 8659TIP3    H125941   3.233   4.406   1.664 -1.2992 -2.4264 -2.6758
 8659TIP3    H225942   3.195   4.334   1.791  1.3315  2.0245  0.9124
 8660TIP3   OH225943   2.790   1.315   3.135  0.1415 -1.0987 -0.3556
 8660TIP3    H125944   2.738   1.391   3.111  1.0312 -0.7271 -1.1384
 8660TIP3    H225945   2.803   1.325   3.230  0.7004  0.0144 -0.5319
 8661TIP3   OH225946   4.937   1.535   0.780 -0.1466  0.3384 -1.2398
 8661TIP3    H125947   4.909   1.622   0.749  1.5859  0.7564 -1.7335
 8661TIP3    H225948   4.858   1.497   0.817 -1.8627  0.7131 -4.1872
 8662TIP3   OH225949   2.494   6.259   3.207  0.0748  0.2488  0.4509
 8662TIP3    H125950   2.546   6.257   3.127 -1.0348 -0.8568 -0.2900
 8662TIP3    H225951   2.558   6.256   3.278  1.0477 -0.3548 -0.4228
 8663TIP3   OH225952   4.410   0.942   3.348 -0.0755 -0.0423  0.2650
 8663TIP3    H125953   4.373   1.011   3.402 -0.8403  0.0021 -0.3007
 8663TIP3    H225954   4.395   0.861   3.397 -1.9427 -0.1673 -0.4269
 8664TIP3   OH225955   1.402   2.421   3.970 -0.0192  0.2269  0.4752
 8664TIP3    H125956   1.369   2.439   4.058  0.4720  0.2652  0.6559
 8664TIP3    H225957   1.414   2.507   3.930 -1.1111  0.1892  0.0352
 8665TIP3   OH225958   1.489   2.578   5.130 -0.2300 -0.1704  0.2887
 8665TIP3    H125959   1.558   2.512   5.116 -0.0258 -0.0410  0.6670
 8665TIP3    H225960   1.512   2.619   5.214 -0.2943  0.4548  0.0041
 8666TIP3   OH225961   3.486   3.693   2.950 -0.2964 -0.1100 -0.5927
 8666TIP3    H125962   3.418   3.761   2.945  0.8287  1.0488 -0.7399
 8666TIP3    H225963   3.499   3.680   3.044 -0.1602  0.2691 -0.5550
 8667TIP3   OH225964   6.935   4.678   4.769 -0.4744  0.0093  0.4880
 8667TIP3    H125965   6.953   4.659   4.677 -0.6103 -0.5431  0.5718
 8667TIP3    H225966   6.955   4.771   4.778 -0.7504  0.1436 -0.1682
 8668TIP3   OH225967   6.225   6.250   3.266  0.3581 -0.4987 -0.3189
 8668TIP3    H125968   6.151   6.306   3.242  0.6832 -0.6246 -1.7181
 8668TIP3    H225969   6.197   6.207   3.346 -0.8166 -0.0318 -0.4501
 8669TIP3   OH225970   6.140   3.520   4.671 -0.4809  0.5109  0.2184
 8669TIP3    H125971   6.132   3.488   4.761  0.8320 -0.7473 -0.0681
 8669TIP3    H225972   6.229   3.555   4.667 -1.2994  2.6888  0.0144
 8670TIP3   OH225973   3.762   5.161   1.863  0.4231 -0.0505  0.3857
 8670TIP3    H125974   3.845   5.176   1.909 -0.0380  2.8407  0.4464
 8670TIP3    H225975   3.724   5.085   1.906  3.4125 -2.0764 -0.2633
 8671TIP3   OH225976   1.797   2.026   3.243  1.2345  0.4396  0.1717
 8671TIP3    H125977   1.734   2.026   3.171  0.5728  2.0827  0.7033
 8671TIP3    H225978   1.879   2.054   3.203  0.8865  1.2817  0.0377
 8672TIP3   OH225979   2.136   2.760   2.320  0.1167 -0.4494 -0.0169
 8672TIP3    H125980   2.115   2.684   2.374 -0.1377 -1.0327 -0.9097
 8672TIP3    H225981   2.051   2.800   2.301  0.1093 -0.7739 -0.7139
 8673TIP3   OH225982   2.517   5.444   3.765 -0.2446  0.9854  0.5155
 8673TIP3    H125983   2.498   5.376   3.831  0.3492  0.6987  0.3964
 8673TIP3    H225984   2.438   5.498   3.763 -0.1501  1.2004  1.7173
 8674TIP3   OH225985   3.907   5.586   0.030  1.1569  0.3417 -0.6277
 8674TIP3    H125986   3.943   5.578   0.118 -0.4394 -0.0817  0.0144
 8674TIP3    H225987   3.932   5.505  -0.014 -1.9830 -1.7380  0.9946
 8675TIP3   OH225988   2.572   2.927   2.376 -0.0819 -0.0813 -0.0137
 8675TIP3    H125989   2.495   2.869   2.378  0.3123 -0.6036  0.2488
 8675TIP3    H225990   2.639   2.876   2.329  1.1311 -0.9487  2.4853
 8676TIP3   OH225991   1.152   2.278   4.546 -0.2981 -0.6683  0.0549
 8676TIP3    H125992   1.211   2.237   4.482 -0.0058  0.2158 -0.2477
 8676TIP3    H225993   1.179   2.240   4.630  0.4292 -0.5833 -0.1313
 8677TIP3   OH225994   3.554   0.331   4.766  0.5937  0.2827 -0.1173
 8677TIP3    H125995   3.497   0.323   4.690 -1.1438 -1.1026  1.2482
 8677TIP3    H225996   3.629   0.275   4.746 -0.8198 -1.7489 -0.0172
 8678TIP3   OH225997   6.665   2.309   5.419  0.5547 -0.1036  0.2173
 8678TIP3    H125998   6.605   2.287   5.348 -0.9343 -0.4712  1.5309
 8678TIP3    H225999   6.688   2.401   5.403  2.3951 -0.8645 -2.1814
 8679TIP3   OH226000   6.357   2.146   1.118  0.2641  0.3018  0.2649
 8679TIP3    H126001   6.396   2.137   1.031  1.4012 -0.9999  0.8785
 8679TIP3    H226002   6.339   2.240   1.126  1.9397  0.7430 -0.6285
 8680TIP3   OH226003   1.487   2.635   4.829  0.0976 -0.1213  0.1731
 8680TIP3    H126004   1.497   2.636   4.924 -1.2966 -1.0414  0.3625
 8680TIP3    H226005   1.442   2.717   4.809  0.3748  0.0636  0.3064
 8681TIP3   OH226006   0.112   0.227   2.792  0.0568 -0.4912 -0.7410
 8681TIP3    H126007   0.148   0.273   2.717 -0.2929  1.0807  0.0178
 8681TIP3    H226008   0.184   0.172   2.823  1.0388  0.7755 -0.6961
 8682TIP3   OH226009   0.493   5.569   5.101 -0.0568 -0.4028  0.4521
 8682TIP3    H126010   0.509   5.476   5.117  0.3094 -0.3122  0.6145
 8682TIP3    H226011   0.418   5.570   5.041 -1.5373 -0.7586  2.1928
 8683TIP3   OH226012   1.581   5.014   0.031 -0.3366  0.1596  0.2384
 8683TIP3    H126013   1.604   4.923   0.051  1.4876  0.7037  0.8513
 8683TIP3    H226014   1.617   5.029  -0.056  0.0093  0.4882  0.4336
 8684TIP3   OH226015   4.450   6.158   2.684  0.0991 -0.3541  0.5587
 8684TIP3    H126016   4.387   6.100   2.641  1.5696 -3.3154  2.0462
 8684TIP3    H226017   4.404   6.190   2.761  0.6230 -3.7958  2.5471
 8685TIP3   OH226018   0.382   0.679   5.543 -0.0604  0.1679 -0.0251
 8685TIP3    H126019   0.342   0.616   5.604 -1.1311 -0.0440 -0.9146
 8685TIP3    H226020   0.426   0.742   5.600  0.3184 -0.9014  0.9190
 8686TIP3   OH226021   3.038   5.014   1.411  0.3896  0.3815 -0.2723
 8686TIP3    H126022   2.950   4.996   1.442  0.8116  0.4934  1.0920
 8686TIP3    H226023   3.090   4.941   1.443  0.7445  0.1453 -1.3470
 8687TIP3   OH226024   0.456   1.014   3.055 -0.5536 -0.0469  1.1360
 8687TIP3    H126025   0.530   0.993   2.998 -0.5403  2.3064  0.2094
 8687TIP3    H226026   0.380   0.977   3.010 -0.4571  1.2212 -0.1297
 8688TIP3   OH226027   6.660   5.895   5.738  0.4693  0.7264  0.3852
 8688TIP3    H126028   6.631   5.804   5.744 -0.4963  0.7366 -2.4120
 8688TIP3    H226029   6.726   5.894   5.668 -0.6485  2.3410 -0.7714
 8689TIP3   OH226030   1.272   3.123   0.600 -0.2311 -0.4472 -0.3583
 8689TIP3    H126031   1.314   3.074   0.671  0.3459  0.2969 -0.1724
 8689TIP3    H226032   1.319   3.206   0.597 -2.3678  0.8775  0.5676
 8690TIP3   OH226033   3.057   4.442   0.716  0.0859  0.0417 -0.3449
 8690TIP3    H126034   3.143   4.471   0.687  0.0808  0.5506  0.1312
 8690TIP3    H226035   3.001   4.520   0.709  0.2481  0.4115  1.6734
 8691TIP3   OH226036   6.425   2.352   5.214 -0.0136 -0.3265  0.5435
 8691TIP3    H126037   6.432   2.336   5.120  0.2025  1.8445  0.1510
 8691TIP3    H226038   6.337   2.324   5.237 -0.9714  1.3705 -0.8326
 8692TIP3   OH226039   2.231   2.421   4.099  0.3187 -0.4667  0.0266
 8692TIP3    H126040   2.151   2.438   4.149 -0.4205 -0.4441 -1.1266
 8692TIP3    H226041   2.296   2.479   4.139 -0.5958  0.5633  0.0951
 8693TIP3   OH226042   1.084   3.933   3.304  0.5893 -0.5619  0.4230
 8693TIP3    H126043   1.023   3.913   3.375  1.8807 -1.1541  1.4034
 8693TIP3    H226044   1.052   3.880   3.230 -0.0975 -0.8283  0.9002
 8694TIP3   OH226045   6.069   0.747   5.661 -0.0981  0.1426 -0.1378
 8694TIP3    H126046   6.038   0.735   5.751  0.3569 -2.7320 -0.2769
 8694TIP3    H226047   6.037   0.834   5.636 -3.1606 -0.3277  1.6308
 8695TIP3   OH226048   1.402   4.942   4.068 -0.5620  0.1000 -0.2320
 8695TIP3    H126049   1.429   4.897   4.148  0.0621  1.1425  0.1613
 8695TIP3    H226050   1.451   5.024   4.069 -3.4037  1.9368  0.2735
 8696TIP3   OH226051   4.998   6.708   2.919  0.3785 -0.2226  0.3899
 8696TIP3    H126052   4.949   6.627   2.933  0.3723 -0.3849 -0.4983
 8696TIP3    H226053   5.061   6.711   2.991 -0.4172 -0.3970  1.1112
 8697TIP3   OH226054   6.051   4.746   5.453  0.1515  0.4514 -0.0018
 8697TIP3    H126055   5.990   4.706   5.515  0.6074  0.8242  0.6957
 8697TIP3    H226056   6.138   4.720   5.483  0.3558 -0.2136 -1.0872
 8698TIP3   OH226057   3.707   0.081   5.394 -0.4610 -0.5294 -0.8103
 8698TIP3    H126058   3.761   0.017   5.441  0.1788 -1.7918 -3.1004
 8698TIP3    H226059   3.636   0.029   5.358  0.6159 -0.2368 -3.5772
 8699TIP3   OH226060   2.555   6.489   0.051 -0.5833  0.3396  0.3563
 8699TIP3    H126061   2.650   6.498   0.057 -0.5689 -0.2478  1.1505
 8699TIP3    H226062   2.534   6.415   0.107 -1.2747 -0.9528 -1.4944
 8700TIP3   OH226063   0.988   5.309   2.459 -0.1936  0.3442 -0.0794
 8700TIP3    H126064   1.051   5.270   2.520 -0.0157 -0.6027 -0.8368
 8700TIP3    H226065   0.904   5.304   2.506 -0.1462 -0.8335 -0.0711
 8701TIP3   OH226066   1.701   6.057   5.266  0.5298 -0.8371  0.2402
 8701TIP3    H126067   1.696   6.089   5.356 -1.4935 -1.7070  0.5161
 8701TIP3    H226068   1.625   6.096   5.223  0.0169 -2.4106 -0.3583
 8702TIP3   OH226069   4.022   2.648   5.185  0.1254 -0.9420  0.3965
 8702TIP3    H126070   3.977   2.699   5.118  0.3823 -1.0658  0.1291
 8702TIP3    H226071   3.956   2.635   5.253  0.4048  0.8766  1.0875
 8703TIP3   OH226072   3.044   3.799   3.267 -0.4469 -0.0421  0.5678
 8703TIP3    H126073   3.094   3.815   3.347 -2.8755 -0.2560  2.2399
 8703TIP3    H226074   2.973   3.863   3.270  0.0981  0.8359 -2.1601
 8704TIP3   OH226075   4.587   3.971   0.249 -0.6684 -0.1858  0.4326
 8704TIP3    H126076   4.497   3.959   0.280  0.4032 -1.6078  3.4270
 8704TIP3    H226077   4.631   3.888   0.270  1.2417  0.2744 -1.4243
 8705TIP3   OH226078   6.654   0.072   1.603 -0.1908  0.1443  0.2184
 8705TIP3    H126079   6.586   0.017   1.640 -0.9967 -0.2042 -1.6440
 8705TIP3    H226080   6.629   0.161   1.625 -2.5839  0.2146 -2.3191
 8706TIP3   OH226081   0.198   2.095   0.535 -0.6983  0.1734  0.4376
 8706TIP3    H126082   0.242   2.102   0.450 -1.4665  1.3496  0.1084
 8706TIP3    H226083   0.150   2.178   0.544 -0.5403  0.1187  2.0747
 8707TIP3   OH226084   6.694   5.923   0.299  0.1488 -0.6967 -0.5059
 8707TIP3    H126085   6.786   5.926   0.275  0.3062  0.3485  0.1695
 8707TIP3    H226086   6.686   5.984   0.372 -1.0653 -0.8228 -0.5118
 8708TIP3   OH226087   1.214   2.926   5.331  0.0936  0.7802  0.2737
 8708TIP3    H126088   1.124   2.945   5.305  0.2480 -0.2895 -1.1003
 8708TIP3    H226089   1.264   3.003   5.303 -0.2124  0.9182  0.1051
 8709TIP3   OH226090   2.028   4.499   3.746 -0.2865 -0.2869 -0.0529
 8709TIP3    H126091   2.104   4.557   3.754 -0.9184  0.5086  0.3640
 8709TIP3    H226092   1.973   4.542   3.679 -1.2069  0.1273  0.9317
 8710TIP3   OH226093   0.744   6.225   4.669 -0.1622 -0.2658  0.2914
 8710TIP3    H126094   0.718   6.267   4.750 -1.4477 -0.6885  0.1193
 8710TIP3    H226095   0.776   6.139   4.695  1.5659  0.4084  0.5464
 8711TIP3   OH226096   7.012   6.324   5.655 -0.5289 -0.3616 -0.0282
 8711TIP3    H126097   7.059   6.244   5.633 -0.7366 -0.9864  1.6458
 8711TIP3    H226098   6.923   6.309   5.624 -0.2457 -0.2056 -0.9419
 8712TIP3   OH226099   2.783   6.416   1.546 -0.1573 -0.0749 -0.0935
 8712TIP3    H126100   2.776   6.415   1.641  1.9543 -0.4742  0.1079
 8712TIP3    H226101   2.783   6.323   1.522 -0.2436  0.0150 -0.4416
 8713TIP3   OH226102   3.362   5.300   0.520 -0.6994  0.1987  0.2701
 8713TIP3    H126103   3.293   5.246   0.480 -0.5940  1.1034 -1.2247
 8713TIP3    H226104   3.346   5.388   0.486  0.8590  0.5402  0.3328
 8714TIP3   OH226105   1.231   2.599   2.187  0.5461  0.3754  0.3121
 8714TIP3    H126106   1.223   2.686   2.150 -1.1115  0.0949 -0.1102
 8714TIP3    H226107   1.240   2.613   2.281 -0.1299  1.0130  0.2938
 8715TIP3   OH226108   3.080   2.273   5.157  0.3029 -0.4697 -0.0800
 8715TIP3    H126109   3.081   2.325   5.237  1.2936 -0.2061 -0.2526
 8715TIP3    H226110   3.115   2.188   5.182 -0.2754 -0.7078 -0.0430
 8716TIP3   OH226111   2.267   4.172   1.284  0.0171  0.1458  0.2087
 8716TIP3    H126112   2.243   4.233   1.353  0.7284  1.7160 -0.8530
 8716TIP3    H226113   2.263   4.224   1.204  1.9737 -0.8328 -0.5968
 8717TIP3   OH226114   0.165   1.135   4.984 -0.3695  1.0148  0.5928
 8717TIP3    H126115   0.256   1.142   5.013 -0.2690  0.9641  0.2938
 8717TIP3    H226116   0.163   1.181   4.900 -0.9032  2.1581  1.2070
 8718TIP3   OH226117   3.059   3.222   4.033 -0.5917  0.3204  0.8809
 8718TIP3    H126118   3.095   3.189   4.116  1.4791 -0.5249 -0.2744
 8718TIP3    H226119   3.134   3.224   3.974 -1.8502  1.7176 -0.7561
 8719TIP3   OH226120   5.100   1.808   2.742 -0.2607  0.0849 -0.2516
 8719TIP3    H126121   5.149   1.837   2.820 -0.7869  1.0427 -0.2642
 8719TIP3    H226122   5.164   1.808   2.672  0.3388 -1.2423  0.2458
 8720TIP3   OH226123   3.023   0.322   1.768 -0.5923  0.1522  0.0464
 8720TIP3    H126124   2.930   0.323   1.748 -0.5632  0.5377 -0.0807
 8720TIP3    H226125   3.029   0.282   1.854 -0.7505 -1.1842 -0.5368
 8721TIP3   OH226126   4.251   3.684   0.410 -0.4095 -0.4081  0.2683
 8721TIP3    H126127   4.248   3.637   0.327  1.3670  0.7704 -0.4996
 8721TIP3    H226128   4.322   3.643   0.459 -1.1030 -0.7480  1.0303
 8722TIP3   OH226129   2.828   4.187   1.129 -0.0249 -0.0364 -0.4102
 8722TIP3    H126130   2.878   4.216   1.053 -0.5330 -1.3733 -1.2932
 8722TIP3    H226131   2.893   4.151   1.189  0.1510 -1.4250 -1.3899
 8723TIP3   OH226132   3.027   0.800   2.322 -0.2145 -0.2740 -0.4340
 8723TIP3    H126133   2.936   0.773   2.337 -0.0407 -0.1619  0.9991
 8723TIP3    H226134   3.020   0.878   2.268 -0.8798 -1.1678 -1.6951
 8724TIP3   OH226135   1.274   5.792   5.488 -0.2299 -0.1163 -0.8865
 8724TIP3    H126136   1.316   5.826   5.409  0.1151  0.5274 -0.4352
 8724TIP3    H226137   1.337   5.808   5.558 -1.2777  1.0442 -0.1628
 8725TIP3   OH226138   0.395   5.993   2.719 -0.0234  0.0064  0.2936
 8725TIP3    H126139   0.447   6.072   2.704  0.6776  0.1019  2.7531
 8725TIP3    H226140   0.314   6.024   2.760 -1.4158 -0.2905 -2.0780
 8726TIP3   OH226141   0.254   4.939   4.114 -0.4718  0.3183 -0.3020
 8726TIP3    H126142   0.185   4.881   4.145  0.6974 -0.6358  0.6254
 8726TIP3    H226143   0.284   4.899   4.032  2.1923 -2.1320  1.6424
 8727TIP3   OH226144   3.893   1.335   5.268  0.4365  0.6386 -0.0946
 8727TIP3    H126145   3.799   1.325   5.282  0.3309  0.2453 -1.0050
 8727TIP3    H226146   3.928   1.359   5.354 -0.5645  1.3018  0.1404
 8728TIP3   OH226147   5.282   4.087   4.032 -0.4196  0.4261 -0.2544
 8728TIP3    H126148   5.369   4.127   4.031 -0.5491  0.7524  0.5700
 8728TIP3    H226149   5.281   4.030   3.955  0.4439  0.5768 -0.3913
 8729TIP3   OH226150   4.776   0.360   3.410 -0.3170  0.3627  0.2247
 8729TIP3    H126151   4.707   0.301   3.441  0.3487 -0.6213 -0.1413
 8729TIP3    H226152   4.729   0.439   3.383 -1.5949 -1.0450 -1.9942
 8730TIP3   OH226153   2.904   2.070   2.453 -0.0569  0.1943 -0.0932
 8730TIP3    H126154   2.935   2.097   2.540  0.1497  1.7016 -0.6016
 8730TIP3    H226155   2.809   2.064   2.463  0.0486 -0.6187  0.4826
 8731TIP3   OH226156   4.746   0.712   0.093 -0.2569  0.8166  0.6988
 8731TIP3    H126157   4.764   0.619   0.078  2.1683  1.2994  0.1312
 8731TIP3    H226158   4.770   0.727   0.184 -1.2728  0.7838  0.9836
 8732TIP3   OH226159   6.232   6.338   3.944  0.4318 -0.1197 -0.4069
 8732TIP3    H126160   6.208   6.430   3.948 -0.2083 -0.3157  0.7757
 8732TIP3    H226161   6.324   6.336   3.970  0.7196  0.2643 -1.3482
 8733TIP3   OH226162   1.033   6.612   5.033  0.3583 -0.0971  1.0460
 8733TIP3    H126163   0.970   6.549   5.068  0.8322 -0.4424  1.2878
 8733TIP3    H226164   1.069   6.570   4.955  1.0648 -0.3611  1.5064
 8734TIP3   OH226165   2.530   4.571   3.792 -0.1358 -0.3931 -0.0202
 8734TIP3    H126166   2.496   4.488   3.757 -1.4248 -0.4194  1.2164
 8734TIP3    H226167   2.498   4.638   3.732 -4.0790 -0.2059  1.9938
 8735TIP3   OH226168   4.268   5.817   1.401  0.2008  0.2151 -0.3208
 8735TIP3    H126169   4.187   5.801   1.448 -0.6611 -1.6717 -2.2884
 8735TIP3    H226170   4.298   5.903   1.433 -0.3548 -0.8175  3.4196
 8736TIP3   OH226171   3.148   6.762   4.384  0.0488 -0.1214  0.2108
 8736TIP3    H126172   3.054   6.770   4.366 -0.0316  1.2102  1.0586
 8736TIP3    H226173   3.156   6.682   4.435 -0.6143 -0.2787  0.0843
 8737TIP3   OH226174   4.246   6.153   2.471 -0.2631 -0.4857 -0.0337
 8737TIP3    H126175   4.165   6.119   2.509 -0.6140  1.3881  1.0344
 8737TIP3    H226176   4.240   6.131   2.378 -1.0863 -2.0144  0.3452
 8738TIP3   OH226177   1.666   1.583   0.105 -0.6086 -0.0114 -0.0740
 8738TIP3    H126178   1.671   1.650   0.036  0.3162 -0.6199 -0.6184
 8738TIP3    H226179   1.735   1.607   0.167 -1.5845  0.6637  0.7859
 8739TIP3   OH226180   1.381   3.269   1.891  0.0017  0.3762  0.0563
 8739TIP3    H126181   1.356   3.362   1.893  0.4846  0.5033  1.4822
 8739TIP3    H226182   1.334   3.233   1.816  0.0980  1.8506 -0.7598
 8740TIP3   OH226183   3.539   0.128   2.782 -0.3551  0.3147 -0.2092
 8740TIP3    H126184   3.532   0.043   2.738 -1.5668  1.2378 -1.9507
 8740TIP3    H226185   3.514   0.111   2.873 -1.1791 -1.0953 -0.6722
 8741TIP3   OH226186   3.943   5.796   2.082 -0.4488 -0.3618  0.2157
 8741TIP3    H126187   3.917   5.704   2.088  0.7769 -0.8707 -1.4948
 8741TIP3    H226188   3.863   5.841   2.054 -0.6773 -1.1896 -0.5546
 8742TIP3   OH226189   1.603   5.816   5.096  0.2058  0.0096  0.3784
 8742TIP3    H126190   1.648   5.871   5.159 -1.5045  2.7423 -0.6258
 8742TIP3    H226191   1.513   5.808   5.129 -0.0959 -0.5268 -0.5089
 8743TIP3   OH226192   3.730   2.787   4.143 -0.5158  0.0694 -0.5150
 8743TIP3    H126193   3.789   2.727   4.097  0.5076  0.2404  0.5387
 8743TIP3    H226194   3.741   2.766   4.235  1.0845  2.8940  0.0486
 8744TIP3   OH226195   2.535   0.397   1.131  0.4903  0.0531 -0.0812
 8744TIP3    H126196   2.580   0.408   1.048  0.5813 -1.5419 -0.2911
 8744TIP3    H226197   2.518   0.302   1.136 -0.5666  0.2813  1.1623
 8745TIP3   OH226198   1.461   0.231   3.364 -0.1005 -0.3212 -0.3798
 8745TIP3    H126199   1.516   0.300   3.402 -1.0971  0.3084 -0.0360
 8745TIP3    H226200   1.510   0.202   3.287  0.4109  0.6817 -0.4639
 8746TIP3   OH226201   1.049   1.913   1.320  0.0733  0.5782 -0.1235
 8746TIP3    H126202   1.026   1.931   1.411  1.8768 -0.9066  0.6950
 8746TIP3    H226203   1.046   1.817   1.314  1.8093  0.5547 -1.0814
 8747TIP3   OH226204   0.066   3.861   4.052  0.2423  0.5676 -0.2824
 8747TIP3    H126205   0.023   3.808   4.119 -0.4157 -0.2523 -1.3136
 8747TIP3    H226206   0.002   3.929   4.029 -0.2983 -0.2608 -1.3524
 8748TIP3   OH226207   1.188   3.279   2.934  0.0581 -0.1904 -0.5327
 8748TIP3    H126208   1.137   3.338   2.990 -0.4975 -1.2194  0.0900
 8748TIP3    H226209   1.242   3.229   2.995  1.0450  0.1622 -1.1067
 8749TIP3   OH226210   2.297   5.076   1.114  0.1805  0.1117  0.2053
 8749TIP3    H126211   2.390   5.056   1.115 -0.2003 -1.9212 -0.6798
 8749TIP3    H226212   2.293   5.172   1.106  2.1662  0.2367  0.3294
 8750TIP3   OH226213   1.714   5.972   3.937 -0.3065  0.2330 -0.4361
 8750TIP3    H126214   1.643   6.033   3.956 -0.3257 -0.1193  0.7402
 8750TIP3    H226215   1.744   5.995   3.849  1.9046  4.2148  1.1089
 8751TIP3   OH226216   5.812   2.860   2.070  0.2928 -0.3390 -0.0147
 8751TIP3    H126217   5.809   2.899   1.983 -2.7677  1.0017  0.5715
 8751TIP3    H226218   5.787   2.768   2.056  1.2201 -0.5078 -0.6657
 8752TIP3   OH226219   1.774   2.090   5.143 -0.1417  0.4300  0.3123
 8752TIP3    H126220   1.714   2.114   5.072 -0.1182 -1.9689 -0.6303
 8752TIP3    H226221   1.854   2.139   5.126 -0.7816  1.3011 -0.2273
 8753TIP3   OH226222   3.214   5.890   2.329  0.1784 -0.4548 -0.4381
 8753TIP3    H126223   3.294   5.857   2.370  0.2979  0.2849 -0.0632
 8753TIP3    H226224   3.245   5.939   2.253  0.1624  0.6374  0.2386
 8754TIP3   OH226225   4.218   3.501   3.012  0.0562  0.2726  0.1514
 8754TIP3    H126226   4.280   3.549   2.956 -0.8794  1.2305 -0.0955
 8754TIP3    H226227   4.171   3.570   3.059  0.6566 -0.5138  1.9686
 8755TIP3   OH226228   7.084   4.840   1.223 -0.0588  0.5358  0.9472
 8755TIP3    H126229   7.170   4.866   1.257  0.5139 -0.2506  0.1391
 8755TIP3    H226230   7.097   4.751   1.189 -0.4190  1.4510 -1.8535
 8756TIP3   OH226231   5.309   0.703   3.097 -0.2259 -0.4395 -0.1583
 8756TIP3    H126232   5.261   0.646   3.037  0.7362 -1.5645  0.1138
 8756TIP3    H226233   5.298   0.791   3.061 -1.8939 -0.7566 -0.4800
 8757TIP3   OH226234   5.245   4.712   4.497  0.0806 -0.1360 -0.5431
 8757TIP3    H126235   5.249   4.746   4.586  0.4917  0.9932 -0.9780
 8757TIP3    H226236   5.229   4.788   4.442  1.7987 -0.4697 -1.6145
 8758TIP3   OH226237   0.214   4.475   0.797 -0.0507 -0.7054  0.1930
 8758TIP3    H126238   0.246   4.465   0.707  1.8227  0.5678  0.6757
 8758TIP3    H226239   0.224   4.568   0.816 -3.8352 -0.2021  0.5526
 8759TIP3   OH226240   5.374   5.743   4.261  0.2462  0.3802  0.4027
 8759TIP3    H126241   5.348   5.807   4.194  0.2453  2.7727  2.5635
 8759TIP3    H226242   5.463   5.769   4.285  0.6583 -1.1345  0.6077
 8760TIP3   OH226243   3.963   2.232   2.248 -0.1606 -0.1150  0.0395
 8760TIP3    H126244   4.049   2.216   2.287  0.6297  1.9355 -0.7114
 8760TIP3    H226245   3.965   2.183   2.166 -0.2947 -1.2420  0.6919
 8761TIP3   OH226246   0.928   2.789   0.068  0.5301 -0.3068 -0.8715
 8761TIP3    H126247   0.997   2.809   0.006 -0.2134  0.5641 -1.4488
 8761TIP3    H226248   0.873   2.867   0.069 -2.6513 -2.2222 -3.3771
 8762TIP3   OH226249   5.218   2.027   0.651 -0.0244 -0.0723  0.2510
 8762TIP3    H126250   5.222   1.947   0.598  0.9665  0.4996 -0.5609
 8762TIP3    H226251   5.301   2.071   0.635 -0.7666  1.3941  0.2646
 8763TIP3   OH226252   7.221   4.091   0.677 -0.2138 -0.2916  0.1098
 8763TIP3    H126253   7.210   4.180   0.709  2.2079  1.1822 -2.5919
 8763TIP3    H226254   7.157   4.083   0.606 -1.5850 -1.3841  1.4271
 8764TIP3   OH226255   2.787   0.706   2.438  0.1606 -0.1142  0.3974
 8764TIP3    H126256   2.804   0.756   2.518  0.2948 -2.4625  1.9433
 8764TIP3    H226257   2.808   0.616   2.462 -2.0688 -1.2635 -1.5807
 8765TIP3   OH226258   4.701   6.339   4.954 -0.4126  0.2093  0.0286
 8765TIP3    H126259   4.795   6.353   4.968 -0.2670 -1.5758  1.1763
 8765TIP3    H226260   4.679   6.398   4.883  1.0483  2.4782  1.3157
 8766TIP3   OH226261   3.875   4.015   3.480  0.1415 -0.3027 -0.0288
 8766TIP3    H126262   3.917   4.093   3.517  0.1459 -0.6491  0.7227
 8766TIP3    H226263   3.794   4.048   3.441 -0.0498  0.0306  0.6238
 8767TIP3   OH226264   2.086   6.759   0.483  0.3331 -0.2970 -0.0475
 8767TIP3    H126265   2.111   6.757   0.391 -0.4529 -1.8685 -0.2598
 8767TIP3    H226266   2.014   6.822   0.487 -1.9595 -2.6878 -1.2009
 8768TIP3   OH226267   1.372   1.084   0.612  0.1711  0.3143  0.4438
 8768TIP3    H126268   1.378   0.994   0.579  1.7618  0.3853  0.4525
 8768TIP3    H226269   1.393   1.139   0.536 -0.2659  0.6691  0.5715
 8769TIP3   OH226270   0.590   2.289   5.702 -0.0634  0.2100 -0.1000
 8769TIP3    H126271   0.495   2.299   5.711  0.1582  1.4687  1.2710
 8769TIP3    H226272   0.615   2.354   5.637  0.1031  1.4303  1.1518
 8770TIP3   OH226273   5.551   3.694   1.432  0.0527  0.0276  0.3676
 8770TIP3    H126274   5.607   3.680   1.508 -0.5639 -1.6761  0.5511
 8770TIP3    H226275   5.473   3.641   1.449 -1.1144  1.4082 -0.4158
 8771TIP3   OH226276   1.244   3.278   4.967  0.6279  0.2242  0.5783
 8771TIP3    H126277   1.336   3.263   4.944  0.4110  1.2540 -1.0971
 8771TIP3    H226278   1.240   3.259   5.061  2.7512  1.0545  0.8944
 8772TIP3   OH226279   0.843   5.852   5.271  0.2412 -0.2718 -0.4782
 8772TIP3    H126280   0.820   5.785   5.335 -1.1646 -1.5467 -2.2104
 8772TIP3    H226281   0.878   5.803   5.196 -1.7761  0.7861 -2.2043
 8773TIP3   OH226282   6.085   6.399   2.624 -0.1969 -0.4901  0.0871
 8773TIP3    H126283   6.158   6.436   2.674 -0.8004  0.9435 -0.0511
 8773TIP3    H226284   6.018   6.380   2.690 -0.0710 -0.9369  0.0962
 8774TIP3   OH226285   2.287   1.042   5.632 -0.1785 -0.4754  0.4059
 8774TIP3    H126286   2.245   0.956   5.627  0.4101 -0.7248 -0.5824
 8774TIP3    H226287   2.217   1.104   5.609 -0.6089 -0.6755  1.1380
 8775TIP3   OH226288   0.316   1.883   2.686  0.3754  0.1944  0.8597
 8775TIP3    H126289   0.239   1.833   2.662  0.4406  1.1270 -1.6036
 8775TIP3    H226290   0.370   1.821   2.736 -0.6489 -1.3839  0.1032
 8776TIP3   OH226291   3.040   3.381   3.642  0.8403  0.2497 -0.1285
 8776TIP3    H126292   2.998   3.393   3.556  2.3552  0.9686 -0.8217
 8776TIP3    H226293   2.995   3.306   3.680  0.6458 -0.6018 -1.9063
 8777TIP3   OH226294   1.344   5.411   0.240 -0.3606  0.0800 -0.0176
 8777TIP3    H126295   1.338   5.324   0.279  1.3387 -0.0164  0.0773
 8777TIP3    H226296   1.423   5.409   0.187 -0.4788  1.4653 -0.2907
 8778TIP3   OH226297   5.862   2.673   0.792 -0.5913  0.7222  0.1153
 8778TIP3    H126298   5.798   2.646   0.726  2.7959  0.8094 -3.6046
 8778TIP3    H226299   5.891   2.760   0.763  2.8125 -0.2812  0.1313
 8779TIP3   OH226300   4.109   0.329   0.007 -0.0327  0.2427  0.0199
 8779TIP3    H126301   4.058   0.304   0.084 -0.4331 -2.7209 -1.0844
 8779TIP3    H226302   4.158   0.250  -0.016 -0.0837  0.9376 -2.8537
 8780TIP3   OH226303   6.569   2.564   2.140 -0.4350  0.0954  0.2962
 8780TIP3    H126304   6.658   2.594   2.118 -0.5509  0.9879  1.0129
 8780TIP3    H226305   6.522   2.643   2.166 -0.5722 -0.7332  2.8645
 8781TIP3   OH226306   3.495   5.442   1.730 -0.0692 -0.1654  0.1662
 8781TIP3    H126307   3.496   5.537   1.744 -0.4155 -0.1188 -0.1084
 8781TIP3    H226308   3.439   5.430   1.653  1.6338 -0.4337 -1.0680
 8782TIP3   OH226309   4.870   5.695   0.964  0.0051  0.1013  0.2293
 8782TIP3    H126310   4.877   5.777   0.915  0.5166 -1.0255 -1.7039
 8782TIP3    H226311   4.953   5.687   1.010  0.0261  0.5855  0.2790
 8783TIP3   OH226312   6.497   5.615   3.145  0.4045  0.5235  0.6853
 8783TIP3    H126313   6.589   5.602   3.168  0.1767 -0.1226  1.2661
 8783TIP3    H226314   6.450   5.549   3.197 -0.3819  0.8410  0.3854
 8784TIP3   OH226315   1.100   0.352   1.450 -0.5710  0.3429 -0.2399
 8784TIP3    H126316   1.022   0.361   1.504 -0.3322 -0.8253  0.3360
 8784TIP3    H226317   1.161   0.302   1.504  0.5550  1.1475 -0.7102
 8785TIP3   OH226318   1.376   6.419   3.170  0.2013 -0.6866  0.2664
 8785TIP3    H126319   1.339   6.503   3.197 -1.5411 -1.7518  1.3633
 8785TIP3    H226320   1.410   6.380   3.251  2.9807 -0.1911 -0.5458
 8786TIP3   OH226321   5.917   2.989   3.466  0.3291  0.4253  0.0761
 8786TIP3    H126322   5.918   3.002   3.371  1.3137  0.7637  0.1134
 8786TIP3    H226323   5.992   3.040   3.498  0.5940 -0.4555  0.9258
 8787TIP3   OH226324   6.477   2.993   2.700  0.0418 -0.2702  0.7584
 8787TIP3    H126325   6.425   3.073   2.713  0.7319  0.0679  1.4716
 8787TIP3    H226326   6.535   2.989   2.775  0.2808 -1.2548  0.5383
 8788TIP3   OH226327   0.988   3.259   0.335 -0.1328 -0.4023 -0.5305
 8788TIP3    H126328   1.006   3.223   0.422  0.1612 -1.6557 -1.0966
 8788TIP3    H226329   1.074   3.277   0.298 -0.2343 -0.5135 -0.8242
 8789TIP3   OH226330   5.816   1.058   1.503  0.1373 -0.2869  0.0430
 8789TIP3    H126331   5.772   1.142   1.514 -0.8665 -0.9458  1.3268
 8789TIP3    H226332   5.761   1.012   1.439  1.2093  0.3532 -1.3824
 8790TIP3   OH226333   2.908   4.025   3.329 -0.5894 -0.0045 -0.8517
 8790TIP3    H126334   2.894   4.054   3.419 -0.8842 -0.2840 -0.8057
 8790TIP3    H226335   2.872   4.096   3.275  0.1513  0.4539 -0.7644
 8791TIP3   OH226336   2.911   5.307   0.048  0.7351 -0.3398  0.0126
 8791TIP3    H126337   2.880   5.235  -0.006  1.0204 -2.0289  1.9427
 8791TIP3    H226338   2.947   5.371  -0.014 -0.1731 -1.5238 -1.8155
 8792TIP3   OH226339   6.988   6.569   0.626  0.1092  0.2653 -0.2345
 8792TIP3    H126340   7.060   6.596   0.684 -0.8534  0.1183  1.0879
 8792TIP3    H226341   6.924   6.640   0.634 -0.0229  0.2575 -1.1695
 8793TIP3   OH226342   6.910   0.405   1.877 -0.7288 -0.3103  0.3218
 8793TIP3    H126343   6.984   0.454   1.841 -1.5451  0.3519 -0.5123
 8793TIP3    H226344   6.920   0.316   1.842  1.4248 -1.1360  2.8014
 8794TIP3   OH226345   3.931   5.425   1.835  0.1094 -0.3570 -0.3490
 8794TIP3    H126346   3.925   5.385   1.922 -3.5160  0.2884 -0.1288
 8794TIP3    H226347   3.894   5.512   1.846  0.6008  0.1482 -2.3354
 8795TIP3   OH226348   4.247   2.070   3.619 -0.5109 -0.1939  0.1405
 8795TIP3    H126349   4.331   2.052   3.575  0.5393  2.4206  0.8761
 8795TIP3    H226350   4.271   2.087   3.710 -1.6611  1.4907  0.1788
 8796TIP3   OH226351   3.491   1.479   2.787 -0.2062 -0.4674 -0.1272
 8796TIP3    H126352   3.490   1.553   2.848 -1.1572  2.4064 -3.3326
 8796TIP3    H226353   3.465   1.404   2.841 -0.3516  1.6644  3.0845
 8797TIP3   OH226354   5.568   2.825   5.505  0.1468  0.4153 -0.1223
 8797TIP3    H126355   5.546   2.751   5.562  0.2453  1.8220  1.8273
 8797TIP3    H226356   5.609   2.785   5.429  0.8695 -1.4999  1.2034
 8798TIP3   OH226357   0.500   4.386   4.363 -0.4459  0.0622 -0.7113
 8798TIP3    H126358   0.414   4.428   4.364  0.5146  2.3173 -2.3487
 8798TIP3    H226359   0.504   4.340   4.279  0.5453  1.5063 -1.5034
 8799TIP3   OH226360   6.107   6.330   4.928  0.1960  0.2003 -0.0430
 8799TIP3    H126361   6.046   6.272   4.881  1.1767  1.0122 -2.4858
 8799TIP3    H226362   6.110   6.409   4.875  0.2979  1.8122  2.2450
 8800TIP3   OH226363   1.674   4.453   1.943 -0.2133  0.0105 -0.5887
 8800TIP3    H126364   1.706   4.370   1.981  0.9147 -0.6832 -2.8424
 8800TIP3    H226365   1.732   4.520   1.980  0.8353 -0.6266 -1.0361
 8801TIP3   OH226366   7.076   6.016   4.817 -0.4351 -0.1836 -0.0651
 8801TIP3    H126367   7.020   5.967   4.878 -1.2786  0.0194 -0.6456
 8801TIP3    H226368   7.161   5.972   4.821 -0.7252 -0.6960  0.6205
 8802TIP3   OH226369   3.523   4.906   4.182 -0.6287  0.1374  0.3613
 8802TIP3    H126370   3.438   4.889   4.141  0.2122 -4.0814 -0.0765
 8802TIP3    H226371   3.518   4.863   4.268  0.2357  2.1432  1.4878
 8803TIP3   OH226372   0.613   2.180   2.387  0.0538 -0.2244  0.2797
 8803TIP3    H126373   0.520   2.171   2.370 -0.1006  0.0519  0.9555
 8803TIP3    H226374   0.621   2.177   2.482  0.5562  1.2702  0.3216
 8804TIP3   OH226375   6.045   0.177   4.613 -0.1221 -0.3751  0.0268
 8804TIP3    H126376   6.001   0.105   4.566  0.6130 -0.4877 -0.5130
 8804TIP3    H226377   6.014   0.169   4.703 -0.8630 -0.7193 -0.2445
 8805TIP3   OH226378   4.865   5.515   2.264 -0.0141 -0.2376  0.1729
 8805TIP3    H126379   4.929   5.445   2.254  0.1084  0.0206 -0.8835
 8805TIP3    H226380   4.828   5.501   2.352 -0.9547 -2.4552 -0.4999
 8806TIP3   OH226381   3.071   5.002   1.095 -0.5069  0.2144  0.0090
 8806TIP3    H126382   3.065   4.988   1.189  0.9929  1.3950  0.3128
 8806TIP3    H226383   2.989   5.046   1.072  0.0465  1.9467  1.1763
 8807TIP3   OH226384   5.873   4.989   0.466 -0.2518 -0.5446 -0.0941
 8807TIP3    H126385   5.838   5.020   0.549 -1.6172 -1.2253 -0.3911
 8807TIP3    H226386   5.934   5.058   0.438 -1.3351  0.6732  0.4559
 8808TIP3   OH226387   0.912   0.098   3.805 -0.3459  0.0704  0.1065
 8808TIP3    H126388   0.994   0.060   3.773 -0.0787  0.4331  0.3637
 8808TIP3    H226389   0.906   0.071   3.896 -0.5967 -0.0922  0.0439
 8809TIP3   OH226390   3.721   3.932   4.028  0.8053  1.0257  0.7609
 8809TIP3    H126391   3.805   3.893   4.051 -1.1756 -2.3970  2.9975
 8809TIP3    H226392   3.697   3.890   3.945  0.9040  1.4621  0.5024
 8810TIP3   OH226393   3.600   1.899   4.746  0.4069  0.1480  0.7894
 8810TIP3    H126394   3.574   1.989   4.764 -0.7802 -0.2627  1.2279
 8810TIP3    H226395   3.552   1.847   4.810  0.8300 -0.8283  0.3354
 8811TIP3   OH226396   3.117   6.684   2.194  0.3652 -0.3884 -0.7801
 8811TIP3    H126397   3.058   6.747   2.236 -0.1172  0.4863 -2.6469
 8811TIP3    H226398   3.085   6.599   2.222 -1.2076  0.1085 -0.9595
 8812TIP3   OH226399   1.391   0.952   3.204  0.0865 -0.4618 -0.2625
 8812TIP3    H126400   1.410   0.996   3.121  0.4319 -1.6774 -0.8514
 8812TIP3    H226401   1.371   1.023   3.265 -0.0718  0.4622 -1.3546
 8813TIP3   OH226402   5.581   4.535   3.221  0.3200 -0.0994 -0.5729
 8813TIP3    H126403   5.494   4.523   3.259 -0.7003  0.7552 -2.4735
 8813TIP3    H226404   5.565   4.588   3.142  2.4987 -0.4106 -1.2801
 8814TIP3   OH226405   4.301   6.468   1.695  0.1291  0.2360  0.1134
 8814TIP3    H126406   4.384   6.481   1.649  1.1395 -3.3156  0.5921
 8814TIP3    H226407   4.245   6.422   1.632 -0.8717  1.0890  0.3562
 8815TIP3   OH226408   2.671   2.648   0.773 -0.0433  0.1810  0.2573
 8815TIP3    H126409   2.585   2.653   0.731  0.6521  0.8577 -1.1601
 8815TIP3    H226410   2.733   2.662   0.701  1.2545 -0.2333  1.2623
 8816TIP3   OH226411   0.497   0.111   1.231 -0.5984  0.2685 -0.2995
 8816TIP3    H126412   0.523   0.203   1.224  0.9825  0.0675  1.8661
 8816TIP3    H226413   0.560   0.064   1.176 -0.9551  0.3940 -0.8251
 8817TIP3   OH226414   5.876   3.179   4.105  0.3366  0.2209 -0.4231
 8817TIP3    H126415   5.863   3.116   4.034 -0.1013 -1.4596  1.0720
 8817TIP3    H226416   5.970   3.175   4.124  0.3931  0.4015 -0.6615
 8818TIP3   OH226417   6.019   1.926   1.290  0.0987 -0.0160  0.4356
 8818TIP3    H126418   5.969   1.980   1.229  0.1738 -1.3556 -0.8789
 8818TIP3    H226419   6.110   1.935   1.263  0.1859 -0.2572  0.6375
 8819TIP3   OH226420   1.624   4.535   5.038 -0.1878 -0.1575  0.2463
 8819TIP3    H126421   1.579   4.452   5.053 -2.7502  0.6750 -1.8676
 8819TIP3    H226422   1.553   4.599   5.032  1.5961  1.9263  0.3088
 8820TIP3   OH226423   0.774   5.751   3.797  0.4638 -0.1822 -0.2516
 8820TIP3    H126424   0.788   5.662   3.765  0.1834  0.1816 -1.4561
 8820TIP3    H226425   0.788   5.807   3.720 -1.1243  0.6761  0.0298
 8821TIP3   OH226426   2.535   5.117   1.990 -0.1272  0.1270  0.0708
 8821TIP3    H126427   2.521   5.032   1.947  0.9860 -0.3631  0.6549
 8821TIP3    H226428   2.541   5.096   2.083 -0.6965  0.9616  0.3056
 8822TIP3   OH226429   5.723   3.862   4.755  0.2036  0.3499  0.8829
 8822TIP3    H126430   5.799   3.814   4.721 -0.7512 -0.2487 -0.4781
 8822TIP3    H226431   5.656   3.852   4.688 -1.3527  0.2091  2.3773
 8823TIP3   OH226432   1.462   1.735   3.981 -0.1290 -0.0078 -0.6495
 8823TIP3    H126433   1.371   1.710   3.995 -0.1868 -0.3207 -1.5246
 8823TIP3    H226434   1.507   1.652   3.965 -0.2228  0.3445 -3.0782
 8824TIP3   OH226435   0.811   0.857   1.990 -0.8810 -0.1617  0.0276
 8824TIP3    H126436   0.792   0.916   2.064  0.1331  0.0887  0.0962
 8824TIP3    H226437   0.849   0.779   2.031  0.3288  0.2557 -0.2647
 8825TIP3   OH226438   0.922   4.692   1.242 -0.2107  0.3530  0.4198
 8825TIP3    H126439   0.886   4.699   1.331  1.8651  0.6595  1.2990
 8825TIP3    H226440   1.014   4.715   1.252  0.6309 -1.8181 -1.4321
 8826TIP3   OH226441   3.225   3.520   3.471 -0.5004 -0.4922  0.4808
 8826TIP3    H126442   3.136   3.528   3.507 -0.9777 -2.0352 -0.3038
 8826TIP3    H226443   3.281   3.517   3.549 -1.3214 -1.6304  1.0582
 8827TIP3   OH226444   2.544   4.078   0.364 -0.0864  0.7277 -0.0312
 8827TIP3    H126445   2.627   4.121   0.382  0.3411  0.7264 -1.8192
 8827TIP3    H226446   2.565   4.013   0.296 -1.4297  0.3144 -0.0761
 8828TIP3   OH226447   1.322   1.204   1.074 -0.4026 -0.0255  0.1195
 8828TIP3    H126448   1.268   1.256   1.134 -1.7978 -1.0477 -0.1802
 8828TIP3    H226449   1.398   1.179   1.125 -1.2290 -0.2898  1.2632
 8829TIP3   OH226450   2.228   3.248   0.767 -0.9134 -0.2161 -0.7956
 8829TIP3    H126451   2.220   3.237   0.862  0.5775  1.5574 -0.3997
 8829TIP3    H226452   2.260   3.337   0.756 -0.0542 -0.7223 -2.9255
 8830TIP3   OH226453   0.165   6.714   4.937 -0.0336 -1.1068 -0.3953
 8830TIP3    H126454   0.106   6.691   5.010  0.7594 -0.5754  0.4355
 8830TIP3    H226455   0.231   6.645   4.936 -0.2762 -1.3351 -0.8862
 8831TIP3   OH226456   4.044   1.740   5.507  0.8216  0.1164  0.1153
 8831TIP3    H126457   4.084   1.817   5.547  0.5302  0.6962 -0.6889
 8831TIP3    H226458   4.118   1.689   5.474  0.9750  0.4763 -0.1038
 8832TIP3   OH226459   7.201   3.883   3.640 -0.1108 -0.5382 -0.4435
 8832TIP3    H126460   7.252   3.808   3.610  0.4196 -0.1532 -0.5180
 8832TIP3    H226461   7.113   3.848   3.654 -0.5190 -0.6870 -2.8136
 8833TIP3   OH226462   7.134   5.307   4.147 -0.2547 -0.0013 -0.4431
 8833TIP3    H126463   7.085   5.378   4.106 -0.5221  0.5191  0.7159
 8833TIP3    H226464   7.185   5.351   4.216  0.7035 -0.7404 -0.6641
 8834TIP3   OH226465   0.515   3.483   3.810 -0.0783  0.0884  0.6137
 8834TIP3    H126466   0.565   3.427   3.871  1.1052 -0.7664 -1.0703
 8834TIP3    H226467   0.425   3.451   3.817  0.2998 -0.9704  0.8723
 8835TIP3   OH226468   2.390   3.796   5.079  0.5079  0.3354  0.1180
 8835TIP3    H126469   2.308   3.832   5.047  1.0112  0.7186 -0.7721
 8835TIP3    H226470   2.437   3.768   5.001  1.3786  0.4472  0.5801
 8836TIP3   OH226471   6.757   3.442   1.683 -0.2156 -0.3442 -0.3669
 8836TIP3    H126472   6.819   3.389   1.734 -0.8610  1.0633  2.0502
 8836TIP3    H226473   6.787   3.532   1.695 -0.7245  0.0877 -2.0938
 8837TIP3   OH226474   4.853   5.335   0.170  0.9594  0.0292  0.5014
 8837TIP3    H126475   4.871   5.417   0.216  0.6048  0.0311  0.6370
 8837TIP3    H226476   4.912   5.336   0.094  0.3357  0.8256  0.0089
 8838TIP3   OH226477   4.686   3.187   3.932  0.3829 -0.0702 -0.7020
 8838TIP3    H126478   4.701   3.282   3.929 -0.2686  0.0687 -0.1144
 8838TIP3    H226479   4.697   3.164   4.024  0.8505 -0.6276 -0.8937
 8839TIP3   OH226480   7.067   6.757   2.198 -0.1436  0.7049 -0.0193
 8839TIP3    H126481   7.031   6.845   2.214 -0.0579  1.0822 -1.7110
 8839TIP3    H226482   7.024   6.728   2.117  0.1283 -0.6633  0.3000
 8840TIP3   OH226483   1.168   6.471   1.401 -0.2424 -0.2833 -0.3144
 8840TIP3    H126484   1.095   6.454   1.460  0.4919 -1.4672  0.3146
 8840TIP3    H226485   1.205   6.554   1.432 -0.8008 -0.1109 -0.1008
 8841TIP3   OH226486   4.905   4.770   1.697 -0.0944  0.2373  0.7355
 8841TIP3    H126487   4.937   4.851   1.657  0.3342  0.0957  0.7944
 8841TIP3    H226488   4.811   4.770   1.677  0.2436 -0.2541 -1.0470
 8842TIP3   OH226489   0.631   1.931   3.921  0.3595 -0.7364 -0.3346
 8842TIP3    H126490   0.632   1.836   3.911  1.4859 -0.8715  0.9098
 8842TIP3    H226491   0.673   1.948   4.005  0.6476  0.8975 -0.7602
 8843TIP3   OH226492   2.978   4.557   1.633  0.5637  0.0137  0.1115
 8843TIP3    H126493   2.987   4.616   1.708  0.2784 -1.1313  1.0761
 8843TIP3    H226494   3.025   4.478   1.659 -0.1894 -0.6850 -0.5956
 8844TIP3   OH226495   4.515   3.028   5.681  0.1363 -0.6440 -0.1251
 8844TIP3    H126496   4.495   2.934   5.686 -0.3532 -0.6658 -1.9782
 8844TIP3    H226497   4.456   3.062   5.614  0.8746  0.8508 -0.0623
 8845TIP3   OH226498   7.028   4.453   1.751  0.3507  0.3872 -0.0498
 8845TIP3    H126499   7.001   4.538   1.787  0.4346 -0.8241  3.2545
 8845TIP3    H226500   6.948   4.400   1.753  0.7125 -0.1721 -0.1998
 8846TIP3   OH226501   0.883   2.380   1.833 -0.2949  0.1222 -0.1349
 8846TIP3    H126502   0.971   2.363   1.801  0.0046  0.6198  0.4045
 8846TIP3    H226503   0.865   2.308   1.894  0.2829  0.7465  0.8005
 8847TIP3   OH226504   6.563   0.279   4.017 -0.2195 -0.3950  0.4326
 8847TIP3    H126505   6.489   0.218   4.019 -1.2188  0.6520 -1.2176
 8847TIP3    H226506   6.546   0.339   4.090 -0.8152 -0.4003  0.3078
 8848TIP3   OH226507   6.313   6.288   5.840 -0.6239  0.5529  0.2376
 8848TIP3    H126508   6.357   6.204   5.855  1.0018  1.3468  0.1055
 8848TIP3    H226509   6.274   6.310   5.924  1.2892  0.9565  1.0550
 8849TIP3   OH226510   5.829   6.648   0.955  0.1126  0.8307  0.7255
 8849TIP3    H126511   5.884   6.570   0.959 -1.5720 -0.3898  0.5625
 8849TIP3    H226512   5.864   6.697   0.880  0.6538 -0.1587  0.3079
 8850TIP3   OH226513   2.095   5.136   1.349  0.0807  0.5829  0.2007
 8850TIP3    H126514   2.099   5.082   1.270  1.5708 -0.2772  0.8254
 8850TIP3    H226515   2.002   5.150   1.364 -0.2407  0.3959 -1.4643
 8851TIP3   OH226516   0.158   3.746   4.454 -0.2935 -0.1338  0.5328
 8851TIP3    H126517   0.186   3.785   4.371  0.1544 -0.6319  0.4451
 8851TIP3    H226518   0.231   3.760   4.514 -0.4970 -0.0394  0.7630
 8852TIP3   OH226519   5.374   2.952   4.786 -0.1826  0.3389 -0.5477
 8852TIP3    H126520   5.288   2.965   4.746 -0.2199 -0.0344 -0.5974
 8852TIP3    H226521   5.391   3.033   4.834 -0.6631  0.3269 -0.3518
 8853TIP3   OH226522   1.857   2.556   2.054 -0.5512 -0.5903 -0.8043
 8853TIP3    H126523   1.902   2.635   2.022 -1.5341  0.5476  0.4706
 8853TIP3    H226524   1.771   2.588   2.080 -0.4831 -1.8187  1.0655
 8854TIP3   OH226525   6.479   6.181   1.648  0.0129 -0.5630  0.3095
 8854TIP3    H126526   6.391   6.186   1.611  0.2287 -0.9126 -0.2621
 8854TIP3    H226527   6.512   6.096   1.619  0.8845 -0.0406 -0.2616
 8855TIP3   OH226528   3.537   2.775   4.825  0.3244 -0.4076 -0.6303
 8855TIP3    H126529   3.456   2.726   4.810 -1.5094  2.1442  0.1903
 8855TIP3    H226530   3.545   2.832   4.748  0.6469  0.2143 -0.1453
 8856TIP3   OH226531   0.448   2.158   4.005  0.2928  0.2346 -0.3368
 8856TIP3    H126532   0.472   2.068   3.984  0.3224  0.0393  0.4739
 8856TIP3    H226533   0.494   2.176   4.087  1.8207  1.6532 -1.4332
 8857TIP3   OH226534   0.103   3.924   1.872 -0.0958  0.4227  0.2009
 8857TIP3    H126535   0.079   3.927   1.779  0.4207 -1.2674 -0.0329
 8857TIP3    H226536   0.112   4.015   1.898 -0.6964  0.9397 -1.2928
 8858TIP3   OH226537   4.403   5.190   3.332 -0.1257 -0.1366  0.0996
 8858TIP3    H126538   4.358   5.266   3.294 -0.0355 -0.3230 -0.3875
 8858TIP3    H226539   4.334   5.141   3.376 -0.4244 -0.4628 -0.7090
 8859TIP3   OH226540   0.477   3.669   5.306  0.2482  0.2292 -0.6816
 8859TIP3    H126541   0.409   3.608   5.278 -1.5218  2.5966 -1.9432
 8859TIP3    H226542   0.526   3.688   5.226 -1.0190  2.5016 -0.9914
 8860TIP3   OH226543   6.414   3.831   0.162  0.3999 -0.5254 -0.0442
 8860TIP3    H126544   6.375   3.761   0.213  0.3641 -0.8577 -0.5201
 8860TIP3    H226545   6.344   3.862   0.105  0.2625  0.2676  0.5380
 8861TIP3   OH226546   1.533   0.462   5.857 -0.0026  0.1585 -0.6571
 8861TIP3    H126547   1.622   0.492   5.872 -0.2470  0.3515  0.4626
 8861TIP3    H226548   1.478   0.540   5.867 -0.6736 -0.5929  2.5794
 8862TIP3   OH226549   4.594   1.502   1.466 -0.3180 -0.5090  0.1451
 8862TIP3    H126550   4.590   1.578   1.408  0.8480 -0.8714 -0.4553
 8862TIP3    H226551   4.503   1.473   1.474 -0.7538  0.7838  0.1832
 8863TIP3   OH226552   0.923   4.351   4.687 -0.2369  0.3471 -0.1697
 8863TIP3    H126553   0.866   4.383   4.618  0.7197  0.2162 -1.0516
 8863TIP3    H226554   1.004   4.400   4.676  0.8958 -1.5676 -0.8967
 8864TIP3   OH226555   0.289   5.568   1.988 -0.0679 -0.8532  0.2315
 8864TIP3    H126556   0.238   5.643   1.955  0.3672 -0.6898 -0.0902
 8864TIP3    H226557   0.285   5.576   2.083  0.7810  0.1630  0.2104
 8865TIP3   OH226558   2.433   1.712   3.364 -0.1513 -0.2506  0.1209
 8865TIP3    H126559   2.434   1.801   3.400 -1.4281  0.0715 -0.5476
 8865TIP3    H226560   2.388   1.660   3.430 -0.4150 -0.1508  0.0228
 8866TIP3   OH226561   6.460   1.519   2.886  0.2325  0.6020 -0.4761
 8866TIP3    H126562   6.541   1.564   2.863  0.3484  0.2599 -0.7555
 8866TIP3    H226563   6.481   1.426   2.876 -0.2865  0.5221 -0.8573
 8867TIP3   OH226564   6.041   3.761   4.959 -0.3199  0.1956  0.9781
 8867TIP3    H126565   5.991   3.748   4.878 -0.1568 -1.6568  1.1369
 8867TIP3    H226566   6.072   3.674   4.983  2.0397  1.1097  1.5252
 8868TIP3   OH226567   7.083   5.173   3.354 -0.2957  0.4855 -0.5155
 8868TIP3    H126568   7.169   5.131   3.354  0.0218  1.1098 -1.4195
 8868TIP3    H226569   7.063   5.186   3.261 -1.7652 -0.4455 -0.3529
 8869TIP3   OH226570   3.064   5.951   5.644 -0.4572  0.5589 -0.0633
 8869TIP3    H126571   3.087   5.940   5.736  1.3355 -1.5975 -0.6869
 8869TIP3    H226572   3.036   5.864   5.615  0.1250  0.9100 -1.8294
 8870TIP3   OH226573   2.035   3.679   2.718 -0.0376 -0.5067 -0.1646
 8870TIP3    H126574   2.038   3.673   2.814 -1.5195  2.8168  0.2514
 8870TIP3    H226575   1.951   3.639   2.695  0.0503 -0.7861 -0.0072
 8871TIP3   OH226576   1.958   5.127   5.603  0.9243 -0.4754 -0.1858
 8871TIP3    H126577   1.963   5.031   5.603 -0.4553 -0.5674 -0.1040
 8871TIP3    H226578   1.894   5.147   5.535  0.5793  0.3486  0.3718
 8872TIP3   OH226579   6.918   4.125   4.493  0.0641 -0.0343 -0.0841
 8872TIP3    H126580   6.826   4.136   4.516  0.5752  1.7871  1.2958
 8872TIP3    H226581   6.962   4.202   4.530  1.9798 -0.2593 -1.6918
 8873TIP3   OH226582   1.872   2.683   1.507  0.2793  0.7589 -0.6352
 8873TIP3    H126583   1.835   2.703   1.593 -1.9526 -1.9003 -0.8377
 8873TIP3    H226584   1.954   2.638   1.526 -0.5862 -0.5495  0.1987
 8874TIP3   OH226585   1.910   1.164   4.883  0.0586  0.0397 -0.2688
 8874TIP3    H126586   1.849   1.234   4.909  0.9480  1.2839 -1.4045
 8874TIP3    H226587   1.875   1.132   4.800  0.1942 -0.2053 -0.2303
 8875TIP3   OH226588   3.159   2.229   4.400 -0.6842  0.3335 -0.0252
 8875TIP3    H126589   3.161   2.254   4.308 -1.1376  3.4928  0.6978
 8875TIP3    H226590   3.187   2.308   4.446 -1.3374 -0.8642  2.5912
 8876TIP3   OH226591   3.557   6.230   1.226 -0.5791 -0.4826  0.1120
 8876TIP3    H126592   3.495   6.298   1.254 -0.5468 -0.7086  0.7514
 8876TIP3    H226593   3.562   6.170   1.301  1.1300  0.0311  0.4482
 8877TIP3   OH226594   3.060   0.631   0.822 -0.2909 -0.3778  0.4746
 8877TIP3    H126595   3.107   0.691   0.880  1.0872 -1.9969  1.1231
 8877TIP3    H226596   3.079   0.662   0.734  1.4080 -0.5262  0.7530
 8878TIP3   OH226597   1.663   0.643   3.715 -0.8835  0.6506 -0.0417
 8878TIP3    H126598   1.587   0.673   3.763 -0.6638  0.9854  0.1000
 8878TIP3    H226599   1.661   0.693   3.633  0.2778  2.1684  0.7890
 8879TIP3   OH226600   7.145   2.880   4.983  0.5881 -0.3869 -0.5090
 8879TIP3    H126601   7.086   2.808   5.005  0.7761 -0.2671  0.4514
 8879TIP3    H226602   7.088   2.949   4.948  0.5819 -1.5684 -3.0263
 8880TIP3   OH226603   1.632   3.316   3.411 -0.4894  0.3444  0.4268
 8880TIP3    H126604   1.641   3.226   3.441 -2.9247 -0.0307  0.2221
 8880TIP3    H226605   1.669   3.368   3.483  1.7382 -0.7841  0.1733
 8881TIP3   OH226606   0.215   1.470   2.584  0.2762  0.0630 -0.1782
 8881TIP3    H126607   0.194   1.477   2.677  1.0891 -1.2806  0.1350
 8881TIP3    H226608   0.247   1.380   2.573 -0.4197 -0.0180 -1.8863
 8882TIP3   OH226609   3.240   4.667   0.674 -0.1192  0.0797  0.0547
 8882TIP3    H126610   3.169   4.671   0.610  0.8923 -1.1902 -1.2327
 8882TIP3    H226611   3.197   4.669   0.759 -1.8489 -2.0300 -0.6799
 8883TIP3   OH226612   2.826   6.148   3.202  0.0927 -0.3051 -0.7445
 8883TIP3    H126613   2.866   6.082   3.259 -0.4199  0.3350  0.3971
 8883TIP3    H226614   2.772   6.097   3.141 -0.6044 -0.9459  0.3692
 8884TIP3   OH226615   2.484   0.986   2.457  0.5255 -0.0170  0.5936
 8884TIP3    H126616   2.455   0.909   2.505  0.1264 -0.6909 -0.6795
 8884TIP3    H226617   2.406   1.041   2.451 -0.0512 -0.9586 -1.1750
 8885TIP3   OH226618   5.895   5.483   1.207 -0.0119  0.2907 -0.2262
 8885TIP3    H126619   5.847   5.496   1.125  2.4297  1.5155 -1.5800
 8885TIP3    H226620   5.964   5.421   1.184 -0.5174 -0.9929  1.5158
 8886TIP3   OH226621   5.345   6.490   0.786 -0.0112  0.0237 -0.2968
 8886TIP3    H126622   5.323   6.411   0.837  0.8172 -0.5185 -0.7628
 8886TIP3    H226623   5.316   6.563   0.842  1.5147 -0.5178  1.3233
 8887TIP3   OH226624   5.758   4.477   2.426  0.1946  0.2826 -0.4736
 8887TIP3    H126625   5.665   4.481   2.402  0.6068  1.4710 -2.0365
 8887TIP3    H226626   5.759   4.495   2.519 -1.3080 -2.1632  0.1277
 8888TIP3   OH226627   3.439   1.174   3.949 -0.4519 -0.1487 -0.0464
 8888TIP3    H126628   3.403   1.211   4.030 -2.3647  0.8324 -1.2710
 8888TIP3    H226629   3.381   1.206   3.880 -1.7083 -4.5722 -1.3886
 8889TIP3   OH226630   6.973   4.798   4.256 -0.4266  0.2863  0.0566
 8889TIP3    H126631   6.919   4.869   4.223 -1.2532  0.4685  1.7086
 8889TIP3    H226632   6.924   4.718   4.233 -1.0008  0.4112  0.8159
 8890TIP3   OH226633   2.113   2.793   4.819 -0.4409 -0.0774  0.4466
 8890TIP3    H126634   2.034   2.753   4.783  0.9151 -1.2398 -1.3917
 8890TIP3    H226635   2.081   2.864   4.875 -2.7497 -0.3424 -0.4542
 8891TIP3   OH226636   5.683   0.378   1.658 -0.3663 -0.2644 -0.7554
 8891TIP3    H126637   5.645   0.428   1.586  0.3092  0.4053 -0.6626
 8891TIP3    H226638   5.665   0.431   1.736 -0.4297 -0.6121 -0.5317
 8892TIP3   OH226639   7.159   1.282   2.547  0.0127 -0.5351  0.0677
 8892TIP3    H126640   7.129   1.206   2.497 -1.2288 -0.7898  1.1515
 8892TIP3    H226641   7.221   1.246   2.610  1.8089 -0.1733 -1.3868
 8893TIP3   OH226642   1.991   1.672   5.074 -0.0388 -0.5955  0.4354
 8893TIP3    H126643   1.928   1.680   5.002  0.2827 -1.1503  0.0808
 8893TIP3    H226644   2.072   1.644   5.032  0.2654 -0.5353  0.9687
 8894TIP3   OH226645   0.118   3.413   0.122 -0.3214  0.1298 -0.4328
 8894TIP3    H126646   0.152   3.461   0.198  0.3330 -0.3247 -0.4307
 8894TIP3    H226647   0.035   3.376   0.152 -0.5417  0.7555 -0.2486
 8895TIP3   OH226648   0.286   5.377   2.408 -0.1465  0.0523  0.1174
 8895TIP3    H126649   0.275   5.349   2.317 -0.1936 -1.3623  0.5322
 8895TIP3    H226650   0.314   5.298   2.454 -0.9261  0.5402  1.4943
 8896TIP3   OH226651   3.287   0.396   0.046 -0.5534 -0.3533  0.7918
 8896TIP3    H126652   3.260   0.434   0.130 -1.6084 -0.5845  0.5684
 8896TIP3    H226653   3.209   0.400  -0.008  0.5683  1.4233 -0.8132
 8897TIP3   OH226654   6.420   6.272   5.531 -0.0981  0.5097 -0.1273
 8897TIP3    H126655   6.436   6.219   5.610 -0.4981  0.3707 -0.1395
 8897TIP3    H226656   6.347   6.229   5.487  0.4381  0.3029 -0.8376
 8898TIP3   OH226657   4.488   0.526   4.726  0.2455 -0.1138 -0.1502
 8898TIP3    H126658   4.396   0.553   4.729  0.8393  2.2555  4.0257
 8898TIP3    H226659   4.524   0.573   4.650 -1.1980  2.2436  0.5022
 8899TIP3   OH226660   1.010   0.562   1.977 -0.7709 -0.0492  0.2121
 8899TIP3    H126661   1.071   0.553   2.050 -0.3076 -1.0732 -0.2739
 8899TIP3    H226662   0.983   0.472   1.957  1.4709 -0.2297 -2.7965
 8900TIP3   OH226663   1.622   0.380   1.297 -0.3008 -0.3383  0.3524
 8900TIP3    H126664   1.638   0.360   1.205  1.0469 -0.8114  0.6603
 8900TIP3    H226665   1.529   0.400   1.301 -0.4011 -0.3550 -1.1016
 8901TIP3   OH226666   5.162   3.944   4.239  0.0011 -0.3391  0.0571
 8901TIP3    H126667   5.228   3.874   4.240 -0.0003 -0.3882 -1.3402
 8901TIP3    H226668   5.192   4.004   4.171 -2.2978 -1.2960 -1.9460
 8902TIP3   OH226669   2.846   0.183   0.490  0.0586 -0.2235 -0.0030
 8902TIP3    H126670   2.940   0.193   0.499  0.0300  1.0013 -0.7490
 8902TIP3    H226671   2.825   0.229   0.409 -1.3914  1.0852  1.0441
 8903TIP3   OH226672   1.352   6.412   3.444  0.2499  0.0131  0.4352
 8903TIP3    H126673   1.304   6.469   3.385  0.1614 -0.9740 -0.4671
 8903TIP3    H226674   1.284   6.364   3.492  0.3151  0.8994  1.4749
 8904TIP3   OH226675   3.522   5.985   0.954  0.4004 -0.3584 -0.0139
 8904TIP3    H126676   3.562   6.067   0.926  0.7268 -0.5478 -0.1050
 8904TIP3    H226677   3.591   5.919   0.942  0.3613 -0.5305  0.7101
 8905TIP3   OH226678   6.760   1.477   5.126 -0.0473  0.1429  0.4608
 8905TIP3    H126679   6.827   1.531   5.169 -0.1401 -0.4809  1.4123
 8905TIP3    H226680   6.682   1.487   5.181 -0.0702 -0.9393  0.6452
 8906TIP3   OH226681   3.225   6.222   4.734  0.1141  0.1274  0.5155
 8906TIP3    H126682   3.310   6.179   4.721 -0.5663 -1.3621  0.8619
 8906TIP3    H226683   3.246   6.299   4.788  1.2587 -0.1610  0.5203
 8907TIP3   OH226684   0.241   2.581   2.720  0.5530  0.0703  0.2374
 8907TIP3    H126685   0.157   2.606   2.759 -1.1474 -2.5338 -1.4351
 8907TIP3    H226686   0.294   2.660   2.725 -2.1397  1.9888  0.9481
 8908TIP3   OH226687   2.822   6.172   4.022  0.0497 -0.3999  0.3846
 8908TIP3    H126688   2.899   6.123   4.052  2.5500  1.9502 -1.6782
 8908TIP3    H226689   2.805   6.138   3.934 -0.5615 -0.0834  0.3790
 8909TIP3   OH226690   5.042   2.253   1.054  0.4990 -0.1667  0.4455
 8909TIP3    H126691   4.954   2.287   1.071  0.0822 -1.5208  1.1695
 8909TIP3    H226692   5.049   2.177   1.112  1.6205 -0.9196 -0.6523
 8910TIP3   OH226693   1.163   3.511   0.534  0.0235 -0.3790 -0.6002
 8910TIP3    H126694   1.101   3.470   0.594 -0.6570 -0.8749 -1.6183
 8910TIP3    H226695   1.247   3.505   0.579 -0.2507 -1.9135 -0.2508
 8911TIP3   OH226696   4.312   2.278   5.010 -0.1936  0.6182 -0.9464
 8911TIP3    H126697   4.365   2.335   5.066 -1.7250  0.9886  0.2008
 8911TIP3    H226698   4.344   2.190   5.030  0.0675  0.8362 -0.3542
 8912TIP3   OH226699   2.661   2.198   4.772 -0.2165 -0.0513 -0.0192
 8912TIP3    H126700   2.690   2.227   4.685 -1.5995  0.1599 -0.4388
 8912TIP3    H226701   2.597   2.130   4.754 -0.2230 -0.2851  0.8559
 8913TIP3   OH226702   1.562   3.595   5.567 -0.3844  0.6675 -0.1127
 8913TIP3    H126703   1.642   3.548   5.543 -0.7089 -0.5802  1.0938
 8913TIP3    H226704   1.592   3.682   5.592  0.4200  0.6807 -1.0801
 8914TIP3   OH226705   1.197   4.418   4.572  0.0962 -0.5742  0.4097
 8914TIP3    H126706   1.257   4.410   4.646  1.8914  0.0761 -0.8986
 8914TIP3    H226707   1.232   4.358   4.506 -0.4394  0.1117 -0.5201
 8915TIP3   OH226708   4.240   3.888   0.604  0.5054  0.1531  0.1034
 8915TIP3    H126709   4.215   3.825   0.537 -2.1571 -0.6703  1.7029
 8915TIP3    H226710   4.179   3.961   0.592  1.6050  1.0965  0.1330
 8916TIP3   OH226711   4.844   0.282   1.377 -0.3813  0.0058  0.1662
 8916TIP3    H126712   4.851   0.193   1.411  0.3908  0.0692  0.2069
 8916TIP3    H226713   4.898   0.280   1.297  0.4324  0.6779  0.6884
 8917TIP3   OH226714   1.722   2.453   5.133 -0.1292 -0.2413 -0.0816
 8917TIP3    H126715   1.798   2.512   5.126 -1.2127  1.0663 -1.7664
 8917TIP3    H226716   1.743   2.395   5.206  2.3258  0.3090 -0.2623
 8918TIP3   OH226717   6.213   6.642   3.430  0.5170  0.0819  0.1026
 8918TIP3    H126718   6.226   6.719   3.485 -0.3614  1.0604 -1.0212
 8918TIP3    H226719   6.132   6.658   3.383  1.7797 -0.1525 -2.3570
 8919TIP3   OH226720   0.284   4.439   0.030 -0.9229 -0.2945  0.3334
 8919TIP3    H126721   0.246   4.355   0.056 -2.4991  0.4111  0.4261
 8919TIP3    H226722   0.327   4.470   0.110  0.5401 -1.4245  0.0357
 8920TIP3   OH226723   0.843   3.609   1.445  0.0022  0.3016  0.6744
 8920TIP3    H126724   0.915   3.672   1.447  0.1719  0.2223 -1.3102
 8920TIP3    H226725   0.773   3.654   1.398  0.7697 -1.5208 -2.5207
 8921TIP3   OH226726   6.535   4.630   0.352 -0.3736  0.4784 -0.2196
 8921TIP3    H126727   6.465   4.694   0.345  0.3819  1.4270  0.7104
 8921TIP3    H226728   6.615   4.679   0.333 -0.0358 -0.9133 -2.9041
 8922TIP3   OH226729   1.963   2.421   3.356  0.3213  0.6218  0.0480
 8922TIP3    H126730   1.903   2.407   3.429 -0.7034  2.4847 -0.3692
 8922TIP3    H226731   2.035   2.472   3.392 -0.2420  1.6422 -0.2386
 8923TIP3   OH226732   5.355   5.346   2.632 -0.1274  0.5501 -0.6039
 8923TIP3    H126733   5.352   5.311   2.543 -0.0834 -0.1510 -0.3403
 8923TIP3    H226734   5.341   5.440   2.622  0.2898  0.5381 -1.3882
 8924TIP3   OH226735   2.176   6.749   4.114 -0.1785 -0.2048  0.4021
 8924TIP3    H126736   2.091   6.775   4.149 -0.9783 -2.0132 -0.1212
 8924TIP3    H226737   2.222   6.710   4.189 -1.1975 -2.4117 -0.0368
 8925TIP3   OH226738   3.086   1.370   2.680 -0.7481 -0.3068 -0.1149
 8925TIP3    H126739   3.013   1.427   2.702  0.6299  1.0985  1.1380
 8925TIP3    H226740   3.060   1.326   2.599 -2.6216  0.7342 -0.1221
 8926TIP3   OH226741   6.540   2.457   0.122 -0.1498  0.2331 -0.2007
 8926TIP3    H126742   6.466   2.517   0.131  0.4637  1.0227 -0.3555
 8926TIP3    H226743   6.500   2.370   0.124 -1.3011  0.6573 -2.1963
 8927TIP3   OH226744   1.015   5.534   3.159  0.2451  0.2286  0.1097
 8927TIP3    H126745   0.932   5.558   3.200 -0.3754 -0.4618 -0.7047
 8927TIP3    H226746   0.991   5.478   3.085  1.4804 -0.9999  0.5690
 8928TIP3   OH226747   6.208   4.605   5.653 -0.0464  0.0624 -0.3735
 8928TIP3    H126748   6.235   4.515   5.634  0.8781  0.2913 -0.1849
 8928TIP3    H226749   6.260   4.630   5.730 -1.4753  0.2132  0.5662
 8929TIP3   OH226750   3.284   6.662   5.331 -0.3719  0.7529 -0.0457
 8929TIP3    H126751   3.235   6.740   5.358 -1.0937  0.4820 -0.5175
 8929TIP3    H226752   3.295   6.672   5.236 -0.7594  0.1457 -0.1677
 8930TIP3   OH226753   5.405   4.338   3.076 -0.2494  0.1745  0.5451
 8930TIP3    H126754   5.386   4.244   3.083 -1.0382  0.0365 -2.1784
 8930TIP3    H226755   5.483   4.350   3.129 -0.4457 -1.9125  1.4296
 8931TIP3   OH226756   0.981   5.112   5.259  0.7449  0.1137 -0.2408
 8931TIP3    H126757   0.905   5.097   5.316  0.8546  1.6807  0.3652
 8931TIP3    H226758   0.950   5.091   5.171  0.2985 -1.4491  0.2600
 8932TIP3   OH226759   3.645   4.538   2.214  0.0598  0.1619  0.4737
 8932TIP3    H126760   3.716   4.485   2.248 -0.4462  0.3060  1.8133
 8932TIP3    H226761   3.600   4.572   2.292 -2.4404 -1.1909 -0.2630
 8933TIP3   OH226762   0.580   0.562   1.759  0.3561  0.2868  0.2596
 8933TIP3    H126763   0.571   0.637   1.818  1.0092 -0.0552  0.8134
 8933TIP3    H226764   0.493   0.550   1.723  0.4941  2.0766 -0.8045
 8934TIP3   OH226765   5.757   4.455   0.048  0.5195  0.0799 -0.5731
 8934TIP3    H126766   5.843   4.449   0.006  0.2816 -0.5375 -0.9710
 8934TIP3    H226767   5.751   4.377   0.103  0.7533  0.7902  0.4890
 8935TIP3   OH226768   3.626   2.360   5.150  1.0540 -0.4846  0.3613
 8935TIP3    H126769   3.601   2.282   5.101  0.3205  0.5835 -1.0338
 8935TIP3    H226770   3.659   2.326   5.234 -2.0325 -2.1779  1.0390
 8936TIP3   OH226771   2.991   4.704   3.840  0.5044  0.3924 -0.2942
 8936TIP3    H126772   3.046   4.768   3.795 -0.1381  0.0510 -1.6339
 8936TIP3    H226773   3.049   4.661   3.902  1.2566  1.3701 -0.2984
 8937TIP3   OH226774   1.935   1.858   2.331 -0.5315  0.1893 -0.3185
 8937TIP3    H126775   1.850   1.891   2.301 -0.1175  0.4255 -1.2500
 8937TIP3    H226776   1.957   1.790   2.268 -0.7169 -0.9170  0.7845
 8938TIP3   OH226777   6.545   5.655   5.520  0.6029 -0.3304 -0.9315
 8938TIP3    H126778   6.620   5.632   5.465  1.6055  3.4053 -1.4172
 8938TIP3    H226779   6.519   5.742   5.490 -0.4411  0.8518  2.8172
 8939TIP3   OH226780   3.148   1.329   4.583  0.3050  0.1423  0.4904
 8939TIP3    H126781   3.172   1.275   4.659  1.9171 -0.1684 -0.2091
 8939TIP3    H226782   3.223   1.387   4.569 -0.5176  1.0982 -0.0848
 8940TIP3   OH226783   1.879   5.957   1.805  0.4271  0.1162  0.5162
 8940TIP3    H126784   1.797   5.919   1.836  0.9533  0.0251  1.8361
 8940TIP3    H226785   1.854   6.045   1.774 -0.3484 -0.3378 -0.1959
 8941TIP3   OH226786   4.094   3.731   3.105  0.1741  0.0794  0.0283
 8941TIP3    H126787   4.072   3.780   3.184  2.0418  1.6421 -0.3331
 8941TIP3    H226788   4.010   3.712   3.064 -0.6807  2.7602  0.3645
 8942TIP3   OH226789   1.591   3.149   2.753 -0.3033  0.1415 -0.4811
 8942TIP3    H126790   1.613   3.135   2.845 -1.0603  2.4082  0.0961
 8942TIP3    H226791   1.603   3.063   2.713  1.8824 -0.4964  1.3156
 8943TIP3   OH226792   0.109   0.718   1.657  0.2109  0.0324 -0.1411
 8943TIP3    H126793   0.092   0.720   1.752  0.3930 -2.6456  0.0457
 8943TIP3    H226794   0.023   0.731   1.617 -0.1207 -0.2743  0.4524
 8944TIP3   OH226795   0.704   5.048   3.926 -0.4968  0.2168  0.1516
 8944TIP3    H126796   0.738   4.962   3.902 -0.0729  0.0977  1.1754
 8944TIP3    H226797   0.755   5.075   4.002 -2.1180  0.3874  1.2233
 8945TIP3   OH226798   6.518   2.572   5.517 -0.2342 -0.3749  0.4455
 8945TIP3    H126799   6.483   2.593   5.431  1.6810 -1.2555 -0.6197
 8945TIP3    H226800   6.576   2.645   5.538 -0.4396 -0.3223  0.8455
 8946TIP3   OH226801   5.424   0.860   4.339 -0.0792  0.4050  0.0880
 8946TIP3    H126802   5.507   0.824   4.369 -1.0759 -0.9832  1.2561
 8946TIP3    H226803   5.381   0.892   4.418 -1.3734 -0.4034 -0.2636
 8947TIP3   OH226804   5.341   2.456   2.331 -0.0036  0.0099 -0.1049
 8947TIP3    H126805   5.265   2.429   2.384 -1.1769  1.2680 -1.0511
 8947TIP3    H226806   5.346   2.551   2.345  0.5112  0.1472 -1.1768
 8948TIP3   OH226807   0.644   1.473   1.599  0.3464  0.2038  0.5669
 8948TIP3    H126808   0.645   1.406   1.531  1.3113  0.6817  0.1063
 8948TIP3    H226809   0.730   1.467   1.640  0.8493  1.8628 -0.1779
 8949TIP3   OH226810   5.170   5.873   1.874 -0.8773  0.6754  0.2739
 8949TIP3    H126811   5.097   5.859   1.934 -0.5515  0.4646  0.6247
 8949TIP3    H226812   5.193   5.786   1.842  0.3647  0.5006  1.5306
 8950TIP3   OH226813   7.151   6.604   5.582  0.3298 -0.0707 -0.5916
 8950TIP3    H126814   7.115   6.518   5.600  0.2382 -0.1982 -1.3332
 8950TIP3    H226815   7.243   6.589   5.560  0.5016  0.1051 -0.0043
 8951TIP3   OH226816   6.899   0.844   2.879 -0.3192 -0.3854  0.2818
 8951TIP3    H126817   6.982   0.892   2.885 -0.3885 -0.3541  1.2531
 8951TIP3    H226818   6.840   0.903   2.832 -0.5583  0.7603  1.9082
 8952TIP3   OH226819   4.043   4.921   4.428 -0.4952 -0.3473 -0.0391
 8952TIP3    H126820   4.057   4.863   4.352 -1.3210  0.0305 -0.4818
 8952TIP3    H226821   4.057   5.009   4.393 -2.0891 -0.0835 -0.0550
 8953TIP3   OH226822   3.458   6.480   4.628  0.1353 -0.0741  0.2055
 8953TIP3    H126823   3.479   6.403   4.574 -0.5508 -0.4897  0.5071
 8953TIP3    H226824   3.370   6.504   4.599  0.3008  0.5296  0.2025
 8954TIP3   OH226825   7.204   4.400   0.586  0.2631  0.1035 -0.1081
 8954TIP3    H126826   7.255   4.409   0.506 -0.3937 -3.1843 -1.0650
 8954TIP3    H226827   7.116   4.378   0.555 -0.4540  0.5651  1.5159
 8955TIP3   OH226828   0.206   3.641   1.552  0.3764  0.4736  0.2440
 8955TIP3    H126829   0.227   3.549   1.543  4.8882  1.3426 -0.3689
 8955TIP3    H226830   0.191   3.654   1.646 -2.8443 -1.1535  0.0771
 8956TIP3   OH226831   3.673   3.760   1.595 -0.3131 -0.5933  0.1309
 8956TIP3    H126832   3.661   3.668   1.617  2.0621 -0.7222  1.2829
 8956TIP3    H226833   3.766   3.767   1.575  0.0196  1.8890  2.0404
 8957TIP3   OH226834   3.333   6.742   1.762 -0.0348 -0.0750 -0.5223
 8957TIP3    H126835   3.329   6.663   1.816  0.2323  0.1837 -0.1201
 8957TIP3    H226836   3.242   6.758   1.736 -0.3489  0.4708  0.8384
 8958TIP3   OH226837   4.944   1.856   4.698  0.3002 -0.2959  0.4123
 8958TIP3    H126838   5.004   1.791   4.736  2.1704  1.4729  0.6308
 8958TIP3    H226839   4.980   1.874   4.611 -0.1733  0.4673  0.3677
 8959TIP3   OH226840   1.670   4.762   3.662 -0.2542 -0.1127  0.2742
 8959TIP3    H126841   1.598   4.734   3.719  0.4169  0.8598  1.6402
 8959TIP3    H226842   1.734   4.690   3.667  0.3870  0.5258  1.8430
 8960TIP3   OH226843   4.472   2.456   0.253 -0.4186  0.6505 -0.2891
 8960TIP3    H126844   4.475   2.545   0.217  1.1841  0.6370 -0.2480
 8960TIP3    H226845   4.515   2.463   0.338 -0.9528 -0.0355  0.0442
 8961TIP3   OH226846   6.791   6.363   1.295 -0.3845 -0.9077 -0.1388
 8961TIP3    H126847   6.710   6.347   1.245  0.7473 -0.8609 -2.0753
 8961TIP3    H226848   6.841   6.282   1.286  0.8845 -0.0472 -1.1658
 8962TIP3   OH226849   4.826   4.293   0.872  0.3004 -0.2111 -0.0700
 8962TIP3    H126850   4.861   4.363   0.927 -1.6597  0.6961  0.1348
 8962TIP3    H226851   4.843   4.213   0.921 -0.3275  0.4693  1.3250
 8963TIP3   OH226852   1.816   2.148   2.035 -0.0133  0.1784 -0.3382
 8963TIP3    H126853   1.871   2.204   1.980 -0.3040 -0.7952 -1.6807
 8963TIP3    H226854   1.730   2.189   2.032 -0.4834 -0.8501 -2.1879
 8964TIP3   OH226855   0.983   3.964   1.024  0.0561 -0.1442  0.4413
 8964TIP3    H126856   0.912   4.011   1.068 -0.5726 -0.2755 -0.3864
 8964TIP3    H226857   1.048   3.949   1.092  0.1094  1.5816  0.8233
 8965TIP3   OH226858   2.241   0.230   5.711  0.7860  0.0324  0.2394
 8965TIP3    H126859   2.192   0.175   5.650 -0.9531 -0.1858  1.7571
 8965TIP3    H226860   2.301   0.169   5.755  0.1877 -0.3234  0.5837
 8966TIP3   OH226861   4.538   3.592   4.040 -0.0124 -0.2903 -0.4670
 8966TIP3    H126862   4.619   3.580   3.990  0.9049  0.9506  0.6899
 8966TIP3    H226863   4.558   3.660   4.104 -2.6351  1.7272 -1.6079
 8967TIP3   OH226864   3.527   4.117   1.990  0.1111  0.5259 -0.0692
 8967TIP3    H126865   3.561   4.055   1.925 -0.6329  0.3699 -0.3220
 8967TIP3    H226866   3.605   4.151   2.034  0.7481  1.6450 -1.9404
 8968TIP3   OH226867   1.173   3.305   2.183  0.7595  0.3206 -0.0260
 8968TIP3    H126868   1.264   3.286   2.161  0.2004 -1.0708 -1.2481
 8968TIP3    H226869   1.124   3.290   2.102 -0.5267  1.4073  0.5022
 8969TIP3   OH226870   5.117   4.601   0.597 -0.4679  0.1411  0.5876
 8969TIP3    H126871   5.028   4.606   0.632 -0.1386 -0.8556  1.5963
 8969TIP3    H226872   5.148   4.692   0.599 -0.9433  0.2930  1.6073
 8970TIP3   OH226873   7.168   2.422   0.983  0.4482  0.2477 -0.6585
 8970TIP3    H126874   7.077   2.449   0.972  0.2563 -0.4263 -0.7754
 8970TIP3    H226875   7.182   2.357   0.914  0.9917  0.2848 -0.5865
 8971TIP3   OH226876   5.474   4.414   5.052 -0.2369  0.0495 -0.0410
 8971TIP3    H126877   5.487   4.498   5.096  3.2501  0.6489 -1.8422
 8971TIP3    H226878   5.434   4.436   4.968 -2.6829 -0.6211  0.8361
 8972TIP3   OH226879   2.855   0.447   2.480  0.3537  0.1610  0.0461
 8972TIP3    H126880   2.802   0.373   2.450  1.3688 -0.8390  0.6324
 8972TIP3    H226881   2.930   0.407   2.524  0.9823  1.5458  0.3053
 8973TIP3   OH226882   5.910   2.754   2.615  0.0248 -0.1236  0.0797
 8973TIP3    H126883   5.942   2.736   2.526 -0.1463 -0.4081  0.0760
 8973TIP3    H226884   5.914   2.849   2.622  0.3154 -0.1157 -0.1298
 8974TIP3   OH226885   2.298   5.690   3.473 -0.1547 -0.2991 -0.4166
 8974TIP3    H126886   2.273   5.774   3.435 -1.1804 -0.1053  0.6502
 8974TIP3    H226887   2.268   5.625   3.409 -1.1106  0.0594 -0.3412
 8975TIP3   OH226888   0.020   5.675   3.794  0.1958  0.4689  0.2118
 8975TIP3    H126889  -0.048   5.650   3.856 -0.8908  0.9628 -0.7481
 8975TIP3    H226890   0.102   5.649   3.837 -0.5223  0.6307  1.7585
 8976TIP3   OH226891   1.392   0.902   4.640  0.0100 -0.4236  0.3654
 8976TIP3    H126892   1.363   0.816   4.671  3.2829 -1.3626  1.2564
 8976TIP3    H226893   1.402   0.954   4.720  0.0920  0.0908  0.0239
 8977TIP3   OH226894   5.938   1.423   4.179 -0.3742 -0.3282  0.0324
 8977TIP3    H126895   6.024   1.382   4.167  0.1239  0.4092  0.8521
 8977TIP3    H226896   5.882   1.353   4.212 -0.0045 -0.7504 -0.2233
 8978TIP3   OH226897   4.832   0.176   1.799 -0.4266  0.2169  0.1634
 8978TIP3    H126898   4.844   0.269   1.782  0.3954 -0.1771 -1.6597
 8978TIP3    H226899   4.835   0.135   1.712 -1.2925 -1.4574  0.8721
 8979TIP3   OH226900   0.653   1.552   1.971 -0.0883 -0.1842  0.0932
 8979TIP3    H126901   0.566   1.549   1.930 -0.1942  1.3506  0.1359
 8979TIP3    H226902   0.688   1.464   1.959 -0.5828 -0.1327 -2.2706
 8980TIP3   OH226903   5.882   4.708   0.365  0.3162 -0.8321  0.1870
 8980TIP3    H126904   5.862   4.757   0.445 -2.6318  1.0833 -1.5327
 8980TIP3    H226905   5.886   4.775   0.296  0.3683 -2.6115 -1.6271
 8981TIP3   OH226906   3.606   2.518   1.005  0.4765  0.0793  0.2322
 8981TIP3    H126907   3.560   2.595   0.972  0.2004 -0.2294 -0.1110
 8981TIP3    H226908   3.541   2.471   1.057  0.3054 -0.4987 -0.4768
 8982TIP3   OH226909   1.869   0.975   1.178  0.3618 -0.4143  0.0241
 8982TIP3    H126910   1.862   0.893   1.228  3.3295 -0.2899  0.8589
 8982TIP3    H226911   1.924   0.953   1.103  0.7068  0.6674 -0.0629
 8983TIP3   OH226912   0.125   1.955   2.363 -0.5333  0.6699 -0.2365
 8983TIP3    H126913   0.044   1.988   2.401 -0.2523  0.1333  0.8590
 8983TIP3    H226914   0.193   1.980   2.426  0.2122  1.3989 -1.2951
 8984TIP3   OH226915   4.582   5.825   4.934 -0.1293  0.3606 -0.3434
 8984TIP3    H126916   4.663   5.777   4.952 -0.0279 -0.2253 -2.1808
 8984TIP3    H226917   4.610   5.916   4.922 -0.0146  0.4999  0.8453
 8985TIP3   OH226918   1.695   0.946   5.719 -0.2302 -0.4319 -0.4392
 8985TIP3    H126919   1.771   0.998   5.746 -0.0761  0.1412 -1.8662
 8985TIP3    H226920   1.624   0.975   5.776  0.1687  0.4326 -0.3605
 8986TIP3   OH226921   6.114   6.111   2.565 -0.2638  0.5271  0.5436
 8986TIP3    H126922   6.114   6.075   2.653 -2.3133  0.2379  0.4620
 8986TIP3    H226923   6.051   6.182   2.567 -1.0264 -0.0588 -0.8848
 8987TIP3   OH226924   3.257   0.498   4.758 -0.0924 -0.3296 -0.0596
 8987TIP3    H126925   3.167   0.470   4.738 -0.2157  0.6521 -0.9873
 8987TIP3    H226926   3.265   0.487   4.852 -1.7610  1.0590  0.2994
 8988TIP3   OH226927   1.226   3.699   4.358  0.5400 -0.2258 -0.2510
 8988TIP3    H126928   1.150   3.713   4.414 -0.3223  1.0131 -1.6751
 8988TIP3    H226929   1.296   3.751   4.398 -0.1271  0.8208 -0.4401
 8989TIP3   OH226930   4.589   4.874   4.700 -0.4367 -0.5911  0.5384
 8989TIP3    H126931   4.600   4.834   4.614  2.4006 -0.6739  0.8497
 8989TIP3    H226932   4.569   4.966   4.682 -0.4210 -0.7305 -0.2051
 8990TIP3   OH226933   5.741   2.663   4.719  0.0356  0.2188  0.5621
 8990TIP3    H126934   5.824   2.632   4.755 -0.5184 -1.1489  0.7391
 8990TIP3    H226935   5.738   2.756   4.741  0.8038 -0.0527  1.9031
 8991TIP3   OH226936   3.593   2.817   2.037 -0.2292 -0.3177  0.5191
 8991TIP3    H126937   3.648   2.893   2.019  0.9125 -1.5284 -1.5228
 8991TIP3    H226938   3.634   2.775   2.112 -1.0526  1.1653  1.8742
 8992TIP3   OH226939   2.198   6.714   1.740 -0.4866 -0.0783  0.2907
 8992TIP3    H126940   2.132   6.783   1.737 -0.6031 -0.1253  1.2522
 8992TIP3    H226941   2.260   6.736   1.671 -1.4895 -0.0210 -0.6077
 8993TIP3   OH226942   6.768   5.727   4.728 -0.1792 -0.2863 -0.3938
 8993TIP3    H126943   6.758   5.634   4.749 -0.9376 -0.4429 -1.4259
 8993TIP3    H226944   6.788   5.728   4.635  0.0358  0.5836 -0.3398
 8994TIP3   OH226945   6.155   4.170   0.875 -0.3947  0.8878  0.1724
 8994TIP3    H126946   6.132   4.162   0.967 -0.0242 -1.8012  0.1152
 8994TIP3    H226947   6.072   4.179   0.829 -0.6237  1.4516  0.6820
 8995TIP3   OH226948   0.143   6.108   2.811 -0.0356 -0.1796  0.6369
 8995TIP3    H126949   0.123   6.154   2.730 -0.7573 -0.7045  0.5039
 8995TIP3    H226950   0.185   6.173   2.866 -3.0990  1.3742  1.3581
 8996TIP3   OH226951   3.000   4.617   0.512  0.0911  0.0899  0.0644
 8996TIP3    H126952   2.980   4.694   0.459 -1.1977  0.9925  1.7537
 8996TIP3    H226953   2.930   4.555   0.492  0.0949  0.0920  0.0454
 8997TIP3   OH226954   1.712   5.989   3.208 -0.2101 -0.1412  0.2519
 8997TIP3    H126955   1.623   5.953   3.204 -0.2269 -0.7944  3.4762
 8997TIP3    H226956   1.701   6.084   3.202 -0.9312 -0.2812 -0.8720
 8998TIP3   OH226957   5.437   4.713   3.497 -0.2655 -0.1731  0.1465
 8998TIP3    H126958   5.520   4.682   3.534  0.8730  1.4866 -0.9112
 8998TIP3    H226959   5.378   4.719   3.573  0.6312 -1.0976  0.9591
 8999TIP3   OH226960   3.298   3.813   3.445 -0.2253 -0.0204  0.2153
 8999TIP3    H126961   3.352   3.892   3.454  1.0427 -1.1056  3.0572
 8999TIP3    H226962   3.260   3.800   3.532 -1.4926 -1.8468 -0.5543
 9000TIP3   OH226963   0.767   5.487   4.645  0.4345 -0.1948 -0.0421
 9000TIP3    H126964   0.686   5.436   4.646 -1.3557  2.4451  0.7578
 9000TIP3    H226965   0.790   5.494   4.552 -1.0428  0.1146 -0.4057
 9001TIP3   OH226966   4.762   0.797   1.923 -0.5167  0.5205  0.4571
 9001TIP3    H126967   4.840   0.746   1.944 -0.5112  0.9075  1.4535
 9001TIP3    H226968   4.689   0.737   1.942 -0.4758  0.3183 -0.0159
 9002TIP3   OH226969   6.060   2.874   4.145  0.2331  0.4709 -0.1488
 9002TIP3    H126970   6.140   2.825   4.125  0.1131  0.0204  0.4329
 9002TIP3    H226971   6.089   2.964   4.159  0.9669 -0.0273  2.0198
 9003TIP3   OH226972   1.672   1.257   5.435 -0.2610  0.0556 -0.1249
 9003TIP3    H126973   1.691   1.299   5.351  0.9048 -0.4246 -0.1205
 9003TIP3    H226974   1.716   1.172   5.430  0.9263  0.5263  1.4486
 9004TIP3   OH226975   5.099   5.365   2.842  0.5392 -0.8206 -0.2449
 9004TIP3    H126976   5.100   5.304   2.915  1.3797 -0.7913 -0.2248
 9004TIP3    H226977   5.173   5.424   2.859  0.4533 -0.5251 -0.8733
 9005TIP3   OH226978   0.934   2.834   0.425  0.0320  0.2737 -0.2680
 9005TIP3    H126979   1.019   2.798   0.397 -0.0764 -0.2672  0.0967
 9005TIP3    H226980   0.953   2.926   0.446  0.4185  0.2951 -0.6934
 9006TIP3   OH226981   5.232   0.085   4.058 -0.2279 -0.3196  0.0829
 9006TIP3    H126982   5.238   0.168   4.011 -0.6057 -0.1501  0.3329
 9006TIP3    H226983   5.267   0.021   3.997  0.2385  0.0517 -0.0392
 9007TIP3   OH226984   6.279   2.083   4.415  0.4479 -0.6884  0.1049
 9007TIP3    H126985   6.202   2.127   4.453  0.1927 -0.3235 -0.8249
 9007TIP3    H226986   6.266   2.089   4.321  1.5278 -0.8040 -0.0577
 9008TIP3   OH226987   1.700   6.010   3.661  0.4317 -0.9454  0.1527
 9008TIP3    H126988   1.776   6.068   3.655  0.2326 -0.7993 -1.0798
 9008TIP3    H226989   1.713   5.945   3.592 -1.6394  0.4120 -1.6545
 9009TIP3   OH226990   3.962   4.960   1.296 -0.4846  0.1234  0.1486
 9009TIP3    H126991   3.897   4.993   1.234 -0.6070 -0.7759 -0.2235
 9009TIP3    H226992   3.994   5.037   1.341 -1.2684  0.6630 -0.1979
 9010TIP3   OH226993   6.530   2.549   3.978 -0.3141  0.1458 -0.2833
 9010TIP3    H126994   6.541   2.497   4.058 -1.8959  0.4043  0.1288
 9010TIP3    H226995   6.619   2.569   3.950  0.2849  1.0316  2.0565
 9011TIP3   OH226996   5.564   2.189   3.395  0.0286 -0.3623 -0.3042
 9011TIP3    H126997   5.564   2.098   3.425  1.6286 -0.0056  0.8859
 9011TIP3    H226998   5.601   2.239   3.468 -1.3519  1.3495 -0.6942
 9012TIP3   OH226999   2.732   6.255   4.274 -0.3010  0.0745 -0.7139
 9012TIP3    H127000   2.761   6.219   4.190  3.5121 -0.8004  0.7545
 9012TIP3    H227001   2.800   6.319   4.297 -1.1758  0.2196  1.7555
 9013TIP3   OH227002   4.488   0.991   5.304 -0.4911 -0.6634 -0.2205
 9013TIP3    H127003   4.577   1.022   5.286 -0.4961  0.2520  1.1860
 9013TIP3    H227004   4.471   0.927   5.234  0.1809  1.1887 -2.2081
 9014TIP3   OH227005   1.381   3.846   4.529  0.0087 -0.2101 -0.1880
 9014TIP3    H127006   1.410   3.824   4.617  1.4140  0.9252 -0.3253
 9014TIP3    H227007   1.454   3.897   4.491 -0.6035 -0.5584 -1.9535
 9015TIP3   OH227008   2.079   3.292   4.675  0.6156 -0.1588 -0.0193
 9015TIP3    H127009   2.125   3.334   4.602  0.8844  0.3391  0.4296
 9015TIP3    H227010   2.063   3.363   4.737  2.5368 -0.9670  1.5147
 9016TIP3   OH227011   4.401   5.371   1.278 -0.4139 -0.0846 -0.2014
 9016TIP3    H127012   4.361   5.315   1.212 -0.8297  1.2691 -1.1466
 9016TIP3    H227013   4.344   5.361   1.355  0.3846 -2.0966  0.1932
 9017TIP3   OH227014   6.814   0.480   2.900  0.7075  0.3292  0.4592
 9017TIP3    H127015   6.880   0.416   2.877  0.0782  0.2231 -1.1412
 9017TIP3    H227016   6.770   0.442   2.976 -0.0927 -1.5012 -0.8512
 9018TIP3   OH227017   5.514   2.982   1.336  0.4265  0.9487 -0.3239
 9018TIP3    H127018   5.457   3.008   1.264 -0.0092  1.5785  0.2271
 9018TIP3    H227019   5.495   2.889   1.349  0.3424  0.8878 -0.8698
 9019TIP3   OH227020   7.157   2.753   3.513  0.5669  0.4508  0.0098
 9019TIP3    H127021   7.217   2.748   3.438  1.2676 -0.2239  0.5902
 9019TIP3    H227022   7.191   2.825   3.566  0.5617  0.4032  0.0785
 9020TIP3   OH227023   7.152   0.477   3.096 -0.1421 -0.5031 -0.0501
 9020TIP3    H127024   7.111   0.433   3.022 -0.1790  0.3097 -0.5283
 9020TIP3    H227025   7.083   0.536   3.129  0.2993  0.1041 -0.2030
 9021TIP3   OH227026   3.682   1.485   1.412 -0.3269 -0.2759  0.2171
 9021TIP3    H127027   3.686   1.567   1.363 -1.1937  0.5030  1.3841
 9021TIP3    H227028   3.639   1.508   1.494  0.3147 -1.6975  1.0048
 9022TIP3   OH227029   2.092   2.572   1.237  0.2041  0.3592  0.1050
 9022TIP3    H127030   2.054   2.624   1.166 -1.6510  0.5527  1.1960
 9022TIP3    H227031   2.019   2.522   1.273  1.3998 -0.8496  0.9432
 9023TIP3   OH227032   3.862   6.452   3.673 -0.1027 -0.3283 -0.0379
 9023TIP3    H127033   3.831   6.542   3.664  2.4625  0.5622 -0.6915
 9023TIP3    H227034   3.913   6.435   3.594  0.6344 -1.8559  0.7035
 9024TIP3   OH227035   3.170   4.027   0.683  0.2904  0.2069 -0.0457
 9024TIP3    H127036   3.156   4.012   0.589  1.9523 -0.7065 -0.1926
 9024TIP3    H227037   3.083   4.018   0.722 -0.0285 -2.2686 -1.1513
 9025TIP3   OH227038   2.312   5.491   0.643  0.1849 -0.3866 -0.4095
 9025TIP3    H127039   2.365   5.448   0.576 -0.8282  0.1198 -1.5786
 9025TIP3    H227040   2.225   5.453   0.632 -0.1180  0.1016  0.2657
 9026TIP3   OH227041   1.155   0.152   5.175  0.3457 -0.0427  0.4286
 9026TIP3    H127042   1.237   0.160   5.126  0.5784  0.8974  0.9388
 9026TIP3    H227043   1.135   0.059   5.173 -0.1004  0.0348 -2.1663
 9027TIP3   OH227044   6.020   3.378   2.212 -0.0556 -0.0313 -0.5341
 9027TIP3    H127045   5.999   3.299   2.261  0.6451 -0.4167 -0.8378
 9027TIP3    H227046   6.087   3.350   2.149 -1.1131  0.3837 -1.8812
 9028TIP3   OH227047   0.871   6.453   3.871  0.3761 -0.2217  0.6119
 9028TIP3    H127048   0.903   6.490   3.953 -1.7214 -1.6978  2.1783
 9028TIP3    H227049   0.830   6.371   3.895 -0.2464 -0.7654 -1.9574
 9029TIP3   OH227050   0.034   5.311   4.498 -0.2097 -0.5286  0.9646
 9029TIP3    H127051   0.032   5.391   4.446 -1.3482 -0.5438  0.9650
 9029TIP3    H227052   0.036   5.240   4.434  0.5619 -0.5217  0.9648
 9030TIP3   OH227053   6.711   1.265   0.267  0.1286 -0.0854  0.2117
 9030TIP3    H127054   6.768   1.337   0.239  0.8098 -0.4462  0.6284
 9030TIP3    H227055   6.768   1.210   0.321 -0.2092 -1.2851 -0.6365
 9031TIP3   OH227056   2.588   5.952   5.622 -0.0347 -0.2614  0.3362
 9031TIP3    H127057   2.529   5.897   5.674 -0.2022  1.3234  1.9307
 9031TIP3    H227058   2.658   5.976   5.683  0.5405  0.4956 -0.5986
 9032TIP3   OH227059   0.718   0.923   4.113 -0.3058  0.3493 -0.5148
 9032TIP3    H127060   0.759   1.008   4.131  1.2075 -0.6020  0.7480
 9032TIP3    H227061   0.773   0.860   4.158 -1.2463 -1.3585 -1.6582
 9033TIP3   OH227062   4.390   3.328   5.137  0.1795 -0.3323 -0.4730
 9033TIP3    H127063   4.360   3.358   5.222  0.8760  0.5463 -0.5230
 9033TIP3    H227064   4.461   3.388   5.114  0.4185 -0.9454 -1.3848
 9034TIP3   OH227065   2.427   5.049   3.363 -0.4002 -0.4684  0.0219
 9034TIP3    H127066   2.378   4.985   3.311 -0.0854  0.2134 -1.1585
 9034TIP3    H227067   2.501   5.073   3.307 -0.9833  1.5804  0.0576
 9035TIP3   OH227068   6.534   2.949   5.882 -0.5200 -0.0076  0.5278
 9035TIP3    H127069   6.571   2.863   5.897 -0.9954  0.0878  2.5479
 9035TIP3    H227070   6.440   2.934   5.870 -0.9234  0.3223  2.8130
 9036TIP3   OH227071   0.538   6.392   1.844  0.4983 -0.1515 -0.3244
 9036TIP3    H127072   0.478   6.333   1.798  1.5547 -1.1018 -0.5157
 9036TIP3    H227073   0.498   6.403   1.931  0.9075 -2.2294  0.1981
 9037TIP3   OH227074   1.847   3.038   1.725  0.0487 -0.7523  0.2840
 9037TIP3    H127075   1.798   2.955   1.728  0.7623 -1.1645  0.9491
 9037TIP3    H227076   1.791   3.097   1.675 -0.6898 -1.4989  0.2049
 9038TIP3   OH227077   2.995   2.685   4.825 -0.1581 -0.6957 -0.5272
 9038TIP3    H127078   2.955   2.745   4.888  0.4412 -1.4554  0.6098
 9038TIP3    H227079   2.981   2.598   4.863  1.1307 -1.0909 -0.9029
 9039TIP3   OH227080   1.560   3.460   4.006 -0.3463  0.3627  0.3715
 9039TIP3    H127081   1.625   3.435   4.072 -0.3114  1.4121  0.7400
 9039TIP3    H227082   1.502   3.522   4.051  0.1282  1.6784 -0.7971
 9040TIP3   OH227083   3.508   1.532   4.795  0.5737  0.3438 -0.0759
 9040TIP3    H127084   3.601   1.548   4.810  0.6773 -1.1784  1.1995
 9040TIP3    H227085   3.506   1.468   4.723  0.4357  1.3268 -0.9671
 9041TIP3   OH227086   5.904   5.678   5.026  0.2737 -0.4589 -0.3608
 9041TIP3    H127087   5.925   5.772   5.030 -1.0543 -0.1518  0.0791
 9041TIP3    H227088   5.860   5.668   4.941 -1.0844 -0.3243  0.3016
 9042TIP3   OH227089   4.129   0.821   0.396  0.2717  0.2530  0.1328
 9042TIP3    H127090   4.113   0.728   0.408  0.0378  0.5066  2.1340
 9042TIP3    H227091   4.055   0.852   0.344 -0.1171 -0.5110  0.2164
 9043TIP3   OH227092   0.901   3.982   4.591 -0.0570 -0.1008 -0.3771
 9043TIP3    H127093   0.950   4.032   4.526  1.2618 -1.0530 -0.1625
 9043TIP3    H227094   0.967   3.951   4.653 -1.0802 -0.5459  0.5309
 9044TIP3   OH227095   6.634   5.732   0.690  0.1908  0.5490 -0.2500
 9044TIP3    H127096   6.720   5.769   0.670  0.4824  0.5221  0.8585
 9044TIP3    H227097   6.623   5.747   0.784 -0.4700 -0.5552 -0.1291
 9045TIP3   OH227098   5.029   6.120   4.269 -0.1691  0.0200  0.2256
 9045TIP3    H127099   5.021   6.186   4.199 -1.9271  0.2101  0.5697
 9045TIP3    H227100   5.076   6.047   4.228  1.2655  1.2030 -0.3400
 9046TIP3   OH227101   6.199   3.594   2.465  0.3820  0.0101 -0.2983
 9046TIP3    H127102   6.219   3.680   2.502  0.7174 -0.1844 -0.0220
 9046TIP3    H227103   6.107   3.600   2.439  0.1998  0.2309  0.3637
 9047TIP3   OH227104   1.432   0.245   2.329  0.0109 -0.1226 -0.3302
 9047TIP3    H127105   1.380   0.264   2.406 -1.6088 -0.7951 -1.2049
 9047TIP3    H227106   1.515   0.291   2.343 -0.5822  0.4730  1.3829
 9048TIP3   OH227107   2.244   3.407   5.271  0.2847 -0.0230  0.8416
 9048TIP3    H127108   2.301   3.342   5.311  0.9484  0.1332  0.1872
 9048TIP3    H227109   2.260   3.487   5.320 -1.5550 -0.6335  2.5462
 9049TIP3   OH227110   7.069   1.836   3.393  0.5002  0.4334  0.6185
 9049TIP3    H127111   7.141   1.865   3.338  0.6201  0.8297  0.9809
 9049TIP3    H227112   7.090   1.869   3.480  0.2929 -0.1563  0.8989
 9050TIP3   OH227113   1.942   1.423   1.406  0.1800  0.6118 -0.3821
 9050TIP3    H127114   1.905   1.383   1.327  1.2929 -1.6731  0.1782
 9050TIP3    H227115   2.032   1.389   1.410 -0.4311 -0.9080  2.8767
 9051TIP3   OH227116   0.747   4.403   1.912 -0.3114 -0.1683  0.1723
 9051TIP3    H127117   0.685   4.375   1.845  2.0831 -1.5855 -1.5997
 9051TIP3    H227118   0.753   4.328   1.972 -0.3704 -0.0142  0.3712
 9052TIP3   OH227119   3.815   2.566   5.331  0.1822  0.5228  0.6449
 9052TIP3    H127120   3.725   2.592   5.314  0.5012  1.6733  0.6573
 9052TIP3    H227121   3.811   2.471   5.344 -0.9333  0.4788  0.0619
 9053TIP3   OH227122   6.957   1.445   1.655  0.1015  0.1426  0.1952
 9053TIP3    H127123   6.909   1.424   1.736 -3.1551  0.4552 -1.4620
 9053TIP3    H227124   6.951   1.540   1.648  0.8368  0.1678 -0.1586
 9054TIP3   OH227125   0.913   3.274   1.782 -0.2491 -0.0009 -0.0646
 9054TIP3    H127126   0.860   3.198   1.758 -0.3768 -0.4861  1.6380
 9054TIP3    H227127   0.996   3.237   1.812 -0.2161  0.5387  0.5217
 9055TIP3   OH227128   4.205   6.367   0.655  0.2762  0.5016  0.3344
 9055TIP3    H127129   4.193   6.316   0.735 -1.6010 -0.8983 -0.7742
 9055TIP3    H227130   4.253   6.445   0.684 -1.2884  0.5859  3.0151
 9056TIP3   OH227131   5.998   3.834   5.417 -0.1833  0.7641 -0.2678
 9056TIP3    H127132   6.077   3.869   5.375 -0.2323  1.7087  0.4082
 9056TIP3    H227133   5.974   3.758   5.363 -0.1822  1.8661 -1.8662
 9057TIP3   OH227134   1.184   1.143   2.958 -0.4049 -0.1618 -0.2830
 9057TIP3    H127135   1.216   1.232   2.966  0.3052 -0.1788 -2.2753
 9057TIP3    H227136   1.158   1.118   3.047 -1.3033  2.2430  0.2090
 9058TIP3   OH227137   3.506   1.927   3.873  0.5215  0.2544 -0.5198
 9058TIP3    H127138   3.540   2.009   3.909 -1.3042  0.3933  1.0150
 9058TIP3    H227139   3.508   1.940   3.778  2.4465  1.1366 -0.4028
 9059TIP3   OH227140   3.333   6.286   4.420 -0.2646 -0.2714  0.2865
 9059TIP3    H127141   3.256   6.230   4.413 -1.1116  0.8288  0.5996
 9059TIP3    H227142   3.396   6.247   4.360 -0.8934 -1.4463  0.3577
 9060TIP3   OH227143   6.268   3.972   1.189  0.7894  0.0453  0.0867
 9060TIP3    H127144   6.251   3.932   1.275 -0.2502  0.6245  0.1707
 9060TIP3    H227145   6.336   4.037   1.205 -0.7055  1.4981  0.9021
 9061TIP3   OH227146   6.728   2.440   0.735 -0.0136 -0.1000  0.5159
 9061TIP3    H127147   6.739   2.347   0.714 -0.7658  0.1369 -1.1093
 9061TIP3    H227148   6.811   2.480   0.709  0.2194 -0.2804  0.9811
 9062TIP3   OH227149   3.368   4.903   0.884 -0.0620 -0.0181  0.2638
 9062TIP3    H127150   3.442   4.848   0.906 -0.9680 -1.3080  0.2110
 9062TIP3    H227151   3.369   4.973   0.949  0.6509 -0.5338  0.8145
 9063TIP3   OH227152   0.460   5.411   4.375 -0.1390 -0.0223 -0.2452
 9063TIP3    H127153   0.439   5.326   4.336 -0.6177  0.5819 -1.3598
 9063TIP3    H227154   0.375   5.452   4.391 -0.0339 -0.7080  2.6220
 9064TIP3   OH227155   0.700   5.273   4.218  0.6003  0.5852  0.0279
 9064TIP3    H127156   0.651   5.201   4.256  0.8740 -0.7692 -1.9922
 9064TIP3    H227157   0.639   5.314   4.156  0.9445  1.0800  0.0096
 9065TIP3   OH227158   5.795   3.417   1.428  0.2876 -1.2170  0.2438
 9065TIP3    H127159   5.731   3.403   1.358  0.7000 -0.4570 -0.3120
 9065TIP3    H227160   5.779   3.507   1.458  0.0623 -1.5641  1.1927
 9066TIP3   OH227161   5.204   0.880   2.470  0.4735  0.8210  0.4136
 9066TIP3    H127162   5.296   0.862   2.453  0.0864  0.1525 -1.1710
 9066TIP3    H227163   5.159   0.798   2.451 -0.4550  1.1275  1.1839
 9067TIP3   OH227164   7.201   1.628   5.851 -0.0138 -0.2881 -0.1011
 9067TIP3    H127165   7.124   1.661   5.804 -0.9215 -0.8415  0.9531
 9067TIP3    H227166   7.245   1.706   5.884 -1.3081 -0.0422  1.0956
 9068TIP3   OH227167   4.040   2.532   4.542 -0.6717 -0.2473  0.3979
 9068TIP3    H127168   4.004   2.596   4.479  1.4839 -0.3973 -1.1112
 9068TIP3    H227169   4.134   2.552   4.545 -0.4462 -1.3747  2.3115
 9069TIP3   OH227170   6.688   6.784   3.096  0.5682  0.3363  0.5364
 9069TIP3    H127171   6.676   6.699   3.137 -3.0053  0.2649 -0.3255
 9069TIP3    H227172   6.693   6.766   3.003 -0.1726  1.0298  0.3475
 9070TIP3   OH227173   0.175   5.300   1.767 -0.2185  0.1025 -0.0853
 9070TIP3    H127174   0.255   5.352   1.762 -0.1771  0.0146 -0.3431
 9070TIP3    H227175   0.105   5.364   1.779 -0.1307  0.1927 -0.0548
 9071TIP3   OH227176   1.020   1.083   2.281 -0.1237  0.2261  0.2199
 9071TIP3    H127177   1.084   1.031   2.328 -2.5599 -1.5592  1.8139
 9071TIP3    H227178   1.000   1.156   2.341  1.0317  1.3137 -0.6753
 9072TIP3   OH227179   6.914   4.128   1.402  0.7399 -0.7342  0.4352
 9072TIP3    H127180   6.923   4.124   1.307  1.2050 -1.9582  0.5179
 9072TIP3    H227181   6.821   4.146   1.416  0.4587 -1.6147 -0.2416
 9073TIP3   OH227182   2.847   4.690   0.782  0.8377 -0.4024 -0.0065
 9073TIP3    H127183   2.815   4.615   0.832  0.1079 -1.3564 -1.8084
 9073TIP3    H227184   2.933   4.709   0.819  1.2967 -2.5054  0.1297
 9074TIP3   OH227185   5.550   4.913   3.317 -0.0151 -0.6668 -0.3583
 9074TIP3    H127186   5.462   4.930   3.281 -0.5305  0.6662  1.3722
 9074TIP3    H227187   5.535   4.849   3.387  0.2604  0.0288  0.3578
 9075TIP3   OH227188   3.038   5.921   0.280  0.0760 -0.5212  0.1721
 9075TIP3    H127189   3.085   5.886   0.204  0.2101 -1.3680  0.6293
 9075TIP3    H227190   3.067   5.866   0.353 -1.8095 -1.2432  0.4346
 9076TIP3   OH227191   6.022   3.518   0.557 -0.3848  0.4922  0.1848
 9076TIP3    H127192   6.066   3.519   0.642 -3.4912  0.0785  1.9657
 9076TIP3    H227193   5.935   3.555   0.575 -1.3912 -0.2350 -2.6740
 9077TIP3   OH227194   0.427   2.662   4.565 -0.4243  0.0627 -0.6790
 9077TIP3    H127195   0.355   2.725   4.572  0.0109  0.3932  2.8958
 9077TIP3    H227196   0.404   2.607   4.490 -3.0108  1.8168 -1.2875
 9078TIP3   OH227197   4.643   4.788   1.774  0.1148 -0.1996  0.1076
 9078TIP3    H127198   4.676   4.854   1.834 -0.3122  0.1503 -0.0417
 9078TIP3    H227199   4.553   4.773   1.801  0.2308 -0.7747  0.1852
 9079TIP3   OH227200   5.726   6.142   4.507 -0.0195  0.5647  0.4491
 9079TIP3    H127201   5.726   6.187   4.422  1.6138 -1.0169 -0.4608
 9079TIP3    H227202   5.738   6.050   4.485 -1.2599 -0.1110  2.3454
 9080TIP3   OH227203   0.035   0.073   4.895 -0.1360 -0.3354 -0.0161
 9080TIP3    H127204   0.036   0.166   4.871 -1.1655 -0.2944  0.0850
 9080TIP3    H227205   0.000   0.028   4.818 -3.4123 -0.2075  1.2571
 9081TIP3   OH227206   5.688   3.028   2.459  0.1756 -0.6361  0.2942
 9081TIP3    H127207   5.627   3.028   2.533  0.8269  0.6719  0.8463
 9081TIP3    H227208   5.729   3.114   2.461  1.9946 -1.4398 -0.1069
 9082TIP3   OH227209   6.881   5.630   0.970  0.2940 -0.4065  0.4848
 9082TIP3    H127210   6.938   5.704   0.993 -0.6074  0.7032 -0.6562
 9082TIP3    H227211   6.792   5.666   0.974 -0.0754 -0.8406 -1.9259
 9083TIP3   OH227212   2.782   2.032   5.449  0.6955  0.6855  0.7152
 9083TIP3    H127213   2.766   1.996   5.361  3.7702 -2.1264  1.1032
 9083TIP3    H227214   2.834   2.111   5.433  0.3760  0.7600 -0.0127
 9084TIP3   OH227215   1.819   6.483   1.648  0.2391  0.2069  0.2034
 9084TIP3    H127216   1.812   6.537   1.569 -1.4877  2.7880  1.9493
 9084TIP3    H227217   1.874   6.534   1.707 -2.1475  0.6248  2.2399
 9085TIP3   OH227218   0.633   1.232   1.960 -0.4974 -0.5125 -0.1690
 9085TIP3    H127219   0.565   1.214   1.895 -1.4231  0.3729  0.5192
 9085TIP3    H227220   0.711   1.251   1.908 -1.3232  0.6317 -1.0561
 9086TIP3   OH227221   4.765   1.099   2.368  0.4672 -0.2318 -0.4888
 9086TIP3    H127222   4.809   1.018   2.344  2.0961  0.3356  0.4090
 9086TIP3    H227223   4.704   1.074   2.438 -0.9893 -1.0926 -2.0126
 9087TIP3   OH227224   4.467   2.865   0.604 -0.0694  0.2744 -0.8000
 9087TIP3    H127225   4.439   2.828   0.520  2.3832 -2.3071 -0.6565
 9087TIP3    H227226   4.540   2.922   0.581  1.5371 -1.5275 -0.4235
 9088TIP3   OH227227   1.212   1.943   4.794  0.1973  0.1439  0.0823
 9088TIP3    H127228   1.184   1.851   4.798 -3.0720  0.9735 -0.4627
 9088TIP3    H227229   1.225   1.960   4.701 -0.9955  0.6351 -0.0166
 9089TIP3   OH227230   0.585   3.152   2.393  0.1273  0.5628  0.0176
 9089TIP3    H127231   0.543   3.105   2.321  0.9191 -1.9929  1.1024
 9089TIP3    H227232   0.528   3.138   2.468  0.1749  1.7376  0.2927
 9090TIP3   OH227233   0.803   3.371   5.037  0.2281 -0.4328 -0.7675
 9090TIP3    H127234   0.747   3.415   5.101 -1.2516 -0.0377 -2.2415
 9090TIP3    H227235   0.775   3.280   5.038 -0.0202 -0.3622 -1.0606
 9091TIP3   OH227236   2.561   3.666   4.874 -0.1975  0.5837  0.4869
 9091TIP3    H127237   2.613   3.589   4.895 -0.4481  0.8711  2.3458
 9091TIP3    H227238   2.609   3.710   4.804  0.3677 -0.8200 -0.0338
 9092TIP3   OH227239   4.591   0.019   2.310  0.7967 -0.4170 -0.5097
 9092TIP3    H127240   4.497   0.006   2.300  0.8616 -1.4443  0.0910
 9092TIP3    H227241   4.626   0.006   2.222  0.3073  0.8758 -0.9285
 9093TIP3   OH227242   5.967   5.947   4.065 -0.4206 -0.1289  0.1595
 9093TIP3    H127243   6.048   5.979   4.025 -0.2438  1.9823  2.0078
 9093TIP3    H227244   5.899   5.973   4.003 -0.0988  2.5221  0.7895
 9094TIP3   OH227245   4.111   4.813   5.722 -0.8809 -0.2098 -0.2926
 9094TIP3    H127246   4.194   4.784   5.759 -1.0655  0.1641  0.4465
 9094TIP3    H227247   4.132   4.892   5.673 -0.9801  0.5980  0.9283
 9095TIP3   OH227248   6.038   1.370   3.355 -0.0660 -0.1142  0.2811
 9095TIP3    H127249   5.966   1.428   3.381  1.1196  1.7597 -0.3799
 9095TIP3    H227250   6.020   1.350   3.263  1.1532  1.9568 -0.4960
 9096TIP3   OH227251   1.067   0.556   4.439 -0.4264  0.1718  0.0168
 9096TIP3    H127252   1.138   0.578   4.379 -1.2290  1.2640 -0.5643
 9096TIP3    H227253   1.108   0.553   4.526  0.0948  2.1571 -0.1205
 9097TIP3   OH227254   4.522   6.312   3.254 -0.0849 -0.2111 -0.4951
 9097TIP3    H127255   4.470   6.386   3.223  0.6085  0.2496 -0.5614
 9097TIP3    H227256   4.610   6.347   3.265 -0.2089 -0.4185  1.6844
 9098TIP3   OH227257   3.762   3.397   2.257 -0.4985 -0.1657  0.1118
 9098TIP3    H127258   3.756   3.485   2.292 -0.8796  0.5639 -1.6660
 9098TIP3    H227259   3.738   3.406   2.165 -0.1793 -2.0678 -0.2079
 9099TIP3   OH227260   2.019   2.742   1.029  0.1867 -0.3476  0.1502
 9099TIP3    H127261   2.039   2.761   0.937 -2.7892 -0.6330 -0.6698
 9099TIP3    H227262   1.966   2.816   1.058  1.3381 -0.1162  1.7943
 9100TIP3   OH227263   0.605   1.214   4.438 -0.7229  0.0567  0.1794
 9100TIP3    H127264   0.685   1.163   4.447 -0.6884 -0.4262 -2.1231
 9100TIP3    H227265   0.535   1.151   4.455 -0.6571  0.4042  1.8833
 9101TIP3   OH227266   4.323   4.490   1.988  0.4163  0.0168 -0.4374
 9101TIP3    H127267   4.323   4.414   2.046 -0.5960 -0.6784 -1.3194
 9101TIP3    H227268   4.373   4.556   2.036  3.2287 -1.8679 -0.5297
 9102TIP3   OH227269   4.567   6.135   2.414 -0.0144  0.3339 -0.1923
 9102TIP3    H127270   4.555   6.160   2.505 -0.5629  0.5149 -0.3093
 9102TIP3    H227271   4.483   6.096   2.389  0.1996  0.1093 -0.5607
 9103TIP3   OH227272   0.284   3.291   3.810 -0.1582  0.0391  0.7491
 9103TIP3    H127273   0.309   3.283   3.718 -2.0069  0.5193  0.1693
 9103TIP3    H227274   0.332   3.220   3.853 -0.1652 -0.9455 -0.7748
 9104TIP3   OH227275   3.512   6.330   5.770 -0.0695  0.3527 -0.0231
 9104TIP3    H127276   3.576   6.277   5.721  0.8492  0.2429  1.2526
 9104TIP3    H227277   3.463   6.377   5.702  2.4777  1.7521 -1.0249
 9105TIP3   OH227278   3.152   2.723   2.273 -0.5380  0.4013  0.3126
 9105TIP3    H127279   3.154   2.671   2.353  0.1879  2.1605  1.4955
 9105TIP3    H227280   3.145   2.658   2.203  0.6663 -1.3156  1.6781
 9106TIP3   OH227281   1.690   1.348   0.459  0.2178  0.2733 -0.2233
 9106TIP3    H127282   1.697   1.263   0.501  1.9092  0.1219 -0.7327
 9106TIP3    H227283   1.699   1.329   0.365 -0.0883  0.9312 -0.3878
 9107TIP3   OH227284   0.373   4.984   2.957  0.0374  0.2219  0.5341
 9107TIP3    H127285   0.404   4.921   3.022 -0.0234 -1.2032 -0.7569
 9107TIP3    H227286   0.443   5.049   2.952  0.7404 -0.4831  0.9384
 9108TIP3   OH227287   0.504   2.959   3.065  0.0133  0.0007  0.1600
 9108TIP3    H127288   0.421   2.947   3.019 -0.4684  0.2649  0.9293
 9108TIP3    H227289   0.547   3.031   3.019  0.5710 -1.2062 -1.2593
 9109TIP3   OH227290   7.075   1.357   4.696 -0.4611 -0.6208  0.2273
 9109TIP3    H127291   7.037   1.270   4.689 -2.8227  0.3136  0.2512
 9109TIP3    H227292   7.014   1.405   4.753  1.6010  0.6333  1.4954
 9110TIP3   OH227293   1.057   6.245   2.485  0.1489  0.6549 -0.2988
 9110TIP3    H127294   1.135   6.222   2.534 -0.5076 -0.3489  0.3031
 9110TIP3    H227295   1.085   6.318   2.428  2.1570 -1.1641 -1.8199
 9111TIP3   OH227296   3.943   1.645   0.930 -0.5389  0.4795  0.1930
 9111TIP3    H127297   3.852   1.668   0.913 -0.2756  0.0339 -2.0463
 9111TIP3    H227298   3.961   1.570   0.873  1.0657  0.1887  1.0239
 9112TIP3   OH227299   3.195   1.323   5.692  0.0053 -0.8972 -0.3234
 9112TIP3    H127300   3.278   1.310   5.646 -0.6350 -0.9958 -1.4888
 9112TIP3    H227301   3.172   1.415   5.675 -0.4433 -1.0517 -0.5766
 9113TIP3   OH227302   2.095   6.495   1.346  0.7648 -0.0521 -0.6565
 9113TIP3    H127303   2.046   6.413   1.350 -0.2783  0.5951  1.5836
 9113TIP3    H227304   2.170   6.481   1.404  0.8535  0.3994 -0.6592
 9114TIP3   OH227305   6.230   5.783   5.914 -0.4065 -0.4904  0.4588
 9114TIP3    H127306   6.265   5.696   5.894 -1.6584 -0.6962 -1.0793
 9114TIP3    H227307   6.194   5.814   5.831 -0.3223  1.3529  1.0702
 9115TIP3   OH227308   4.089   5.494   4.632  0.1743 -0.2774 -0.6416
 9115TIP3    H127309   4.089   5.588   4.616 -0.3875 -0.1073  0.2774
 9115TIP3    H227310   4.162   5.480   4.693  0.5645 -0.5139 -1.1539
 9116TIP3   OH227311   2.360   3.794   4.216  0.5608  0.8214 -0.1189
 9116TIP3    H127312   2.282   3.833   4.174 -0.8173 -0.3895  1.2093
 9116TIP3    H227313   2.339   3.701   4.224  2.5692  0.2842 -0.5498
 9117TIP3   OH227314   4.918   2.283   3.022 -0.1456 -0.7871  0.2686
 9117TIP3    H127315   4.950   2.206   2.975  0.3506 -0.1924 -0.3849
 9117TIP3    H227316   4.972   2.355   2.990 -0.5051 -0.1885  0.9845
 9118TIP3   OH227317   3.296   4.278   0.702  0.3217 -0.7263 -0.0989
 9118TIP3    H127318   3.209   4.298   0.735  0.2686 -1.0052 -0.0617
 9118TIP3    H227319   3.291   4.186   0.676  0.7812 -0.9322  0.4983
 9119TIP3   OH227320   0.650   1.692   4.716  0.2571 -0.1685  0.1729
 9119TIP3    H127321   0.617   1.660   4.632  0.4981 -0.8231  0.3205
 9119TIP3    H227322   0.610   1.778   4.727 -0.0990 -0.2576 -0.4181
 9120TIP3   OH227323   3.516   4.581   2.443 -0.2740 -0.3370  0.2085
 9120TIP3    H127324   3.570   4.570   2.521  0.0381  0.0883  0.0570
 9120TIP3    H227325   3.429   4.602   2.476 -0.4205 -1.2874  0.4595
 9121TIP3   OH227326   6.045   4.993   3.415 -0.0528 -0.4880  0.1219
 9121TIP3    H127327   6.083   4.944   3.489 -0.1854 -0.0638  0.4750
 9121TIP3    H227328   5.961   5.024   3.449  1.0276  1.9927  0.7269
 9122TIP3   OH227329   0.225   6.047   1.034  0.5224 -1.1083  0.1183
 9122TIP3    H127330   0.320   6.034   1.041  0.8226  1.4607  2.2211
 9122TIP3    H227331   0.215   6.140   1.016 -1.6276 -1.5812 -1.4914
 9123TIP3   OH227332   1.925   3.758   5.045 -0.1232 -0.2881 -0.0453
 9123TIP3    H127333   2.006   3.708   5.035  1.5898  2.4609 -0.8094
 9123TIP3    H227334   1.871   3.731   4.970 -0.0607 -2.2692  0.5591
 9124TIP3   OH227335   6.395   5.060   2.787 -0.5217 -0.6400 -0.1461
 9124TIP3    H127336   6.445   5.134   2.823 -1.0978 -0.4991  0.3786
 9124TIP3    H227337   6.451   5.025   2.718  0.1930 -0.3224  0.2582
 9125TIP3   OH227338   6.313   2.401   5.542 -0.1962 -0.2768  0.0615
 9125TIP3    H127339   6.280   2.374   5.456 -0.5663 -1.2841  0.5084
 9125TIP3    H227340   6.393   2.451   5.522  0.6985 -1.9524 -0.8220
 9126TIP3   OH227341   1.145   0.071   1.324 -0.4648 -0.3373 -0.6578
 9126TIP3    H127342   1.107   0.152   1.291  0.6824  0.8661  0.8401
 9126TIP3    H227343   1.123   0.070   1.417 -0.2133 -1.6035 -0.5914
 9127TIP3   OH227344   2.387   0.197   4.832  0.2056 -0.4279 -0.7491
 9127TIP3    H127345   2.372   0.141   4.908  0.0274 -0.5210 -0.8529
 9127TIP3    H227346   2.344   0.280   4.853  0.5629 -0.2882 -0.5490
 9128TIP3   OH227347   6.931   6.481   4.776 -0.1626 -0.2001  0.1049
 9128TIP3    H127348   6.864   6.505   4.840  0.2478  1.3964 -0.0138
 9128TIP3    H227349   7.014   6.499   4.821  0.1426 -0.0692 -0.4988
 9129TIP3   OH227350   5.289   0.755   1.254  0.2121  0.2170  0.1158
 9129TIP3    H127351   5.290   0.659   1.247  2.2736  0.1619  0.6952
 9129TIP3    H227352   5.347   0.774   1.327 -0.4959  1.9233  0.2642
 9130TIP3   OH227353   1.068   4.643   4.652  0.2744 -0.4546 -0.7172
 9130TIP3    H127354   1.129   4.706   4.612 -0.4424  0.5683 -0.2593
 9130TIP3    H227355   1.100   4.558   4.625  2.8870 -0.0715  0.8028
 9131TIP3   OH227356   6.417   5.428   2.013 -0.4246  0.6129 -0.1912
 9131TIP3    H127357   6.465   5.345   2.013  0.1066  0.9145 -0.0528
 9131TIP3    H227358   6.476   5.489   2.057 -1.5113  0.6659  1.2717
 9132TIP3   OH227359   6.060   1.124   1.996 -0.5875 -0.1111 -0.0972
 9132TIP3    H127360   6.060   1.144   1.902  0.0620  0.2683 -0.0256
 9132TIP3    H227361   6.064   1.210   2.038  2.9771 -0.2527  0.2188
 9133TIP3   OH227362   5.231   1.680   3.504 -0.5534 -0.2441  0.3999
 9133TIP3    H127363   5.211   1.773   3.491  0.4078  0.2290  2.0942
 9133TIP3    H227364   5.263   1.674   3.594 -1.1683 -2.3291  0.5381
 9134TIP3   OH227365   4.558   6.380   5.182  0.2617 -0.2980  0.3489
 9134TIP3    H127366   4.607   6.381   5.100  0.5586 -0.1639  0.5273
 9134TIP3    H227367   4.617   6.339   5.245  0.2632  0.1385  0.6341
 9135TIP3   OH227368   0.245   3.188   5.152  0.1524  0.1063  0.5568
 9135TIP3    H127369   0.233   3.096   5.128 -2.8379  0.3541  0.7701
 9135TIP3    H227370   0.158   3.227   5.144  1.1231  2.6945  1.4855
 9136TIP3   OH227371   0.536   4.165   2.604  0.8093  0.4519 -0.1995
 9136TIP3    H127372   0.572   4.153   2.517 -0.5154  2.3123 -1.0674
 9136TIP3    H227373   0.592   4.232   2.644 -0.0603  1.4290 -0.5795
 9137TIP3   OH227374   2.563   3.068   1.019 -0.0643  0.1651 -0.0419
 9137TIP3    H127375   2.611   3.108   0.946  0.5084 -0.0191  0.2265
 9137TIP3    H227376   2.607   3.099   1.097 -2.3139  2.5432  0.4163
 9138TIP3   OH227377   5.112   1.512   0.091  0.0282  0.4403  0.6302
 9138TIP3    H127378   5.111   1.607   0.107 -2.8702  0.9022 -1.5719
 9138TIP3    H227379   5.023   1.483   0.110  0.6117 -1.6952  0.3506
 9139TIP3   OH227380   4.065   1.730   2.143 -0.1467 -0.5081 -0.3031
 9139TIP3    H127381   4.010   1.672   2.196  0.7325 -1.9954 -0.9402
 9139TIP3    H227382   4.078   1.682   2.061  0.4732  0.6908 -0.9312
 9140TIP3   OH227383   5.807   1.799   2.005  0.3205  0.1224 -0.3632
 9140TIP3    H127384   5.729   1.783   1.952  1.3830  0.9488 -2.2584
 9140TIP3    H227385   5.790   1.883   2.048 -0.9730 -1.0284  1.5105
 9141TIP3   OH227386   0.883   4.145   2.660  0.4006 -0.5435 -0.2486
 9141TIP3    H127387   0.959   4.183   2.704 -0.0036  0.1285 -0.1087
 9141TIP3    H227388   0.811   4.205   2.681 -0.4159 -1.7558  0.5374
 9142TIP3   OH227389   5.225   2.606   2.708  0.0619 -0.3151 -0.1406
 9142TIP3    H127390   5.235   2.624   2.615  1.6188 -2.2060 -0.3989
 9142TIP3    H227391   5.306   2.636   2.748  0.8838 -2.5548  0.0263
 9143TIP3   OH227392   1.118   0.505   2.240 -0.4924 -0.3004 -0.2790
 9143TIP3    H127393   1.187   0.495   2.306  0.2882 -0.2047 -1.0575
 9143TIP3    H227394   1.037   0.483   2.286 -0.3450  2.4121  1.5144
 9144TIP3   OH227395   6.576   5.733   4.337 -0.2268  0.1625 -0.1538
 9144TIP3    H127396   6.658   5.687   4.355 -1.0822 -1.1985  0.3421
 9144TIP3    H227397   6.511   5.664   4.326 -1.7150  1.2278  1.4534
 9145TIP3   OH227398   3.867   5.361   4.216 -0.2746 -0.8542 -0.4367
 9145TIP3    H127399   3.835   5.271   4.217  0.4911 -1.1318  0.5995
 9145TIP3    H227400   3.880   5.383   4.309  0.9776 -0.1976 -0.7421
 9146TIP3   OH227401   3.332   0.262   2.309 -0.2256 -0.0892  0.2850
 9146TIP3    H127402   3.422   0.253   2.343 -1.1083 -0.9128  2.6101
 9146TIP3    H227403   3.315   0.356   2.311 -0.0566 -0.0697  1.7366
 9147TIP3   OH227404   5.633   6.616   1.347 -0.0556  0.6850 -0.1488
 9147TIP3    H127405   5.596   6.668   1.418 -2.0955  1.4087 -1.6628
 9147TIP3    H227406   5.690   6.677   1.300  3.2454 -0.3774  2.0689
 9148TIP3   OH227407   5.294   0.913   3.333  0.0342 -0.4634  0.4165
 9148TIP3    H127408   5.208   0.924   3.373 -0.3985 -0.5270 -0.4850
 9148TIP3    H227409   5.299   0.819   3.315 -0.4388 -0.2156 -1.1223
 9149TIP3   OH227410   3.472   2.721   5.524 -0.2376 -0.0912 -0.3054
 9149TIP3    H127411   3.538   2.763   5.579 -1.1951 -0.8465  1.5124
 9149TIP3    H227412   3.522   2.668   5.462  0.8901  1.1819 -0.5200
 9150TIP3   OH227413   2.168   3.058   5.823 -0.0665 -0.2234  0.2076
 9150TIP3    H127414   2.166   3.081   5.915 -2.1167 -1.5006  0.5504
 9150TIP3    H227415   2.171   3.142   5.777 -1.4020  0.5313  1.4260
 9151TIP3   OH227416   2.529   1.732   0.942  0.3891 -0.2986 -0.1437
 9151TIP3    H127417   2.499   1.689   1.023  0.3870 -1.6325 -0.8196
 9151TIP3    H227418   2.624   1.733   0.949  0.3878 -0.3935 -0.1130
 9152TIP3   OH227419   4.607   3.639   1.752 -0.1056  0.6040  0.2460
 9152TIP3    H127420   4.653   3.704   1.698 -0.5453 -0.1262 -1.0464
 9152TIP3    H227421   4.531   3.686   1.786 -0.3067  0.8379 -0.5057
 9153TIP3   OH227422   4.470   0.783   1.050  0.3788 -0.3237  0.1376
 9153TIP3    H127423   4.391   0.731   1.038  1.6514 -1.9804 -1.4969
 9153TIP3    H227424   4.437   0.872   1.066 -1.8073 -1.2576  1.3179
 9154TIP3   OH227425   3.365   0.090   4.789 -0.7704  0.0569  0.5641
 9154TIP3    H127426   3.431   0.060   4.726 -1.2504  1.3908 -0.6086
 9154TIP3    H227427   3.415   0.138   4.855 -0.5581  1.3674 -0.5064
 9155TIP3   OH227428   6.584   1.122   4.358  0.5025  0.5356 -0.1839
 9155TIP3    H127429   6.554   1.138   4.268 -0.6669 -0.8296 -0.0768
 9155TIP3    H227430   6.546   1.037   4.381  0.3706  1.0774  1.7824
 9156TIP3   OH227431   0.775   0.957   5.576  0.4307  0.1140  0.0493
 9156TIP3    H127432   0.791   0.997   5.491  1.5783  1.3873  0.8148
 9156TIP3    H227433   0.862   0.948   5.615 -0.0815 -0.3393  1.1384
 9157TIP3   OH227434   2.150   2.072   2.312  0.0048 -0.1696  0.0487
 9157TIP3    H127435   2.079   2.018   2.276  0.3561 -0.0336 -0.8849
 9157TIP3    H227436   2.230   2.028   2.283  0.2985  0.9493 -0.8848
 9158TIP3   OH227437   0.519   6.147   5.747 -0.0066 -0.2914  0.1064
 9158TIP3    H127438   0.551   6.133   5.658 -2.4231 -3.0866 -0.4520
 9158TIP3    H227439   0.487   6.238   5.746  0.4690 -0.0994 -1.7181
 9159TIP3   OH227440   0.591   4.481   5.152 -0.1619  0.1161  0.0579
 9159TIP3    H127441   0.654   4.417   5.187  0.1696  1.2070  1.5745
 9159TIP3    H227442   0.554   4.439   5.075 -0.2639 -2.0824  1.2384
 9160TIP3   OH227443   3.276   3.942   4.543 -0.4912 -0.4193 -0.1311
 9160TIP3    H127444   3.219   4.006   4.500 -0.8550  0.3756  1.4591
 9160TIP3    H227445   3.363   3.982   4.541 -0.7583  0.2491  1.0551
 9161TIP3   OH227446   3.315   4.988   4.646 -0.0680 -0.0095 -0.2041
 9161TIP3    H127447   3.275   5.053   4.704 -0.8989  0.5896 -1.4287
 9161TIP3    H227448   3.409   4.997   4.662 -0.2772  0.0978  1.0841
 9162TIP3   OH227449   2.709   2.421   2.874  0.0797 -0.2317 -0.6054
 9162TIP3    H127450   2.652   2.489   2.911 -1.1066 -1.6302  0.2699
 9162TIP3    H227451   2.749   2.380   2.951  0.9734 -0.3842 -1.1386
 9163TIP3   OH227452   2.989   5.210   1.728 -0.5227 -0.1674  0.3005
 9163TIP3    H127453   2.915   5.241   1.781 -0.1536  0.7944  0.2824
 9163TIP3    H227454   2.990   5.269   1.652  0.9775  0.6361  0.8903
 9164TIP3   OH227455   1.663   6.632   4.091  0.5516 -0.7013  0.3140
 9164TIP3    H127456   1.656   6.726   4.111  2.8868 -0.5330  0.5577
 9164TIP3    H227457   1.583   6.595   4.126  0.0371  1.0599  1.1258
 9165TIP3   OH227458   2.077   0.142   4.173  0.3108 -0.3592 -0.1308
 9165TIP3    H127459   2.089   0.048   4.186 -1.1079 -0.6069 -0.4870
 9165TIP3    H227460   2.107   0.158   4.084 -2.1149 -1.0347 -1.1447
 9166TIP3   OH227461   1.945   6.768   2.367  0.2266  0.2947  0.0702
 9166TIP3    H127462   1.889   6.838   2.331 -2.3771  0.5050  3.9680
 9166TIP3    H227463   1.907   6.687   2.332 -1.8706  0.5228  1.6255
 9167TIP3   OH227464   0.215   1.216   4.297  0.3234 -0.4265 -0.5885
 9167TIP3    H127465   0.161   1.143   4.328  0.7245 -0.3417  0.3562
 9167TIP3    H227466   0.304   1.192   4.324  0.1650  1.5337  2.0434
 9168TIP3   OH227467   4.192   3.533   1.743  0.3470 -0.8419 -0.0516
 9168TIP3    H127468   4.131   3.593   1.786  0.7219 -0.1425 -0.4691
 9168TIP3    H227469   4.167   3.447   1.774 -1.2310 -0.6393 -0.6533
 9169TIP3   OH227470   4.954   5.868   0.746 -0.1543 -0.9902  0.2871
 9169TIP3    H127471   4.891   5.866   0.674 -0.6984 -2.7537  0.7719
 9169TIP3    H227472   5.039   5.866   0.702 -0.4776 -1.6134 -0.3265
 9170TIP3   OH227473   3.106   0.749   2.003 -0.1348  0.0369  0.1571
 9170TIP3    H127474   3.044   0.699   2.056 -1.6995 -0.3501 -1.9071
 9170TIP3    H227475   3.098   0.711   1.915 -0.3230  2.9255 -1.1769
 9171TIP3   OH227476   2.807   2.276   0.024  0.0671 -0.5780 -0.7226
 9171TIP3    H127477   2.752   2.321   0.087  1.2563  1.6539 -1.1732
 9171TIP3    H227478   2.894   2.276   0.065  0.6819  0.1759 -1.9787
 9172TIP3   OH227479   6.354   2.395   3.264  0.4890 -0.4470 -0.5852
 9172TIP3    H127480   6.314   2.461   3.207 -1.2653 -0.5716  0.4246
 9172TIP3    H227481   6.448   2.411   3.256  0.1520  1.8179 -0.8214
 9173TIP3   OH227482   4.616   6.699   2.115 -0.8684 -0.0927  0.7621
 9173TIP3    H127483   4.587   6.665   2.031 -0.3524  1.0837  0.0894
 9173TIP3    H227484   4.688   6.757   2.094  0.3974 -1.0656  2.1770
 9174TIP3   OH227485   5.693   5.371   3.595 -0.5256 -0.1727 -0.1947
 9174TIP3    H127486   5.758   5.304   3.616  0.8578  1.2102  0.1181
 9174TIP3    H227487   5.613   5.322   3.575 -0.6223 -1.8167  3.4541
 9175TIP3   OH227488   0.469   0.816   0.125 -0.0581 -0.3770  0.3539
 9175TIP3    H127489   0.397   0.877   0.138 -0.0847 -0.1331 -0.7750
 9175TIP3    H227490   0.443   0.765   0.048  0.5423 -0.9384  0.5140
 9176TIP3   OH227491   0.495   2.478   0.076  0.2034  0.0020 -0.0140
 9176TIP3    H127492   0.459   2.412   0.017 -2.5278  1.0611  0.2974
 9176TIP3    H227493   0.588   2.481   0.055  0.4542 -3.7829 -0.1308
 9177TIP3   OH227494   4.074   5.004   1.867  0.1742  0.4811 -0.6987
 9177TIP3    H127495   4.039   5.043   1.947 -1.2688 -0.4951 -0.8079
 9177TIP3    H227496   4.108   4.919   1.895 -1.0255 -0.1923 -1.2134
 9178TIP3   OH227497   5.390   2.685   4.314 -0.2387 -0.0452 -1.1208
 9178TIP3    H127498   5.315   2.736   4.345 -1.2164 -1.4973 -0.9877
 9178TIP3    H227499   5.457   2.698   4.381 -1.1619 -0.4812 -0.0890
 9179TIP3   OH227500   6.151   4.733   2.069  0.1530 -0.5504 -0.0813
 9179TIP3    H127501   6.081   4.696   2.015  0.5412  0.3622 -1.2571
 9179TIP3    H227502   6.175   4.815   2.025  1.7687 -0.6962  0.4453
 9180TIP3   OH227503   0.473   1.541   4.516 -0.5351  0.0845  0.2290
 9180TIP3    H127504   0.562   1.510   4.529 -0.7143 -0.9899 -0.9405
 9180TIP3    H227505   0.419   1.486   4.573 -0.4483  0.9850  1.2297
 9181TIP3   OH227506   3.850   5.365   4.830  0.3047  0.0435 -0.5961
 9181TIP3    H127507   3.884   5.280   4.800 -0.7162 -0.4402 -0.4048
 9181TIP3    H227508   3.775   5.383   4.773  1.4083  1.5832 -1.6639
 9182TIP3   OH227509   1.008   0.508   3.628 -0.0738  0.2482  0.1901
 9182TIP3    H127510   0.993   0.521   3.534 -0.3930 -0.5422  0.1236
 9182TIP3    H227511   1.073   0.438   3.633 -0.3823 -0.0176  0.5643
 9183TIP3   OH227512   5.410   3.499   5.103  0.1665  0.2557 -0.2996
 9183TIP3    H127513   5.393   3.550   5.024 -1.9475  0.2238  0.0702
 9183TIP3    H227514   5.383   3.556   5.174  2.3723  0.4111  0.4668
 9184TIP3   OH227515   1.492   2.527   5.647 -0.8306 -0.7103 -0.3491
 9184TIP3    H127516   1.562   2.542   5.712  0.2425 -1.2082 -1.3469
 9184TIP3    H227517   1.417   2.500   5.699  0.1089 -1.4473  0.6792
 9185TIP3   OH227518   2.513   4.265   0.755 -0.1903 -0.4948  0.2940
 9185TIP3    H127519   2.438   4.210   0.733 -0.9764  0.8350 -0.4505
 9185TIP3    H227520   2.515   4.332   0.687  1.7840 -0.5791  0.1987
 9186TIP3   OH227521   7.099   1.093   2.354 -0.5672 -0.6362 -0.2754
 9186TIP3    H127522   7.110   1.112   2.261  3.6209 -3.7437 -0.6696
 9186TIP3    H227523   7.041   1.017   2.356  1.3207 -2.1648 -0.6942
 9187TIP3   OH227524   4.696   0.817   5.546  0.5181  0.5851 -0.0261
 9187TIP3    H127525   4.673   0.743   5.490  1.2248 -0.5169  1.0913
 9187TIP3    H227526   4.622   0.826   5.607  0.7668  0.3188  0.3152
 9188TIP3   OH227527   5.517   0.154   1.678 -0.0504 -0.3452 -0.2651
 9188TIP3    H127528   5.570   0.234   1.683 -0.8755  0.3378 -1.7015
 9188TIP3    H227529   5.458   0.160   1.752 -3.1479  2.7436 -2.6392
 9189TIP3   OH227530   3.039   6.205   1.211  0.0642 -0.0682  0.1573
 9189TIP3    H127531   3.107   6.202   1.144  0.0664  0.3997  0.1382
 9189TIP3    H227532   2.975   6.139   1.184  1.1988 -1.5535  0.9231
 9190TIP3   OH227533   3.470   5.905   1.988 -0.5323 -0.1607  0.1568
 9190TIP3    H127534   3.454   5.833   2.049  0.0223  0.7197  1.3992
 9190TIP3    H227535   3.403   5.970   2.009 -0.0346  0.3548  0.1759
 9191TIP3   OH227536   5.732   3.807   0.410  0.2912  0.3515 -0.1111
 9191TIP3    H127537   5.749   3.869   0.481  0.7819  0.0219  0.0585
 9191TIP3    H227538   5.765   3.724   0.442 -0.0939  0.0590 -0.4615
 9192TIP3   OH227539   4.115   6.122   5.640 -0.0534  0.3680 -0.2411
 9192TIP3    H127540   4.123   6.189   5.572  1.2196 -0.8288 -1.3450
 9192TIP3    H227541   4.042   6.067   5.610 -0.2750  0.5332 -0.0043
 9193TIP3   OH227542   6.250   0.671   0.559  0.4756  0.2462 -0.7338
 9193TIP3    H127543   6.294   0.629   0.485 -0.6963  0.2452 -1.4504
 9193TIP3    H227544   6.293   0.757   0.566  2.6509 -0.8661  0.5365
 9194TIP3   OH227545   5.040   2.674   0.243  0.1175 -0.5295 -0.0099
 9194TIP3    H127546   5.122   2.716   0.268  0.3492 -0.7582 -0.3894
 9194TIP3    H227547   5.044   2.667   0.148 -0.7098  0.2182 -0.1124
 9195TIP3   OH227548   4.842   0.701   3.064  0.0037 -0.7651  0.6567
 9195TIP3    H127549   4.883   0.620   3.092 -0.3694 -0.5784  1.8059
 9195TIP3    H227550   4.909   0.768   3.076  1.0387 -1.1198 -2.2394
 9196TIP3   OH227551   5.986   1.030   5.624  0.0707  0.2643  0.0289
 9196TIP3    H127552   5.903   1.050   5.667 -0.3403  1.9110 -1.4131
 9196TIP3    H227553   6.033   1.113   5.621  0.7306 -0.1177 -1.2785
 9197TIP3   OH227554   4.780   3.938   5.398 -0.3097  0.5072  0.7000
 9197TIP3    H127555   4.740   3.854   5.421 -2.5905  1.3723  0.1686
 9197TIP3    H227556   4.832   3.961   5.474 -0.2489 -1.0165  1.1683
 9198TIP3   OH227557   4.785   6.684   0.433 -1.0559 -0.2685  0.1243
 9198TIP3    H127558   4.830   6.712   0.353 -0.6954 -1.3073 -0.0585
 9198TIP3    H227559   4.855   6.681   0.499 -1.1701 -0.3393  0.2409
 9199TIP3   OH227560   4.494   6.578   4.206  0.4608  0.2349 -0.1051
 9199TIP3    H127561   4.411   6.586   4.160  0.5189 -0.3449 -0.3209
 9199TIP3    H227562   4.558   6.623   4.150  0.1478  1.4655  0.4916
 9200TIP3   OH227563   2.502   0.995   4.581 -0.5087 -0.8263 -0.2060
 9200TIP3    H127564   2.592   1.011   4.553  0.1670  0.0321  2.2086
 9200TIP3    H227565   2.473   0.921   4.527  0.7310  0.4651 -2.7868
 9201TIP3   OH227566   6.149   2.887   0.526  0.0354 -0.0529 -1.0992
 9201TIP3    H127567   6.180   2.924   0.443 -0.6734  0.1690 -1.2688
 9201TIP3    H227568   6.138   2.794   0.507  0.2947 -0.0810 -1.1243
 9202TIP3   OH227569   2.105   3.009   3.737  0.4733 -0.1278  0.1537
 9202TIP3    H127570   2.042   2.949   3.778  1.1682 -0.3958  0.8559
 9202TIP3    H227571   2.052   3.080   3.702 -0.2685 -0.6302  0.2431
 9203TIP3   OH227572   1.335   3.773   5.435 -0.2606 -0.1146  0.5021
 9203TIP3    H127573   1.378   3.710   5.492 -0.6007 -0.2399  0.6215
 9203TIP3    H227574   1.347   3.857   5.479 -0.6837 -0.2347  0.8626
 9204TIP3   OH227575   3.633   0.617   4.742  0.0890  0.2319 -0.0900
 9204TIP3    H127576   3.626   0.671   4.821 -1.9601  1.6209 -1.1465
 9204TIP3    H227577   3.662   0.531   4.774 -2.0762  0.2961  2.3880
 9205TIP3   OH227578   2.078   0.487   3.046 -0.0843  0.4789 -0.7344
 9205TIP3    H127579   2.042   0.398   3.052 -0.2819  0.5512 -0.8426
 9205TIP3    H227580   2.084   0.505   2.953  1.8879 -0.1928 -0.7799
 9206TIP3   OH227581   0.353   5.688   0.234 -0.0700  0.7599  0.4024
 9206TIP3    H127582   0.399   5.643   0.305  0.5930 -0.8300 -0.9798
 9206TIP3    H227583   0.406   5.765   0.216  2.0715 -0.9509 -1.0435
 9207TIP3   OH227584   4.692   3.044   5.225 -0.2025  0.3750  0.4749
 9207TIP3    H127585   4.785   3.035   5.246  0.1825  1.7617 -0.4735
 9207TIP3    H227586   4.648   3.053   5.310  0.6385  0.6183  0.8888
 9208TIP3   OH227587   1.127   4.228   5.834 -0.1903  0.4637  0.3341
 9208TIP3    H127588   1.079   4.156   5.876  0.3334 -0.2639 -0.2785
 9208TIP3    H227589   1.103   4.222   5.742  1.7027 -0.4655 -0.1512
 9209TIP3   OH227590   2.957   6.687   3.860 -0.4294 -0.1865  0.5583
 9209TIP3    H127591   3.021   6.631   3.816 -0.2637 -0.0320  0.5984
 9209TIP3    H227592   2.993   6.775   3.850 -1.2180  0.0438 -0.4441
 9210TIP3   OH227593   6.910   2.774   1.435  0.2097 -1.0662 -0.3456
 9210TIP3    H127594   6.850   2.699   1.434  1.1611 -1.8689  0.8112
 9210TIP3    H227595   6.885   2.823   1.513 -1.6190  0.9109 -2.0263
 9211TIP3   OH227596   4.793   4.303   1.289 -0.3749 -0.0470 -0.1913
 9211TIP3    H127597   4.841   4.370   1.241 -0.6188  1.3474  1.4349
 9211TIP3    H227598   4.701   4.326   1.278 -0.4569 -0.0455  0.4706
 9212TIP3   OH227599   1.461   4.299   2.808 -0.1176  0.3183  0.1959
 9212TIP3    H127600   1.442   4.390   2.788 -0.4303  0.4208  0.9292
 9212TIP3    H227601   1.497   4.263   2.727 -1.8068  0.5705 -0.7016
 9213TIP3   OH227602   7.177   6.114   5.571 -0.7321 -0.1076 -0.1709
 9213TIP3    H127603   7.270   6.114   5.547 -0.3988  0.1245  1.0314
 9213TIP3    H227604   7.155   6.021   5.580 -0.7655 -0.1839 -0.9497
 9214TIP3   OH227605   0.023   1.118   0.865  0.3283  0.3953 -0.2538
 9214TIP3    H127606   0.070   1.153   0.941  1.5043 -0.0946 -0.7300
 9214TIP3    H227607   0.082   1.050   0.830 -0.2715  0.4979 -1.4956
 9215TIP3   OH227608   2.824   3.515   4.793  0.2868  0.3400 -0.1959
 9215TIP3    H127609   2.792   3.540   4.707  1.5033  1.8965 -0.2259
 9215TIP3    H227610   2.852   3.424   4.783 -1.6572 -0.2305 -0.8206
 9216TIP3   OH227611   6.012   2.210   0.472  0.4318  0.5361 -0.5398
 9216TIP3    H127612   6.091   2.264   0.478  0.1654  0.9554 -0.8047
 9216TIP3    H227613   6.045   2.120   0.476  0.8881  0.7144 -0.2561
 9217TIP3   OH227614   6.877   5.504   0.407 -0.3111 -0.0586  0.4556
 9217TIP3    H127615   6.859   5.416   0.375 -2.7052  0.7558 -0.7308
 9217TIP3    H227616   6.940   5.540   0.345  0.0781 -0.6677  0.4920
 9218TIP3   OH227617   4.049   4.087   5.345 -0.0588 -0.5865  0.1027
 9218TIP3    H127618   3.957   4.065   5.362  0.5159 -2.1081  1.5870
 9218TIP3    H227619   4.053   4.100   5.251 -1.7560 -0.7475 -0.0311
 9219TIP3   OH227620   0.485   6.365   5.220  0.2164  0.0225 -0.4666
 9219TIP3    H127621   0.523   6.344   5.134  0.4557  1.3964 -0.7186
 9219TIP3    H227622   0.459   6.280   5.256 -1.3671 -0.4927 -2.5861
 9220TIP3   OH227623   5.704   0.365   5.135 -0.0613 -0.3092 -0.4915
 9220TIP3    H127624   5.732   0.419   5.209 -2.3445  1.1955 -0.6283
 9220TIP3    H227625   5.763   0.290   5.136 -0.5860 -0.8597  3.4632
 9221TIP3   OH227626   5.377   5.102   4.237  0.9979  0.1315  0.4752
 9221TIP3    H127627   5.368   5.150   4.319 -1.8683  0.3453  0.1465
 9221TIP3    H227628   5.350   5.013   4.258 -2.4104  0.7364 -0.5952
 9222TIP3   OH227629   3.600   3.341   5.329 -0.3821 -0.6193 -0.3245
 9222TIP3    H127630   3.523   3.288   5.309 -0.9975  0.6461 -1.5712
 9222TIP3    H227631   3.596   3.413   5.265  0.7831  0.5247  0.8339
 9223TIP3   OH227632   0.022   5.804   4.846  0.5441  0.2373 -0.5787
 9223TIP3    H127633   0.098   5.771   4.894  0.8627  3.2063  1.1647
 9223TIP3    H227634  -0.050   5.747   4.873  1.4944 -0.5973  0.2915
 9224TIP3   OH227635   2.570   0.115   2.632 -0.1663 -0.5815  0.7549
 9224TIP3    H127636   2.620   0.179   2.684 -1.6078 -0.2440  1.7843
 9224TIP3    H227637   2.556   0.042   2.692 -2.7523  0.2436  1.2871
 9225TIP3   OH227638   2.929   6.738   5.038  0.5587 -0.4136  0.1799
 9225TIP3    H127639   2.958   6.651   5.066 -2.6470 -0.7820  2.9710
 9225TIP3    H227640   2.843   6.723   5.000 -0.5997  1.5930  1.8239
 9226TIP3   OH227641   4.845   1.061   0.205  0.2631  0.0166 -0.0317
 9226TIP3    H127642   4.778   1.039   0.140  0.7893  1.5350 -1.1460
 9226TIP3    H227643   4.928   1.036   0.164  0.5002 -0.4523  0.7120
 9227TIP3   OH227644   4.088   2.938   3.289  0.0661  0.1889 -0.0910
 9227TIP3    H127645   4.063   2.850   3.261 -0.0424  0.8231 -2.1464
 9227TIP3    H227646   4.020   2.995   3.252 -1.0478  1.0365  2.9054
 9228TIP3   OH227647   6.885   4.060   5.118 -0.2688 -0.3494 -0.0077
 9228TIP3    H127648   6.844   4.012   5.046 -0.1675  0.2797 -0.5015
 9228TIP3    H227649   6.967   4.093   5.081 -0.4145  0.3368  0.2524
 9229TIP3   OH227650   4.592   3.000   1.966 -0.4859 -0.1003 -0.0154
 9229TIP3    H127651   4.551   2.915   1.952 -1.0967  0.3973 -1.4387
 9229TIP3    H227652   4.532   3.062   1.926  0.9098  0.7960 -0.7959
 9230TIP3   OH227653   6.669   3.316   2.800  0.5533  0.4114 -0.0577
 9230TIP3    H127654   6.576   3.295   2.796  0.7830 -0.4899 -1.4729
 9230TIP3    H227655   6.701   3.267   2.876  0.4951 -2.2047 -1.5738
 9231TIP3   OH227656   1.383   5.785   1.606  0.2162  0.3030 -0.3943
 9231TIP3    H127657   1.450   5.853   1.600  0.7608  0.1500  2.4065
 9231TIP3    H227658   1.430   5.704   1.589  0.3278  0.3599 -0.3605
 9232TIP3   OH227659   5.896   0.424   4.531  0.2101 -0.1653 -0.2802
 9232TIP3    H127660   5.959   0.359   4.562 -0.0571 -0.5817 -0.5870
 9232TIP3    H227661   5.948   0.501   4.511  0.6235 -0.4933 -0.4906
 9233TIP3   OH227662   5.617   4.225   1.677 -0.2070 -0.3986 -0.3541
 9233TIP3    H127663   5.623   4.148   1.619  3.9767 -0.2777 -0.3891
 9233TIP3    H227664   5.705   4.236   1.711 -0.7256  4.1333  0.0998
 9234TIP3   OH227665   2.995   4.057   4.077  0.2678 -0.2120 -0.2197
 9234TIP3    H127666   3.027   4.113   4.006  1.2019 -0.1266  0.2523
 9234TIP3    H227667   2.917   4.102   4.109  0.9517  0.8047  0.0949
 9235TIP3   OH227668   3.063   1.889   2.246 -0.4040  0.2489  0.0114
 9235TIP3    H127669   3.029   1.942   2.318  1.4139  1.7374 -0.1330
 9235TIP3    H227670   3.106   1.815   2.288  0.7994  1.1973  0.5254
 9236TIP3   OH227671   6.361   6.009   1.387 -0.5356 -0.2193  0.3689
 9236TIP3    H127672   6.296   6.077   1.404 -1.3373 -0.4915 -1.3531
 9236TIP3    H227673   6.309   5.931   1.369  0.3735 -1.5983  3.2018
 9237TIP3   OH227674   3.501   3.995   3.414  0.5723  0.4243  0.8046
 9237TIP3    H127675   3.519   3.993   3.320  2.4049 -0.3469  1.1385
 9237TIP3    H227676   3.477   4.086   3.432 -0.1806  0.5033 -0.4493
 9238TIP3   OH227677   5.709   2.582   2.672  0.4921 -0.4151  0.0222
 9238TIP3    H127678   5.767   2.652   2.641 -1.4916  1.1512 -0.3582
 9238TIP3    H227679   5.741   2.563   2.760 -0.3476  2.8326  1.1892
 9239TIP3   OH227680   4.427   1.239   2.056  0.2645 -0.0831 -0.7596
 9239TIP3    H127681   4.449   1.283   2.139  0.8957 -1.6977 -0.0345
 9239TIP3    H227682   4.451   1.302   1.989  2.1136  0.3205  0.2058
 9240TIP3   OH227683   4.105   5.217   1.710 -0.0307  0.6354  0.0850
 9240TIP3    H127684   4.104   5.158   1.786  1.1362  1.4838  0.7949
 9240TIP3    H227685   4.061   5.296   1.741 -1.2096  0.3219 -0.7300
 9241TIP3   OH227686   4.077   3.066   0.827 -0.2665 -0.4379 -0.4436
 9241TIP3    H127687   4.122   3.142   0.865 -0.3049 -1.5841  2.1185
 9241TIP3    H227688   4.146   3.016   0.784  0.2376 -0.3052  0.2044
 9242TIP3   OH227689   1.310   5.296   4.782 -0.3059  0.7447  0.1227
 9242TIP3    H127690   1.300   5.350   4.704  3.5701 -0.3521 -1.3267
 9242TIP3    H227691   1.321   5.359   4.854  1.3676  1.9022 -1.0864
 9243TIP3   OH227692   3.297   3.687   1.823  0.6793 -0.2862  1.1376
 9243TIP3    H127693   3.292   3.727   1.736 -0.4668 -0.5854  1.0582
 9243TIP3    H227694   3.294   3.593   1.805  1.0457 -0.3642  1.4745
 9244TIP3   OH227695   4.386   4.813   1.912 -0.5038  0.1335  0.0065
 9244TIP3    H127696   4.310   4.792   1.966 -0.6517  0.9020  0.1010
 9244TIP3    H227697   4.419   4.895   1.948  0.2669 -0.1008 -0.1478
 9245TIP3   OH227698   1.661   6.491   0.637  0.1937 -0.6768  0.2059
 9245TIP3    H127699   1.745   6.492   0.591  1.2901 -1.5045  2.0884
 9245TIP3    H227700   1.602   6.543   0.581  1.9360 -0.0716 -1.1483
 9246TIP3   OH227701   0.201   6.027   3.322  0.3787  0.3887 -0.0309
 9246TIP3    H127702   0.190   5.936   3.349 -0.6034 -0.4214 -2.8085
 9246TIP3    H227703   0.194   6.025   3.227 -1.5073  3.6140 -0.1197
 9247TIP3   OH227704   0.184   0.233   5.077  0.3160 -0.2368 -0.4626
 9247TIP3    H127705   0.142   0.163   5.028 -2.2980  1.2787 -0.6004
 9247TIP3    H227706   0.139   0.313   5.048  1.6015  1.2300  1.3153
 9248TIP3   OH227707   3.619   5.213   1.626 -0.0943 -0.0022 -0.6274
 9248TIP3    H127708   3.673   5.205   1.705  1.2165  0.9294 -1.4006
 9248TIP3    H227709   3.561   5.287   1.645 -2.7083 -2.2638  1.0482
 9249TIP3   OH227710   3.218   4.836   5.738 -0.1609 -0.1797  0.0395
 9249TIP3    H127711   3.293   4.881   5.778  1.6134  0.0185 -3.2032
 9249TIP3    H227712   3.142   4.867   5.788  1.6259  1.6045  1.8412
 9250TIP3   OH227713   0.614   5.231   2.758 -0.2026  0.4910  0.4551
 9250TIP3    H127714   0.663   5.313   2.751  0.1619  0.3143  0.8434
 9250TIP3    H227715   0.635   5.199   2.846 -0.7219  0.2218  0.4813
 9251TIP3   OH227716   4.691   0.214   0.979 -0.0429  0.2050 -0.2781
 9251TIP3    H127717   4.712   0.124   0.954 -0.8863 -0.0622 -0.0507
 9251TIP3    H227718   4.657   0.253   0.899 -3.9088 -1.0060  0.5775
 9252TIP3   OH227719   0.849   5.359   4.415  0.3128  0.0605 -0.1100
 9252TIP3    H127720   0.789   5.332   4.346 -0.2363 -0.4340  0.5429
 9252TIP3    H227721   0.916   5.410   4.370 -1.1193  1.4983 -0.7278
 9253TIP3   OH227722   1.833   1.007   0.761  0.3549 -0.8340 -0.3081
 9253TIP3    H127723   1.853   0.922   0.723 -1.6994 -1.6964  0.4228
 9253TIP3    H227724   1.773   0.988   0.833  2.2818  0.9537  1.9283
 9254TIP3   OH227725   1.700   1.473   0.833  0.2491 -0.2121 -0.4710
 9254TIP3    H127726   1.660   1.540   0.889  0.0897 -0.7095  0.0198
 9254TIP3    H227727   1.774   1.441   0.883 -1.1764 -2.2381  0.4853
 9255TIP3   OH227728   6.992   4.476   0.941 -0.1956  0.7177  0.6650
 9255TIP3    H127729   6.946   4.494   0.859  1.2531  0.8112 -0.1621
 9255TIP3    H227730   7.003   4.381   0.942  2.7736  0.9303 -1.0139
 9256TIP3   OH227731   4.322   3.229   4.884 -0.4356 -0.3285 -0.2402
 9256TIP3    H127732   4.367   3.260   4.963 -1.3473 -0.1748  0.2293
 9256TIP3    H227733   4.332   3.301   4.822 -2.0955  0.7563  0.6771
 9257TIP3   OH227734   5.666   0.882   4.737  0.4217 -0.0667  0.0196
 9257TIP3    H127735   5.634   0.972   4.728  0.9305  0.0373 -0.8033
 9257TIP3    H227736   5.721   0.868   4.661  1.1176 -0.7597  0.6352
 9258TIP3   OH227737   4.708   6.058   4.913 -0.7251  0.0796  0.2031
 9258TIP3    H127738   4.633   6.078   4.858  0.2039  1.3433 -0.6657
 9258TIP3    H227739   4.736   6.143   4.946  0.7735 -0.2677 -0.1110
 9259TIP3   OH227740   3.889   0.105   5.173  0.0742 -0.1007 -1.0629
 9259TIP3    H127741   3.827   0.099   5.246 -1.9295 -2.9069 -2.8057
 9259TIP3    H227742   3.879   0.195   5.141  0.4136  0.9566  1.5011
 9260TIP3   OH227743   0.012   1.698   0.277  0.2288  0.4777 -0.5409
 9260TIP3    H127744   0.103   1.688   0.306  0.2945 -1.0805 -1.1998
 9260TIP3    H227745   0.018   1.705   0.182 -0.3793 -0.3311 -0.6424
 9261TIP3   OH227746   2.817   0.935   0.425  0.3577 -0.0751 -0.3261
 9261TIP3    H127747   2.865   0.874   0.369 -0.1223  0.2630 -1.1163
 9261TIP3    H227748   2.871   1.014   0.428  0.5805 -0.2370  0.0296
 9262TIP3   OH227749   3.882   6.806   4.268  0.3039  0.3477 -0.5661
 9262TIP3    H127750   3.891   6.784   4.360  0.7099  1.5398 -0.3159
 9262TIP3    H227751   3.797   6.769   4.243  0.4639 -0.5075  0.1176
 9263TIP3   OH227752   4.235   3.854   1.987  0.6368  0.6880  0.1955
 9263TIP3    H127753   4.261   3.944   1.966  0.3208  1.0237  1.2046
 9263TIP3    H227754   4.141   3.851   1.967  0.2841  1.0723  1.6845
 9264TIP3   OH227755   3.918   1.186   2.271 -0.5242  0.0916 -0.6036
 9264TIP3    H127756   3.871   1.197   2.189  0.3346 -0.2333 -1.1583
 9264TIP3    H227757   4.003   1.149   2.245 -0.9198 -1.7729  0.5776
 9265TIP3   OH227758   4.872   4.670   0.732  0.7060  0.5731  0.3341
 9265TIP3    H127759   4.811   4.669   0.658  0.7667  1.7213  0.2600
 9265TIP3    H227760   4.856   4.587   0.777 -0.1086  0.3565 -0.3337
 9266TIP3   OH227761   2.861   2.302   3.073 -0.6311  0.2528 -0.3360
 9266TIP3    H127762   2.872   2.207   3.086 -0.3632  0.3685  0.3415
 9266TIP3    H227763   2.807   2.330   3.147 -0.4546  0.6790 -0.3643
 9267TIP3   OH227764   2.021   6.536   2.107 -0.3682  0.1412 -0.2530
 9267TIP3    H127765   1.965   6.598   2.059 -2.1000 -0.3854  1.0024
 9267TIP3    H227766   1.960   6.482   2.156  1.2695 -0.4402  1.2347
 9268TIP3   OH227767   1.349   3.671   3.294 -0.0297 -0.4941 -0.0500
 9268TIP3    H127768   1.263   3.674   3.336  0.2359  1.5588  0.4980
 9268TIP3    H227769   1.371   3.578   3.289 -1.3110 -0.9476  1.8338
 9269TIP3   OH227770   4.332   5.070   5.126 -0.3516  0.3365 -0.4778
 9269TIP3    H127771   4.392   5.056   5.053  0.5709 -0.0137  0.3423
 9269TIP3    H227772   4.257   5.115   5.086 -0.4725 -1.0426 -1.9020
 9270TIP3   OH227773   0.580   0.985   0.444 -0.4455  0.2640  0.6027
 9270TIP3    H127774   0.581   0.890   0.446  1.8794  0.2296  1.9316
 9270TIP3    H227775   0.502   1.010   0.494 -2.1557 -0.8427 -1.3359
 9271TIP3   OH227776   4.176   5.779   2.232 -0.0499  0.0693 -0.0521
 9271TIP3    H127777   4.095   5.788   2.181  0.0954 -1.1490 -0.5402
 9271TIP3    H227778   4.246   5.787   2.166  0.1411 -1.5277 -0.0729
 9272TIP3   OH227779   0.279   0.979   0.261  0.5359 -0.4178 -0.6966
 9272TIP3    H127780   0.259   1.066   0.228 -1.3686 -1.2485 -1.9088
 9272TIP3    H227781   0.290   0.991   0.355 -0.3401  1.0341 -0.7572
 9273TIP3   OH227782   1.127   2.754   3.807  0.3026  0.3001 -0.7438
 9273TIP3    H127783   1.088   2.727   3.724 -0.2793  1.4472 -0.8638
 9273TIP3    H227784   1.054   2.760   3.868  0.6312  0.1452 -0.3270
 9274TIP3   OH227785   6.816   0.654   5.091 -0.2876  0.4171  0.1123
 9274TIP3    H127786   6.786   0.745   5.089 -0.3691  0.4282  1.3355
 9274TIP3    H227787   6.812   0.626   4.999 -1.5323  1.2400 -0.1144
 9275TIP3   OH227788   6.601   1.723   1.720 -0.1754  0.0519  0.0356
 9275TIP3    H127789   6.505   1.726   1.715 -0.3196 -2.9052 -1.0084
 9275TIP3    H227790   6.620   1.696   1.809 -0.4758 -1.5176 -0.3485
 9276TIP3   OH227791   1.001   0.047   4.069  0.3424 -0.8602 -0.5204
 9276TIP3    H127792   1.025   0.122   4.123  0.0897  0.0513 -1.6125
 9276TIP3    H227793   0.972  -0.020   4.130 -5.4092  1.9387  0.5109
 9277TIP3   OH227794   0.825   4.505   3.438  0.5894  0.6537 -0.3305
 9277TIP3    H127795   0.868   4.511   3.524  1.0192 -0.3407 -0.4649
 9277TIP3    H227796   0.889   4.541   3.377  0.1173  1.7594 -0.2006
 9278TIP3   OH227797   1.716   2.999   5.440  0.7465 -0.4469 -0.6094
 9278TIP3    H127798   1.707   2.904   5.428  0.0577 -0.3460 -0.9544
 9278TIP3    H227799   1.804   3.010   5.475  1.1001 -1.1629 -1.2241
 9279TIP3   OH227800   2.351   4.669   1.143  0.4904  0.2341 -0.2652
 9279TIP3    H127801   2.419   4.669   1.211  1.2179 -0.0809 -0.9652
 9279TIP3    H227802   2.269   4.669   1.191  0.9863  0.3844  0.6124
 9280TIP3   OH227803   3.305   5.868   1.460 -0.0210 -0.1572 -0.0923
 9280TIP3    H127804   3.305   5.879   1.555  0.2124 -0.8003 -0.0128
 9280TIP3    H227805   3.398   5.873   1.436 -0.0907  0.1122 -0.2950
 9281TIP3   OH227806   5.025   4.296   2.426 -0.1959 -0.5334 -0.4783
 9281TIP3    H127807   5.030   4.338   2.340 -0.2570 -0.4690 -0.4505
 9281TIP3    H227808   5.099   4.235   2.427  1.2247  1.1251  0.3167
 9282TIP3   OH227809   7.120   6.559   1.666 -0.4147  0.0453 -0.2261
 9282TIP3    H127810   7.086   6.516   1.744  1.0063  0.2981  0.5604
 9282TIP3    H227811   7.044   6.568   1.609 -1.3662 -0.6563  0.8845
 9283TIP3   OH227812   1.421   6.664   5.535 -0.7015 -0.1830 -0.1173
 9283TIP3    H127813   1.505   6.623   5.513 -1.3795 -1.5326 -0.3138
 9283TIP3    H227814   1.387   6.611   5.608 -1.0320  0.8304  0.4814
 9284TIP3   OH227815   1.718   1.977   5.407 -0.4009 -0.2506  0.3606
 9284TIP3    H127816   1.783   2.016   5.466 -2.0676  2.4197  0.6158
 9284TIP3    H227817   1.739   2.013   5.321 -0.8923 -0.2031  0.2550
 9285TIP3   OH227818   2.169   3.764   3.445 -0.6700 -0.3203 -0.0062
 9285TIP3    H127819   2.205   3.782   3.532  3.0923  0.9101 -1.6273
 9285TIP3    H227820   2.165   3.850   3.403  0.2104 -1.1567 -1.9176
 9286TIP3   OH227821   2.627   0.135   3.663 -0.0837  0.0967  0.3684
 9286TIP3    H127822   2.675   0.062   3.625 -0.7352 -0.9005  1.3796
 9286TIP3    H227823   2.659   0.212   3.617  1.6640 -0.6517  0.2599
 9287TIP3   OH227824   2.516   3.504   3.089  0.6572 -0.6031  0.5894
 9287TIP3    H127825   2.456   3.456   3.031 -0.4485 -0.2185  1.3924
 9287TIP3    H227826   2.603   3.470   3.066 -0.0263 -2.5829  0.7337
 9288TIP3   OH227827   3.594   3.654   0.842  0.1677  0.1492  0.0760
 9288TIP3    H127828   3.536   3.599   0.895 -0.5069  0.8565  0.1015
 9288TIP3    H227829   3.677   3.654   0.888  0.4696 -1.5762 -0.3985
 9289TIP3   OH227830   4.235   1.526   4.895 -0.1449  0.2278 -0.2185
 9289TIP3    H127831   4.258   1.514   4.802 -2.1157  2.3072 -1.0941
 9289TIP3    H227832   4.268   1.614   4.916 -0.2095 -0.0024  0.8711
 9290TIP3   OH227833   2.123   0.540   0.146  0.1164  0.2942 -0.1136
 9290TIP3    H127834   2.189   0.578   0.088  1.4232 -0.5677  0.7562
 9290TIP3    H227835   2.093   0.613   0.199  2.7256  0.2386  1.6615
 9291TIP3   OH227836   4.278   5.750   0.253  0.6160  0.2188  0.0471
 9291TIP3    H127837   4.365   5.787   0.262  0.1981  1.1681  0.2286
 9291TIP3    H227838   4.265   5.741   0.158  0.9281  0.0074  0.0217
 9292TIP3   OH227839   0.518   2.047   3.665 -0.5050 -0.0706  0.3010
 9292TIP3    H127840   0.521   2.008   3.752  1.3511  0.8021  0.6673
 9292TIP3    H227841   0.609   2.046   3.635 -0.9575  0.6308 -1.1895
 9293TIP3   OH227842   5.075   1.939   2.193 -0.2271  0.0645 -0.0121
 9293TIP3    H127843   5.032   1.880   2.131 -2.6565  3.7949 -2.3579
 9293TIP3    H227844   5.017   1.940   2.269 -0.9360  0.3853 -0.5416
 9294TIP3   OH227845   6.291   1.957   5.644 -0.1986 -0.0991 -0.4099
 9294TIP3    H127846   6.236   2.033   5.628  0.4738  0.7151  0.9733
 9294TIP3    H227847   6.303   1.917   5.558 -3.7154 -0.8816 -0.6660
 9295TIP3   OH227848   3.105   0.527   1.235 -0.5455  0.2850  0.6046
 9295TIP3    H127849   3.179   0.574   1.273  0.8451 -1.2344 -0.1140
 9295TIP3    H227850   3.103   0.443   1.281 -0.0664 -0.7830 -1.2325
 9296TIP3   OH227851   0.271   0.421   1.862  0.1299 -0.1551 -0.1432
 9296TIP3    H127852   0.273   0.455   1.773  2.8424 -0.0149 -0.0973
 9296TIP3    H227853   0.273   0.499   1.917 -0.3962 -0.2691  0.0449
 9297TIP3   OH227854   4.359   3.230   0.699 -0.2612 -0.1181 -0.5404
 9297TIP3    H127855   4.441   3.183   0.695  0.6294  1.2673  0.4627
 9297TIP3    H227856   4.359   3.273   0.785 -2.1247 -0.2456 -0.4227
 9298TIP3   OH227857   1.517   5.696   2.949 -0.0032  0.3527 -0.0756
 9298TIP3    H127858   1.528   5.643   3.028  2.0428  0.7145 -0.0745
 9298TIP3    H227859   1.471   5.774   2.978 -1.7448 -0.7141  0.1931
 9299TIP3   OH227860   3.155   1.400   0.277 -0.5891 -0.1749 -0.5268
 9299TIP3    H127861   3.130   1.451   0.353  0.5093 -0.4809  0.0584
 9299TIP3    H227862   3.243   1.431   0.254 -0.3263 -1.0532 -0.7872
 9300TIP3   OH227863   6.353   3.250   1.144 -0.1013  0.1717  0.5483
 9300TIP3    H127864   6.387   3.333   1.176  1.6148 -0.2314 -0.1043
 9300TIP3    H227865   6.346   3.260   1.049 -1.6172  0.1383  0.6254
 9301TIP3   OH227866   3.999   0.220   0.468  0.2658 -0.1461  0.5890
 9301TIP3    H127867   3.987   0.221   0.373 -0.1990  0.1494  0.6446
 9301TIP3    H227868   4.068   0.156   0.483 -1.2862 -1.9776  0.2345
 9302TIP3   OH227869   1.628   4.066   3.882 -0.4038  0.4087  0.4084
 9302TIP3    H127870   1.662   4.090   3.796  0.8290 -1.1078  0.4206
 9302TIP3    H227871   1.533   4.079   3.875 -0.4371 -0.4902 -1.4802
 9303TIP3   OH227872   4.147   4.806   2.043 -0.5020  0.4651 -0.0059
 9303TIP3    H127873   4.154   4.792   2.138  1.1258  0.7818 -0.0399
 9303TIP3    H227874   4.070   4.757   2.017 -0.9241  0.2897  1.4715
 9304TIP3   OH227875   6.233   1.911   3.828 -0.0081 -0.2347 -0.4719
 9304TIP3    H127876   6.222   1.939   3.738  0.2793  0.0207 -0.4292
 9304TIP3    H227877   6.151   1.868   3.851 -0.3076  0.2418 -0.6571
 9305TIP3   OH227878   3.300   4.337   1.259 -0.0743 -0.5766  0.0465
 9305TIP3    H127879   3.223   4.327   1.202  1.4972 -0.7287 -2.1791
 9305TIP3    H227880   3.299   4.259   1.314 -1.0185 -1.0166 -0.5715
 9306TIP3   OH227881   3.738   4.623   3.259  0.5499 -0.2120 -0.5647
 9306TIP3    H127882   3.742   4.533   3.227  0.8030  0.1360 -1.5479
 9306TIP3    H227883   3.804   4.670   3.207  2.1575  0.0393  1.5905
 9307TIP3   OH227884   6.621   6.555   3.220  0.2445  0.2081 -0.0276
 9307TIP3    H127885   6.599   6.482   3.162  0.4515  0.6282 -0.6453
 9307TIP3    H227886   6.537   6.598   3.238  0.3487  0.9717 -1.2483
 9308TIP3   OH227887   3.362   4.147   1.548 -0.4564  0.3354 -0.0077
 9308TIP3    H127888   3.411   4.096   1.483 -1.3979 -0.4977 -0.0977
 9308TIP3    H227889   3.429   4.184   1.605  0.2726 -0.9034 -0.0294
 9309TIP3   OH227890   4.215   0.925   3.094 -0.3772  0.0123 -0.1889
 9309TIP3    H127891   4.171   0.840   3.099 -1.3511  0.5734  1.9492
 9309TIP3    H227892   4.294   0.914   3.147 -1.0621  0.7030  1.0276
 9310TIP3   OH227893   4.820   2.468   1.525 -0.1009  0.5950  0.3077
 9310TIP3    H127894   4.878   2.460   1.601 -0.3367  1.4641  0.5914
 9310TIP3    H227895   4.855   2.544   1.477  1.2549 -1.0751 -1.5353
 9311TIP3   OH227896   0.879   6.173   3.713 -0.1736 -0.0736 -0.8419
 9311TIP3    H127897   0.898   6.082   3.734  0.1963  0.3923  1.1090
 9311TIP3    H227898   0.816   6.201   3.780 -1.1825  0.7995 -2.1020
 9312TIP3   OH227899   5.533   2.611   4.101  0.0783  0.6367  0.0267
 9312TIP3    H127900   5.473   2.640   4.170  1.1854 -1.5568  2.0729
 9312TIP3    H227901   5.621   2.627   4.137  0.6820 -1.6611 -0.2709
 9313TIP3   OH227902   3.801   3.902   1.247 -0.3022 -0.0993  0.0762
 9313TIP3    H127903   3.722   3.857   1.217  0.5651 -0.3484 -2.0027
 9313TIP3    H227904   3.780   3.931   1.336 -1.8911 -2.1213  0.4322
 9314TIP3   OH227905   6.040   2.366   3.281 -0.2588  0.2855 -0.2442
 9314TIP3    H127906   6.048   2.461   3.269  0.1162  0.0093 -2.6928
 9314TIP3    H227907   5.946   2.350   3.281 -0.3176  0.4938 -1.7583
 9315TIP3   OH227908   5.524   2.439   5.334 -0.2772 -0.1986  0.0556
 9315TIP3    H127909   5.579   2.398   5.400  0.4548  0.7345  0.0546
 9315TIP3    H227910   5.537   2.386   5.255  1.0499  0.3127 -0.0867
 9316TIP3   OH227911   1.345   0.908   3.595 -0.1194 -0.4230  0.2670
 9316TIP3    H127912   1.333   0.961   3.516  2.4141  0.1151  0.1719
 9316TIP3    H227913   1.293   0.829   3.578  0.7521 -0.5590 -2.2008
 9317TIP3   OH227914   5.070   2.764   0.691  0.3632  0.1475  0.6193
 9317TIP3    H127915   5.038   2.718   0.614  0.6199  0.4134  0.3492
 9317TIP3    H227916   5.149   2.810   0.660 -0.8847  2.2909  0.3879
 9318TIP3   OH227917   1.154   4.109   0.037 -0.5950 -0.2723 -0.4862
 9318TIP3    H127918   1.141   4.054   0.115  0.6694  0.1849  0.0755
 9318TIP3    H227919   1.094   4.182   0.049 -1.7213 -1.1054 -0.8534
 9319TIP3   OH227920   6.081   0.637   4.460 -0.0702  0.5879  0.0856
 9319TIP3    H127921   6.162   0.604   4.420  0.4765 -0.3582  1.8919
 9319TIP3    H227922   6.109   0.712   4.512 -0.4395  0.5330  0.3597
 9320TIP3   OH227923   1.808   2.768   2.490  0.4750  0.1416  0.3792
 9320TIP3    H127924   1.852   2.777   2.574  0.2863  0.7933  0.4131
 9320TIP3    H227925   1.853   2.696   2.447  1.9075  1.0936  0.2154
 9321TIP3   OH227926   1.658   0.983   5.454  0.2345 -0.2539 -0.0353
 9321TIP3    H127927   1.676   0.974   5.548  0.2433  1.3228  0.1402
 9321TIP3    H227928   1.564   0.968   5.446  0.0628  0.5354  0.3830
 9322TIP3   OH227929   0.118   2.941   4.133  0.4102  0.0137  0.1859
 9322TIP3    H127930   0.149   2.855   4.108 -0.1426 -0.3371  0.6693
 9322TIP3    H227931   0.197   2.992   4.150  0.7410 -0.2849 -0.4642
 9323TIP3   OH227932   2.737   2.803   0.996 -1.1022  0.2427 -0.2994
 9323TIP3    H127933   2.689   2.832   1.073 -1.0274  1.1008 -0.5568
 9323TIP3    H227934   2.672   2.756   0.943 -1.1427 -0.3762  0.2916
 9324TIP3   OH227935   1.835   2.789   3.527  0.5860 -0.2466  0.1772
 9324TIP3    H127936   1.927   2.817   3.522  0.2859  0.6175 -0.7494
 9324TIP3    H227937   1.814   2.761   3.438 -0.7766  1.9843 -0.2660
 9325TIP3   OH227938   6.653   6.464   4.478 -0.4040 -0.1998  0.2144
 9325TIP3    H127939   6.623   6.403   4.546 -1.3977  2.6140  2.5661
 9325TIP3    H227940   6.719   6.518   4.522 -1.2915  1.9251 -0.8920
 9326TIP3   OH227941   2.809   1.458   5.339 -0.2929 -0.7482 -0.5206
 9326TIP3    H127942   2.881   1.520   5.350 -1.2713  0.3122  0.1678
 9326TIP3    H227943   2.802   1.414   5.424 -1.2490  0.0968 -0.1201
 9327TIP3   OH227944   6.626   0.689   2.886  0.1447 -0.5848  0.7450
 9327TIP3    H127945   6.685   0.763   2.871 -0.8627 -0.2090 -1.9734
 9327TIP3    H227946   6.681   0.622   2.926  1.2203  1.3599  2.7573
 9328TIP3   OH227947   0.761   4.078   1.160 -0.0226  0.2459 -0.2629
 9328TIP3    H127948   0.720   4.069   1.246  2.7254  0.8625  1.2009
 9328TIP3    H227949   0.722   4.157   1.123 -0.5267  0.5188  0.8310
 9329TIP3   OH227950   3.054   1.787   0.272 -0.0480  0.9374 -0.2050
 9329TIP3    H127951   3.061   1.806   0.178 -2.4632  1.2940 -0.3828
 9329TIP3    H227952   2.960   1.789   0.290  0.0733 -2.3066  1.5916
 9330TIP3   OH227953   3.504   6.289   5.049  0.2807  0.1037  0.6258
 9330TIP3    H127954   3.446   6.352   5.006 -0.5033 -1.1053 -0.1718
 9330TIP3    H227955   3.558   6.341   5.108  0.6163  1.6903 -1.0084
 9331TIP3   OH227956   5.393   5.952   0.389 -0.5672 -0.2189 -0.1882
 9331TIP3    H127957   5.442   5.946   0.307 -0.3585 -1.0932 -0.0112
 9331TIP3    H227958   5.320   6.011   0.370 -0.2692 -0.0596 -0.8667
 9332TIP3   OH227959   2.244   6.152   0.033 -0.1490  0.5497 -0.3121
 9332TIP3    H127960   2.289   6.080  -0.011  0.0351  0.2006  0.4187
 9332TIP3    H227961   2.238   6.123   0.125  0.4443  1.7113  0.1099
 9333TIP3   OH227962   1.923   2.601   5.038 -0.8429  0.3467  0.2500
 9333TIP3    H127963   2.000   2.624   5.090  0.8217 -0.4341 -1.7857
 9333TIP3    H227964   1.895   2.684   4.999  0.1622  0.3098 -0.5599
 9334TIP3   OH227965   5.155   6.098   2.612 -0.0442  0.0470 -0.3577
 9334TIP3    H127966   5.111   6.143   2.540 -1.9867 -1.1335  0.0474
 9334TIP3    H227967   5.093   6.103   2.685  0.6019 -1.4131  0.3263
 9335TIP3   OH227968   2.920   3.899   2.367  0.5447  0.4259 -0.4653
 9335TIP3    H127969   2.970   3.844   2.427  0.5810 -1.0390 -1.7534
 9335TIP3    H227970   2.837   3.915   2.412 -0.3840 -2.5897 -0.8544
 9336TIP3   OH227971   4.851   4.230   5.125  0.3286 -0.4177  1.1510
 9336TIP3    H127972   4.934   4.225   5.173  1.6643 -0.3593 -0.9770
 9336TIP3    H227973   4.842   4.323   5.103  0.0949 -0.5370  0.7377
 9337TIP3   OH227974   7.007   2.010   1.223 -0.8860 -0.0065  0.2183
 9337TIP3    H127975   6.944   2.082   1.218  0.7142  1.5464  1.0453
 9337TIP3    H227976   6.968   1.949   1.286 -0.4480  2.2159  2.8248
 9338TIP3   OH227977   2.680   2.448   5.375 -0.1792 -0.2964  0.0904
 9338TIP3    H127978   2.689   2.391   5.299 -0.4536 -0.0734 -0.1113
 9338TIP3    H227979   2.600   2.498   5.359  0.5350  0.7939 -0.1828
 9339TIP3   OH227980   4.561   6.731   3.160 -0.4690 -0.3328  0.0650
 9339TIP3    H127981   4.648   6.763   3.135 -0.6407  0.7657  0.7571
 9339TIP3    H227982   4.521   6.806   3.203 -0.9823 -1.4474  1.6159
 9340TIP3   OH227983   6.687   0.466   3.359 -0.0833 -0.1962 -0.0157
 9340TIP3    H127984   6.653   0.382   3.389  1.6529 -0.8216  0.3333
 9340TIP3    H227985   6.669   0.527   3.430 -1.0988 -0.3237 -0.1520
 9341TIP3   OH227986   4.970   5.836   4.236  0.2433 -0.0849  0.3245
 9341TIP3    H127987   5.030   5.862   4.166  1.1218  0.6142  1.3252
 9341TIP3    H227988   4.940   5.918   4.274 -2.8443 -0.3013 -1.3202
 9342TIP3   OH227989   1.888   3.996   2.105 -0.0353  0.3223  0.0427
 9342TIP3    H127990   1.903   3.929   2.171  1.9766  0.3043 -0.3852
 9342TIP3    H227991   1.953   3.979   2.037 -1.5694  0.7864 -1.6305
 9343TIP3   OH227992   2.245   1.893   1.420  0.4288 -0.0205 -0.2584
 9343TIP3    H127993   2.303   1.903   1.495  0.3248 -0.0028 -0.1813
 9343TIP3    H227994   2.182   1.826   1.445  1.5845 -1.4613 -1.0586
 9344TIP3   OH227995   4.711   3.395   1.344  0.1905  0.5954 -0.6966
 9344TIP3    H127996   4.728   3.480   1.302 -1.4316  1.5756  0.5153
 9344TIP3    H227997   4.623   3.372   1.315  0.3043 -0.2908 -0.3613
 9345TIP3   OH227998   6.365   6.763   4.807 -0.2146 -0.5709  0.5396
 9345TIP3    H127999   6.451   6.776   4.846  0.1859 -1.3554 -0.0447
 9345TIP3    H228000   6.366   6.814   4.726 -1.2698  1.5717  1.7901
 9346TIP3   OH228001   3.411   0.974   3.523  0.0111  0.5861  0.4364
 9346TIP3    H128002   3.378   0.889   3.551  1.5808  0.4243  1.9953
 9346TIP3    H228003   3.504   0.973   3.547  0.2994  2.3862 -0.3871
 9347TIP3   OH228004   6.512   3.752   5.223 -0.4509 -0.3165 -0.3395
 9347TIP3    H128005   6.513   3.829   5.279  2.2078 -1.2239  1.0323
 9347TIP3    H228006   6.604   3.732   5.207 -1.0708 -2.3571 -1.8818
 9348TIP3   OH228007   6.674   0.687   2.283 -0.2233 -0.0397  0.9231
 9348TIP3    H128008   6.714   0.611   2.325  2.3735  0.3172 -0.6572
 9348TIP3    H228009   6.594   0.654   2.243 -1.2506 -0.9924  3.5646
 9349TIP3   OH228010   5.523   4.651   2.198 -0.4594  0.1815 -0.1295
 9349TIP3    H128011   5.526   4.666   2.103 -0.2993 -0.0363 -0.1604
 9349TIP3    H228012   5.605   4.689   2.230  0.7728 -2.0870 -0.4263
 9350TIP3   OH228013   3.993   6.582   2.927 -0.1243  0.4067  0.2115
 9350TIP3    H128014   3.984   6.669   2.965 -1.5698  1.0494 -1.4653
 9350TIP3    H228015   4.063   6.592   2.862 -1.0057  0.6255 -0.7275
 9351TIP3   OH228016   1.660   3.127   1.127  0.2631  0.0822 -0.2734
 9351TIP3    H128017   1.635   3.213   1.093  1.5074  0.3730 -0.5259
 9351TIP3    H228018   1.660   3.137   1.222  0.8813  0.5270 -0.3109
 9352TIP3   OH228019   3.116   4.253   3.568  0.8561 -0.2997 -0.3284
 9352TIP3    H128020   3.027   4.271   3.538  0.6927 -0.5564 -0.0075
 9352TIP3    H228021   3.163   4.335   3.557  0.8836 -0.4648 -1.5780
 9353TIP3   OH228022   2.898   4.106   2.615  0.5951 -0.4579 -0.0072
 9353TIP3    H128023   2.919   4.182   2.561 -1.7689  0.2590  0.0051
 9353TIP3    H228024   2.983   4.080   2.653  1.8476  0.6574 -1.8901
 9354TIP3   OH228025   0.769   5.735   1.494 -0.0387 -0.2110 -0.7308
 9354TIP3    H128026   0.801   5.779   1.572 -0.7397 -0.7275 -0.1355
 9354TIP3    H228027   0.708   5.798   1.454  1.0528  0.4471 -1.4245
 9355TIP3   OH228028   5.789   1.949   3.971 -0.1168  0.1714 -0.3988
 9355TIP3    H128029   5.788   1.904   4.056 -0.2197 -1.1499 -1.0779
 9355TIP3    H228030   5.803   2.041   3.993 -1.4453  0.0425  1.1343
 9356TIP3   OH228031   2.163   4.357   1.449  0.4081  0.3427  0.0039
 9356TIP3    H128032   2.146   4.451   1.444 -1.2263  0.1379  1.2729
 9356TIP3    H228033   2.144   4.333   1.539 -1.2488 -1.5830 -0.7873
 9357TIP3   OH228034   0.345   6.690   3.854 -0.0558 -0.5080  0.1749
 9357TIP3    H128035   0.396   6.751   3.800  1.6177 -1.7328  0.2887
 9357TIP3    H228036   0.384   6.604   3.835 -0.4724 -1.1684  2.1410
 9358TIP3   OH228037   4.093   6.124   3.487  0.4425  0.2284  0.5232
 9358TIP3    H128038   4.028   6.183   3.449  0.6820 -0.5556 -1.2203
 9358TIP3    H228039   4.059   6.101   3.573 -1.6687 -0.2725 -0.3974
 9359TIP3   OH228040   6.332   1.986   1.336 -0.0814 -0.2802  0.0645
 9359TIP3    H128041   6.375   1.902   1.324  0.2685  0.0015 -0.7245
 9359TIP3    H228042   6.359   2.038   1.260  0.1847  0.7454  0.8375
 9360TIP3   OH228043   0.855   2.723   2.308 -0.1203 -0.4921 -0.0614
 9360TIP3    H128044   0.865   2.657   2.377  1.6918  0.9028  1.0846
 9360TIP3    H228045   0.819   2.799   2.353 -0.9297 -0.2370 -1.1028
 9361TIP3   OH228046   4.464   6.629   0.441 -0.4989  0.2360  1.1610
 9361TIP3    H128047   4.519   6.622   0.364 -1.4769 -0.9660  0.5383
 9361TIP3    H228048   4.389   6.681   0.412 -0.3479  0.7216  1.6232
 9362TIP3   OH228049   1.425   4.018   5.603 -0.3333  0.6578  0.2747
 9362TIP3    H128050   1.430   4.090   5.540  2.0666  1.9296  1.7860
 9362TIP3    H228051   1.504   3.967   5.586 -1.1258 -0.6563  0.4062
 9363TIP3   OH228052   3.451   2.116   2.734  0.7928 -0.7023 -0.3232
 9363TIP3    H128053   3.465   2.179   2.664  0.4989 -1.0216 -0.6760
 9363TIP3    H228054   3.401   2.045   2.693  1.0132 -1.1071  0.0975
 9364TIP3   OH228055   6.374   6.289   4.891 -0.4478 -0.1266  0.0285
 9364TIP3    H128056   6.362   6.228   4.818  0.0197 -0.1443 -0.0378
 9364TIP3    H228057   6.285   6.303   4.925 -0.7525  0.4054 -0.9538
 9365TIP3   OH228058   0.359   3.651   4.175  0.9866  0.0781 -0.1808
 9365TIP3    H128059   0.348   3.743   4.201 -0.8334 -0.3741  0.8354
 9365TIP3    H228060   0.419   3.614   4.240 -0.4833 -0.0909  1.1376
 9366TIP3   OH228061   2.750   6.393   4.940  0.5443 -0.3632  0.1311
 9366TIP3    H128062   2.703   6.310   4.932 -2.2633  1.2326 -1.3970
 9366TIP3    H228063   2.763   6.421   4.849  3.8329 -0.2588  0.5048
 9367TIP3   OH228064   3.590   4.879   3.926  0.6318 -0.2533  0.2237
 9367TIP3    H128065   3.649   4.815   3.885 -0.3880 -1.7482  0.9889
 9367TIP3    H228066   3.592   4.856   4.019  1.0075  1.5074  0.6847
 9368TIP3   OH228067   1.385   5.338   3.564 -0.3175  0.7663 -0.0562
 9368TIP3    H128068   1.404   5.309   3.653 -1.2488  1.0997  0.2591
 9368TIP3    H228069   1.332   5.417   3.575 -1.6531  0.0119 -0.8964
 9369TIP3   OH228070   1.026   5.910   2.816  0.5916 -0.0459 -0.3951
 9369TIP3    H128071   0.979   5.835   2.853  1.5022 -0.5614 -0.2664
 9369TIP3    H228072   0.957   5.975   2.800 -0.1661 -0.7754 -0.1955
 9370TIP3   OH228073   1.663   3.571   1.085  0.4137  0.1742 -0.1859
 9370TIP3    H128074   1.660   3.523   1.168 -2.8555  0.6263  0.0876
 9370TIP3    H228075   1.719   3.647   1.102 -0.7458  0.6179  1.8411
 9371TIP3   OH228076   3.206   1.617   0.692  0.8447 -0.2576 -0.1908
 9371TIP3    H128077   3.204   1.683   0.622  0.5824  0.1164  0.1610
 9371TIP3    H228078   3.167   1.662   0.767  0.1427 -1.0048 -0.1014
 9372TIP3   OH228079   6.669  -0.027   3.886  0.6247 -0.1629 -0.2488
 9372TIP3    H128080   6.747   0.028   3.879 -0.4371  1.4240 -0.1223
 9372TIP3    H228081   6.627   0.000   3.967 -0.6162 -0.2185 -0.8412
 9373TIP3   OH228082   5.220   2.227   3.831  0.0497  0.4719  0.1520
 9373TIP3    H128083   5.280   2.222   3.905  0.3191 -1.6166 -0.1578
 9373TIP3    H228084   5.236   2.314   3.794  4.3425 -0.5824 -1.0716
 9374TIP3   OH228085   1.312   6.069   1.053 -0.4084 -0.5817 -0.0385
 9374TIP3    H128086   1.393   6.048   1.005 -1.2177 -0.3723 -1.5693
 9374TIP3    H228087   1.261   5.989   1.050 -0.9580 -0.2234 -0.5821
 9375TIP3   OH228088   5.882   4.344   0.423 -0.2797  0.7176  0.0380
 9375TIP3    H128089   5.917   4.399   0.353  0.3922 -0.9305 -0.9773
 9375TIP3    H228090   5.952   4.341   0.488 -0.9598  2.3687  0.9067
 9376TIP3   OH228091   5.228   4.250   5.040 -0.3898 -0.8180 -0.0790
 9376TIP3    H128092   5.247   4.193   4.965 -0.2094  0.0853 -0.7355
 9376TIP3    H228093   5.308   4.300   5.052 -1.2930  0.9125 -0.9666
 9377TIP3   OH228094   1.334   1.167   5.304 -0.4768 -0.5565 -0.0620
 9377TIP3    H128095   1.340   1.073   5.323  1.0750 -0.6755 -1.0107
 9377TIP3    H228096   1.279   1.202   5.374 -1.1141 -2.1705  0.2885
 9378TIP3   OH228097   7.165   6.100   5.231  0.4556 -0.2142 -0.1454
 9378TIP3    H128098   7.100   6.104   5.160 -1.4660  0.3410  1.5276
 9378TIP3    H228099   7.179   6.006   5.246 -2.2245 -0.4919  1.2867
 9379TIP3   OH228100   2.695   4.515   1.537  0.7438  0.0254 -0.2336
 9379TIP3    H128101   2.716   4.576   1.607  0.7507  0.5142 -0.6568
 9379TIP3    H228102   2.772   4.459   1.530  1.1512  0.6181 -0.5259
 9380TIP3   OH228103   4.599   6.316   2.101  0.1644  0.0100 -0.0437
 9380TIP3    H128104   4.504   6.329   2.100 -0.0126 -1.1747 -0.5925
 9380TIP3    H228105   4.634   6.396   2.063 -0.5838  0.6391  0.5498
 9381TIP3   OH228106   4.931   3.170   2.897  0.1151  0.4526 -0.0789
 9381TIP3    H128107   4.877   3.236   2.941 -0.3055 -0.7558  1.2777
 9381TIP3    H228108   4.891   3.162   2.810  0.0153  1.7774 -0.1802
 9382TIP3   OH228109   6.798   6.084   1.259  0.1731  0.8679 -0.0926
 9382TIP3    H128110   6.882   6.039   1.272  0.2735  1.0758 -0.0101
 9382TIP3    H228111   6.733   6.027   1.300  0.0914  0.0366 -1.3139
 9383TIP3   OH228112   1.439   6.016   5.408 -0.0281  0.9273  0.8192
 9383TIP3    H128113   1.373   6.014   5.338  1.0430 -0.9471 -0.2272
 9383TIP3    H228114   1.390   6.037   5.487 -2.0748 -1.3014  0.2455
 9384TIP3   OH228115   7.185   3.801   5.614 -0.0555  0.2663 -0.0787
 9384TIP3    H128116   7.236   3.757   5.547  0.0074  0.4974 -0.1838
 9384TIP3    H228117   7.107   3.833   5.568  0.5272  1.4226 -0.2976
 9385TIP3   OH228118   5.724   2.612   0.567  0.5318  0.3118 -0.1980
 9385TIP3    H128119   5.756   2.652   0.486 -2.6514  1.5168 -1.0289
 9385TIP3    H228120   5.651   2.667   0.594 -3.1348 -3.8266 -0.4520
 9386TIP3   OH228121   2.262   0.732   4.752  0.4601 -0.2051  0.3652
 9386TIP3    H128122   2.215   0.806   4.791  0.0594  0.0432 -0.5670
 9386TIP3    H228123   2.275   0.757   4.661 -1.3986 -2.0854 -0.4958
 9387TIP3   OH228124   7.020   5.462   3.649 -0.2475  0.3246  0.3449
 9387TIP3    H128125   7.081   5.441   3.578 -0.0602  0.2987  0.5132
 9387TIP3    H228126   7.038   5.396   3.716 -1.5543 -0.6786 -0.2461
 9388TIP3   OH228127   1.275   3.758   0.492  0.1819 -0.0315  0.2390
 9388TIP3    H128128   1.352   3.743   0.436  0.6644 -0.0223  0.8932
 9388TIP3    H228129   1.238   3.671   0.504  0.6892 -0.1846  0.7606
 9389TIP3   OH228130   4.549   5.928   0.845  0.3777  0.2915 -0.2447
 9389TIP3    H128131   4.584   5.864   0.783  2.5737 -1.5611  2.6746
 9389TIP3    H228132   4.470   5.887   0.880  0.9918 -0.2074  0.5802
 9390TIP3   OH228133   4.040   0.168   4.720  0.1378  0.5102 -0.1672
 9390TIP3    H128134   4.081   0.108   4.782 -0.3456  0.5126  0.1559
 9390TIP3    H228135   4.102   0.240   4.712 -0.1679  0.9124  0.9531
 9391TIP3   OH228136   1.575   3.028   2.253  0.8399  0.2486 -0.0019
 9391TIP3    H128137   1.636   3.052   2.323  1.5174 -1.4843  0.0547
 9391TIP3    H228138   1.542   2.942   2.279  0.7004 -0.1946 -1.5380
 9392TIP3   OH228139   2.005   2.668   2.765  0.2740  0.2540  0.0446
 9392TIP3    H128140   2.041   2.580   2.780  0.6283  0.0533 -1.7348
 9392TIP3    H228141   2.034   2.719   2.840  2.5701 -0.4214 -0.2964
 9393TIP3   OH228142   1.732   0.955   4.411  0.1427 -0.8163 -0.0988
 9393TIP3    H128143   1.651   0.984   4.369  0.7169 -0.5963 -1.0654
 9393TIP3    H228144   1.716   0.969   4.505 -0.7504 -0.3014 -0.3195
 9394TIP3   OH228145   2.692   0.775   0.098 -0.4714  0.0775  0.0293
 9394TIP3    H128146   2.734   0.786   0.012  1.6011  1.6081  1.1529
 9394TIP3    H228147   2.748   0.714   0.145 -0.3479  0.9177  1.0194
 9395TIP3   OH228148   6.683   3.977   2.707  0.0679 -0.1298  0.6291
 9395TIP3    H128149   6.740   3.965   2.783 -0.8144 -1.1941  1.1554
 9395TIP3    H228150   6.677   4.072   2.696 -0.3115  0.0738  2.3029
 9396TIP3   OH228151   4.023   3.046   0.310  0.2680 -0.3560 -0.1911
 9396TIP3    H128152   4.066   3.045   0.395  0.7059 -1.4431 -0.4087
 9396TIP3    H228153   4.019   2.954   0.284 -1.9991 -0.2810 -0.2839
 9397TIP3   OH228154   0.511   5.045   1.198  0.1859 -0.1865  0.0510
 9397TIP3    H128155   0.522   4.955   1.226 -0.5734  0.3546  2.3692
 9397TIP3    H228156   0.416   5.054   1.183  0.3237  0.0995 -0.7215
 9398TIP3   OH228157   0.707   3.245   2.732  0.0491  0.3799  0.5229
 9398TIP3    H128158   0.799   3.258   2.754  0.9935 -1.3719 -1.9249
 9398TIP3    H228159   0.684   3.323   2.681  0.7677  0.0514 -0.3460
 9399TIP3   OH228160   0.462   3.717   1.526 -0.0280  0.4948  0.1926
 9399TIP3    H128161   0.491   3.656   1.594  0.0692 -1.3325 -1.3982
 9399TIP3    H228162   0.368   3.702   1.519  0.2857 -0.9818 -1.5416
 9400TIP3   OH228163   0.519   6.638   1.666 -0.0331  0.3822 -0.6671
 9400TIP3    H128164   0.471   6.576   1.722  0.1594  1.2692  0.5117
 9400TIP3    H228165   0.576   6.685   1.726  0.4607  1.1101 -1.6830
 9401TIP3   OH228166   5.622   2.196   1.039  0.0833  0.2964  0.8206
 9401TIP3    H128167   5.691   2.240   1.088  0.6467  1.5701 -0.9823
 9401TIP3    H228168   5.658   2.186   0.951 -1.5903 -0.1089  0.1382
 9402TIP3   OH228169   7.013   2.632   3.015 -0.2001  0.1712 -0.1009
 9402TIP3    H128170   6.937   2.683   2.985  0.9891  2.6741  0.8068
 9402TIP3    H228171   7.005   2.632   3.111  0.4171 -0.4083 -0.0479
 9403TIP3   OH228172   2.883   2.641   1.378 -0.2322  0.5987 -0.3717
 9403TIP3    H128173   2.804   2.587   1.372  1.2005 -2.1604  2.3696
 9403TIP3    H228174   2.952   2.586   1.340  0.6100  2.4208 -1.5769
 9404TIP3   OH228175   0.824   2.235   2.865 -0.3840 -0.1017 -0.0648
 9404TIP3    H128176   0.799   2.238   2.958 -0.5737 -1.6126 -0.0436
 9404TIP3    H228177   0.850   2.325   2.845 -1.8076  0.6092  1.0390
 9405TIP3   OH228178   0.951   2.649   5.103 -0.2535  0.0519  0.2045
 9405TIP3    H128179   1.003   2.626   5.026 -1.6877 -1.1869 -0.4416
 9405TIP3    H228180   0.878   2.699   5.068 -0.2252  0.6245  0.9437
 9406TIP3   OH228181   3.392   3.256   0.152 -0.1964 -0.1133 -0.5953
 9406TIP3    H128182   3.399   3.187   0.087 -1.5191  0.0386 -0.9176
 9406TIP3    H228183   3.302   3.252   0.182 -0.4890  1.8805 -1.0786
 9407TIP3   OH228184   6.568   2.106   4.787  0.1125 -0.1890  0.1839
 9407TIP3    H128185   6.572   2.037   4.853 -3.3281 -0.7614 -0.0274
 9407TIP3    H228186   6.531   2.063   4.710 -1.4216  1.6644 -0.1831
 9408TIP3   OH228187   5.577   2.088   5.323  0.5927 -0.4644 -0.6475
 9408TIP3    H128188   5.545   2.000   5.339  0.1115 -0.2568 -0.4371
 9408TIP3    H228189   5.522   2.121   5.251 -0.3461  0.2347  0.3482
 9409TIP3   OH228190   6.432   5.937   0.171  0.0168  0.6784 -0.3148
 9409TIP3    H128191   6.513   5.952   0.218 -0.3790  2.5114 -0.1395
 9409TIP3    H228192   6.453   5.957   0.079 -0.1489  0.8218 -0.3220
 9410TIP3   OH228193   6.467   4.766   1.699 -0.3233  0.2583  0.1716
 9410TIP3    H128194   6.504   4.693   1.748 -0.2693  2.1679  3.2308
 9410TIP3    H228195   6.543   4.806   1.656 -0.1380 -0.5791 -0.3086
 9411TIP3   OH228196   6.779   0.778   4.232  0.0857 -0.1843 -0.3984
 9411TIP3    H128197   6.695   0.792   4.189 -0.3653 -1.2195  0.1332
 9411TIP3    H228198   6.757   0.764   4.324  0.9924  1.4212  0.1122
 9412TIP3   OH228199   4.586   3.074   2.938  0.0981  0.6397 -0.7789
 9412TIP3    H128200   4.656   3.010   2.947  1.7666  2.3343 -0.9175
 9412TIP3    H228201   4.526   3.055   3.010  0.9441 -0.5738 -0.3653
 9413TIP3   OH228202   2.339   0.350   2.288 -0.0813  0.0950  0.0226
 9413TIP3    H128203   2.362   0.259   2.309 -0.0129  0.1588  0.2247
 9413TIP3    H228204   2.246   0.356   2.309  0.2468  0.4838  1.4481
 9414TIP3   OH228205   2.698   0.477   3.196  0.0033  0.0609 -0.0526
 9414TIP3    H128206   2.605   0.458   3.192  0.1716 -0.9056  0.3208
 9414TIP3    H228207   2.713   0.505   3.286  0.4932 -2.3288  0.6886
 9415TIP3   OH228208   3.908   1.886   4.830  0.1294  0.0849 -0.5993
 9415TIP3    H128209   3.886   1.979   4.826 -0.5336 -0.1052 -1.9541
 9415TIP3    H228210   3.908   1.858   4.738  0.0190 -1.3143 -0.1834
 9416TIP3   OH228211   4.180   0.191   4.377 -0.6840 -0.5938 -0.1099
 9416TIP3    H128212   4.189   0.121   4.443 -1.3182 -1.4411 -0.9028
 9416TIP3    H228213   4.260   0.243   4.387 -0.4651 -1.0913  0.8803
 9417TIP3   OH228214   3.039   6.612   1.689 -0.0405 -0.2132  0.8146
 9417TIP3    H128215   2.960   6.632   1.740 -0.6947  0.8284 -0.5112
 9417TIP3    H228216   3.041   6.516   1.684  0.4557 -0.3882  3.3282
 9418TIP3   OH228217   0.961   4.504   2.675  0.1168 -0.4889  0.0142
 9418TIP3    H128218   1.026   4.474   2.738  0.8388 -0.4460 -0.7046
 9418TIP3    H228219   1.007   4.569   2.621 -0.6762 -0.0416 -0.1449
 9419TIP3   OH228220   2.099   6.478   1.677  0.0563 -0.1598 -0.4994
 9419TIP3    H128221   2.118   6.566   1.709 -1.5220 -0.3738  1.2247
 9419TIP3    H228222   2.185   6.442   1.652  0.9561  1.2193  0.4649
 9420TIP3   OH228223   2.130   2.701   3.464  0.1301  0.6055 -0.0422
 9420TIP3    H128224   2.198   2.738   3.521 -2.1096  1.6270  2.1203
 9420TIP3    H228225   2.090   2.632   3.516 -1.8320  1.3862 -0.4432
 9421TIP3   OH228226   5.844   3.351   5.686 -0.0870 -0.2807  0.8181
 9421TIP3    H128227   5.773   3.373   5.626 -1.6394 -1.8378  1.9743
 9421TIP3    H228228   5.902   3.427   5.685 -0.6011  0.1430 -1.8249
 9422TIP3   OH228229   2.568   1.288   1.863 -0.2892  0.2350 -0.5897
 9422TIP3    H128230   2.628   1.286   1.938  0.4362  1.1489 -1.1114
 9422TIP3    H228231   2.624   1.312   1.789 -0.7876 -1.6222 -1.6411
 9423TIP3   OH228232   2.741   0.936   3.974  0.4920  0.0305  0.3108
 9423TIP3    H128233   2.700   0.886   3.903 -0.3453 -0.1624  0.9207
 9423TIP3    H228234   2.834   0.912   3.969  0.4044 -0.1639 -0.5635
 9424TIP3   OH228235   3.891   1.584   1.837  0.1190 -0.3514  0.1722
 9424TIP3    H128236   3.830   1.616   1.771  0.6982 -0.7427 -0.5668
 9424TIP3    H228237   3.898   1.656   1.900 -0.3034  0.0999 -0.2855
 9425TIP3   OH228238   3.034   1.032   3.614  0.0524  0.5766  0.1428
 9425TIP3    H128239   3.042   0.954   3.559  0.9580  1.4283 -0.9744
 9425TIP3    H228240   3.017   0.998   3.702  0.0568 -0.8632 -0.3937
 9426TIP3   OH228241   6.295   2.797   4.037 -0.4210 -0.7630 -0.0432
 9426TIP3    H128242   6.389   2.803   4.019 -0.5135 -0.3793 -0.4033
 9426TIP3    H228243   6.259   2.754   3.959 -0.6758 -0.0504 -0.3264
 9427TIP3   OH228244   2.086   2.219   1.236  0.2171 -0.4020  0.1162
 9427TIP3    H128245   2.027   2.285   1.272  1.0957 -0.1463  1.1351
 9427TIP3    H228246   2.028   2.148   1.208 -0.7475  0.7999 -1.0715
 9428TIP3   OH228247   3.093   1.370   4.971  0.0739  0.5579  0.2541
 9428TIP3    H128248   3.165   1.417   5.011  1.5291 -2.0908  0.9784
 9428TIP3    H228249   3.028   1.360   5.041  0.0374  0.9368  0.2741
 9429TIP3   OH228250   0.618   6.699   0.433 -0.7660  0.3970  0.0332
 9429TIP3    H128251   0.534   6.727   0.398 -1.1243  0.5065  0.9670
 9429TIP3    H228252   0.675   6.775   0.421 -0.7109  0.2313 -0.8504
 9430TIP3   OH228253   1.186   0.437   5.867  0.4948  0.0116  0.1072
 9430TIP3    H128254   1.182   0.494   5.944 -0.2286  0.4230 -0.2209
 9430TIP3    H228255   1.248   0.480   5.809  0.7991 -0.1305  0.3256
 9431TIP3   OH228256   3.604   0.201   3.854  0.3651  0.2407 -0.5028
 9431TIP3    H128257   3.681   0.252   3.833  0.3059  0.9312  0.8682
 9431TIP3    H228258   3.605   0.128   3.791  0.8911  1.4545 -1.9406
 9432TIP3   OH228259   0.070   2.779   2.010 -0.2633  0.1548 -0.2389
 9432TIP3    H128260   0.133   2.721   2.052 -0.2100  0.5392  0.2211
 9432TIP3    H228261   0.030   2.725   1.941 -0.4522 -0.5279  0.3948
 9433TIP3   OH228262   5.471   2.218   5.089  0.3891  0.3763 -0.0736
 9433TIP3    H128263   5.523   2.267   5.025  1.7235  0.4788  1.0391
 9433TIP3    H228264   5.389   2.266   5.096  0.7194  1.0608 -0.7885
 9434TIP3   OH228265   4.278   0.494   2.264 -0.1788  0.2335  0.2366
 9434TIP3    H128266   4.347   0.442   2.224  2.1938  1.9709  1.7798
 9434TIP3    H228267   4.261   0.565   2.201 -2.7783 -1.7289 -1.4612
 9435TIP3   OH228268   2.888   2.874   2.597  0.3906  0.7801  0.0882
 9435TIP3    H128269   2.811   2.818   2.608 -0.0599  1.0870 -1.3421
 9435TIP3    H228270   2.959   2.814   2.576  0.4851  0.5242  1.1009
 9436TIP3   OH228271   5.640   2.081   1.467  0.2035  0.1512 -0.7481
 9436TIP3    H128272   5.582   2.157   1.474 -0.3345 -0.3553  0.7346
 9436TIP3    H228273   5.702   2.092   1.539  0.3985 -0.5817 -0.7948
 9437TIP3   OH228274   5.955   2.755   3.143  0.0805  0.5696  0.1111
 9437TIP3    H128275   5.980   2.707   3.063  1.3389  0.3522  0.6059
 9437TIP3    H228276   5.943   2.845   3.114 -0.5595  0.2933 -0.5160
 9438TIP3   OH228277   3.333   6.465   1.280 -0.6530 -0.0238  0.3225
 9438TIP3    H128278   3.242   6.460   1.310 -0.9080  0.4171 -0.3727
 9438TIP3    H228279   3.377   6.518   1.346 -1.1355  0.6452  0.1187
 9439TIP3   OH228280   4.627   0.390   1.544 -0.2119 -0.5760  0.0445
 9439TIP3    H128281   4.701   0.347   1.502 -0.1601 -0.1978 -0.2507
 9439TIP3    H228282   4.553   0.376   1.485 -0.0032  0.4947 -0.4990
 9440TIP3   OH228283   5.093   4.124   3.806 -0.6722  0.2552 -0.1699
 9440TIP3    H128284   5.120   4.033   3.795 -0.8350  0.3129 -1.1425
 9440TIP3    H228285   5.016   4.120   3.862 -0.9689 -0.2491 -0.6097
 9441TIP3   OH228286   6.520   4.467   0.646 -0.3992 -0.1674 -0.5461
 9441TIP3    H128287   6.525   4.561   0.628 -1.5166  0.1782  0.8219
 9441TIP3    H228288   6.601   4.432   0.608  2.2395  1.9781  2.4828
 9442TIP3   OH228289   1.846   5.427   2.457 -0.1432  0.0751  0.0560
 9442TIP3    H128290   1.842   5.522   2.466 -1.8697 -0.0053  0.5834
 9442TIP3    H228291   1.891   5.412   2.374 -0.2763  1.3662 -0.2696
 9443TIP3   OH228292   5.550   3.940   4.229 -0.0376  0.3335  0.4201
 9443TIP3    H128293   5.518   4.023   4.263 -1.9135 -0.4239  0.6655
 9443TIP3    H228294   5.470   3.893   4.204  1.0037 -1.1961 -0.1562
 9444TIP3   OH228295   2.937   5.717   3.802 -0.6172  0.0454  0.0866
 9444TIP3    H128296   2.895   5.639   3.767 -0.0678 -0.4936  0.6008
 9444TIP3    H228297   3.000   5.743   3.735 -0.6640 -0.0702 -0.0022
 9445TIP3   OH228298   1.239   0.686   2.848  0.3604  0.0408 -0.0661
 9445TIP3    H128299   1.177   0.759   2.852 -0.9910 -1.0956  1.3460
 9445TIP3    H228300   1.284   0.687   2.933  1.3407  0.0752 -0.5809
 9446TIP3   OH228301   5.017   4.149   0.481 -0.1091  0.6307 -0.3161
 9446TIP3    H128302   5.081   4.095   0.433  0.3283  1.0206 -0.1769
 9446TIP3    H228303   5.009   4.229   0.429  0.5102  1.1398  0.3518
 9447TIP3   OH228304   0.593   5.014   4.265  0.9013 -0.0985 -0.2225
 9447TIP3    H128305   0.573   4.963   4.343 -0.7619  1.4799  0.4533
 9447TIP3    H228306   0.626   4.950   4.202 -3.4262 -2.5639 -0.3404
 9448TIP3   OH228307   3.652   4.584   0.114 -0.5304 -0.4885 -0.4658
 9448TIP3    H128308   3.735   4.573   0.068  0.3069  3.1180 -0.1290
 9448TIP3    H228309   3.586   4.583   0.045  0.1915 -0.0740 -1.1887
 9449TIP3   OH228310   6.723   3.970   2.033 -0.1882 -0.1139 -0.2796
 9449TIP3    H128311   6.797   3.910   2.031  0.7287  0.9927 -0.2275
 9449TIP3    H228312   6.762   4.057   2.029 -1.3747  0.5551  1.4916
 9450TIP3   OH228313   1.467   6.094   4.875  0.0143 -0.1235 -0.4937
 9450TIP3    H128314   1.455   6.085   4.970  0.6321  0.4735 -0.3542
 9450TIP3    H228315   1.520   6.173   4.865  0.0865 -0.2734 -1.3352
 9451TIP3   OH228316   0.957   6.352   4.895 -0.7637 -0.1517 -0.4181
 9451TIP3    H128317   0.969   6.271   4.846 -0.2708  0.9064 -2.1705
 9451TIP3    H228318   0.868   6.347   4.930  0.1549 -2.5676  1.8229
 9452TIP3   OH228319   1.898   5.977   2.386  0.4053 -0.4107 -0.2859
 9452TIP3    H128320   1.849   6.053   2.417 -1.9388 -2.3549  1.1103
 9452TIP3    H228321   1.837   5.932   2.327  2.2356 -0.5861 -2.1716
 9453TIP3   OH228322   4.942   6.672   0.138  0.0564 -0.0562 -0.1945
 9453TIP3    H128323   4.867   6.714   0.096  0.5500  1.9917  0.8379
 9453TIP3    H228324   5.016   6.729   0.118  1.0303 -1.1097  0.2607
 9454TIP3   OH228325   0.681   5.936   3.566 -0.0458 -0.3000 -0.0588
 9454TIP3    H128326   0.656   5.962   3.478  1.2216 -1.3284 -0.7620
 9454TIP3    H228327   0.771   5.903   3.557 -1.2658 -4.4108  0.7831
 9455TIP3   OH228328   6.773   3.632   3.642  0.1825 -0.1265 -0.1717
 9455TIP3    H128329   6.696   3.583   3.672  0.7021 -1.2319 -0.5711
 9455TIP3    H228330   6.847   3.582   3.676  0.7391  0.5934 -0.2995
 9456TIP3   OH228331   2.878   4.784   1.979  0.1700 -0.7246 -0.2857
 9456TIP3    H128332   2.883   4.873   2.015 -1.1541 -0.7059 -0.0946
 9456TIP3    H228333   2.835   4.733   2.048  1.1399 -1.5866 -0.2946
 9457TIP3   OH228334   6.966   4.542   2.130  0.3312 -0.1757  0.0220
 9457TIP3    H128335   6.895   4.605   2.115 -1.1031 -1.6151  0.5424
 9457TIP3    H228336   6.969   4.532   2.225 -0.2027 -1.6899 -0.0997
 9458TIP3   OH228337   3.885   5.803   4.761 -0.0538 -0.7283 -0.2478
 9458TIP3    H128338   3.954   5.796   4.695  0.5195 -2.4424  0.4657
 9458TIP3    H228339   3.928   5.780   4.843 -0.8979  0.7513  0.6510
 9459TIP3   OH228340   0.423   4.123   0.755 -0.4548  0.1031  0.2525
 9459TIP3    H128341   0.357   4.161   0.814 -0.2634  0.1537  0.4377
 9459TIP3    H228342   0.475   4.198   0.726  0.8467 -0.1470  1.7636
 9460TIP3   OH228343   0.663   5.834   0.177  0.4034  0.6300 -0.0020
 9460TIP3    H128344   0.648   5.901   0.243 -0.8393 -0.3699  0.7812
 9460TIP3    H228345   0.672   5.752   0.227 -1.5593 -0.3118 -1.0496
 9461TIP3   OH228346   3.622   3.180   0.793  0.2817 -0.1714  0.0115
 9461TIP3    H128347   3.651   3.095   0.825 -0.4676 -0.6857 -0.6276
 9461TIP3    H228348   3.598   3.228   0.872 -0.2360 -0.9209  0.3257
 9462TIP3   OH228349   5.503   3.372   4.590  0.4276  0.4701  0.5579
 9462TIP3    H128350   5.540   3.292   4.552 -0.4098  0.1867  0.3263
 9462TIP3    H228351   5.580   3.428   4.606  1.0832 -0.5873  1.2663
 9463TIP3   OH228352   5.967   3.835   0.857 -0.3330  0.1551 -0.1499
 9463TIP3    H128353   5.877   3.828   0.825 -0.6701  2.2463  0.1957
 9463TIP3    H228354   5.960   3.828   0.952 -0.3252  1.4780 -0.0264
 9464TIP3   OH228355   1.553   4.499   5.471  0.4583 -0.5608 -0.1454
 9464TIP3    H128356   1.516   4.463   5.552 -0.2161  2.2899  0.9143
 9464TIP3    H228357   1.483   4.490   5.407  0.4934 -1.5411 -0.0674
 9465TIP3   OH228358   0.270   5.738   4.305  0.1124 -0.2262  0.3393
 9465TIP3    H128359   0.178   5.765   4.302  0.6362  1.6354 -1.7752
 9465TIP3    H228360   0.306   5.784   4.381 -0.4316  0.0209  0.4561
 9466TIP3   OH228361   0.345   3.862   3.413  0.3123  0.1954 -0.5101
 9466TIP3    H128362   0.256   3.832   3.398  0.6179 -0.2050 -1.5838
 9466TIP3    H228363   0.374   3.813   3.491 -0.1401 -0.2394 -0.6124
 9467TIP3   OH228364   0.023   3.442   3.827  0.2821 -0.3653 -0.1493
 9467TIP3    H128365   0.087   3.467   3.894 -0.8875  0.9025  0.5338
 9467TIP3    H228366   0.064   3.368   3.782  1.2472 -1.0521  1.7373
 9468TIP3   OH228367   0.351   1.787   4.436 -0.2002  0.0897 -0.0233
 9468TIP3    H128368   0.381   1.696   4.439 -0.4528  0.0339  1.8528
 9468TIP3    H228369   0.259   1.782   4.410  0.0382 -0.1023 -0.8574
 9469TIP3   OH228370   2.200   6.476   5.864 -0.9666 -0.4723  0.0299
 9469TIP3    H128371   2.159   6.448   5.946 -0.4725 -0.1436  0.3949
 9469TIP3    H228372   2.127   6.487   5.803 -1.2607 -1.5700  0.1598
 9470TIP3   OH228373   1.896   5.964   0.777 -0.1007 -0.2144 -0.2377
 9470TIP3    H128374   1.975   6.013   0.799 -0.5686 -0.4762  2.4116
 9470TIP3    H228375   1.924   5.873   0.774  0.0267 -0.1472 -1.0979
 9471TIP3   OH228376   6.162   6.654   4.196  0.4006 -0.1355  0.1775
 9471TIP3    H128377   6.110   6.725   4.235  0.4420  0.7052 -1.2390
 9471TIP3    H228378   6.216   6.623   4.268  1.0492  1.9081  0.6397
 9472TIP3   OH228379   5.535   2.467   3.054  0.1978 -0.2661  0.7386
 9472TIP3    H128380   5.453   2.427   3.024  0.5223 -1.4812  1.3973
 9472TIP3    H228381   5.519   2.486   3.147  0.3000  0.4674  0.6066
 9473TIP3   OH228382   3.419   3.436   2.069 -0.1948 -0.1855  0.4129
 9473TIP3    H128383   3.514   3.444   2.063 -0.1465 -0.6161  0.5798
 9473TIP3    H228384   3.391   3.407   1.983 -0.2680  0.7349  0.1076
 9474TIP3   OH228385   1.974   1.891   3.536 -0.1160 -0.4480  0.2399
 9474TIP3    H128386   2.021   1.885   3.453  0.1567 -0.8409  0.4158
 9474TIP3    H228387   2.037   1.860   3.601 -0.2544  0.0625  0.6227
 9475TIP3   OH228388   6.292   4.614   3.506  0.3912 -0.3117  0.4909
 9475TIP3    H128389   6.308   4.522   3.482 -0.5818 -0.2778 -0.3362
 9475TIP3    H228390   6.310   4.617   3.600  2.9660 -0.7544  0.0889
 9476TIP3   OH228391   4.429   6.304   3.915 -0.0870 -0.1622 -0.3780
 9476TIP3    H128392   4.400   6.304   3.824  0.8588  1.6232 -0.7273
 9476TIP3    H228393   4.397   6.387   3.951  0.1396 -0.5309  0.7244
 9477TIP3   OH228394   1.396   4.144   1.649  0.0169  0.2274  0.1911
 9477TIP3    H128395   1.488   4.166   1.662 -0.2586  0.8984  1.1109
 9477TIP3    H228396   1.397   4.056   1.612  0.9978 -0.2828  1.3595
 9478TIP3   OH228397   5.239   6.502   5.153 -0.0714 -0.7653 -0.1343
 9478TIP3    H128398   5.312   6.503   5.215  0.2412  0.5506 -0.4902
 9478TIP3    H228399   5.273   6.546   5.075 -1.3352  0.1557 -0.2013
 9479TIP3   OH228400   6.072   3.946   4.212 -0.2364 -0.0723 -0.1666
 9479TIP3    H128401   6.145   3.972   4.154 -0.5503  0.3820 -0.3645
 9479TIP3    H228402   6.073   4.012   4.281  0.6608 -1.0798  0.8199
 9480TIP3   OH228403   4.246   4.962   4.090 -0.3666 -0.0190 -0.3843
 9480TIP3    H128404   4.315   4.960   4.156 -0.6719 -1.2183 -0.0780
 9480TIP3    H228405   4.218   5.054   4.088  0.6763  0.3228  0.0605
 9481TIP3   OH228406   6.363   3.666   2.203  0.5481 -0.5944  0.5959
 9481TIP3    H128407   6.292   3.659   2.266 -1.2419 -1.2284 -1.3692
 9481TIP3    H228408   6.368   3.759   2.182 -0.3321 -0.6446  0.1085
 9482TIP3   OH228409   4.009   0.632   4.180  0.0055 -0.1633  0.5256
 9482TIP3    H128410   4.077   0.699   4.186  1.9066 -2.0521  1.2275
 9482TIP3    H228411   4.034   0.567   4.246 -0.7606 -2.4291 -1.3027
 9483TIP3   OH228412   2.407   0.621   2.255 -0.4025 -0.2469 -0.2183
 9483TIP3    H128413   2.379   0.530   2.262 -2.1971  0.3329  0.8930
 9483TIP3    H228414   2.462   0.636   2.332 -0.5034 -0.2549 -0.1454
 9484TIP3   OH228415   2.003   3.004   4.987  0.2400 -0.1728 -0.4490
 9484TIP3    H128416   1.917   3.006   4.945 -0.6285  2.1285  1.2587
 9484TIP3    H228417   2.008   3.087   5.035  3.9897  0.4456 -1.5878
 9485TIP3   OH228418   7.175   6.802   5.815  0.5809  0.7287  0.0466
 9485TIP3    H128419   7.191   6.745   5.891 -0.1679  0.3628 -0.0585
 9485TIP3    H228420   7.172   6.741   5.741 -1.8143  0.6612  0.1210
 9486TIP3   OH228421   5.498   0.984   2.170 -0.1353  0.2287 -0.6155
 9486TIP3    H128422   5.434   1.055   2.178 -1.3949 -0.7737 -1.5312
 9486TIP3    H228423   5.501   0.965   2.076  0.2648 -0.8680 -0.3885
 9487TIP3   OH228424   2.226   4.552   4.037  0.1856 -0.1114 -0.4533
 9487TIP3    H128425   2.225   4.566   4.132 -0.8376 -0.6062 -0.3814
 9487TIP3    H228426   2.186   4.630   4.000 -0.4437 -0.3956 -0.3942
 9488TIP3   OH228427   1.678   5.496   5.183 -0.0268  0.1793  0.2127
 9488TIP3    H128428   1.661   5.590   5.193 -0.6645  0.1051 -0.0996
 9488TIP3    H228429   1.772   5.487   5.196 -0.2538  0.5629  2.4943
 9489TIP3   OH228430   6.055   5.385   3.309 -0.0990  0.0206  0.1219
 9489TIP3    H128431   6.011   5.311   3.269 -0.9007  0.7412 -0.3719
 9489TIP3    H228432   6.124   5.346   3.363  1.5998 -0.9668 -2.5934
 9490TIP3   OH228433   0.491   5.756   3.807 -0.3166  0.4563  0.1237
 9490TIP3    H128434   0.476   5.841   3.847 -1.3575 -0.7592  2.5531
 9490TIP3    H228435   0.586   5.747   3.804 -0.2000  1.5413  0.1321
 9491TIP3   OH228436   0.484   5.759   4.152  0.3116 -0.5664  0.5910
 9491TIP3    H128437   0.403   5.740   4.199 -0.9446  1.8371 -0.4216
 9491TIP3    H228438   0.493   5.687   4.091 -0.5810 -1.3312  1.3233
 9492TIP3   OH228439   0.727   0.495   0.914  0.0109  0.1071  0.3991
 9492TIP3    H128440   0.816   0.504   0.947  0.4464 -2.3017  0.0476
 9492TIP3    H228441   0.737   0.466   0.824 -1.1165 -0.1814  0.3481
 9493TIP3   OH228442   2.627   2.160   0.499  0.6696  0.2358  0.6560
 9493TIP3    H128443   2.556   2.171   0.562  0.0915 -0.2049  0.0835
 9493TIP3    H228444   2.703   2.199   0.542  0.0047  1.0351  1.1192
 9494TIP3   OH228445   6.890   6.433   3.776  0.1205  0.2750  0.6352
 9494TIP3    H128446   6.842   6.383   3.841 -0.5062  1.8758  1.4590
 9494TIP3    H228447   6.969   6.381   3.759 -1.7477 -2.3746 -0.6687
 9495TIP3   OH228448   4.189   1.187   2.174  0.6039  0.3553 -0.1034
 9495TIP3    H128449   4.274   1.196   2.131  0.9123  0.2267  0.4688
 9495TIP3    H228450   4.202   1.117   2.238  0.2344  0.7423  0.4044
 9496TIP3   OH228451   6.758   0.687   0.084 -0.6426 -0.0718  0.0167
 9496TIP3    H128452   6.750   0.695  -0.011  1.9222 -0.0694 -0.2713
 9496TIP3    H228453   6.836   0.634   0.097 -0.0033  1.2516  2.1057
 9497TIP3   OH228454   4.184   3.410   0.598  0.3965 -0.0251 -0.1270
 9497TIP3    H128455   4.235   3.341   0.640  0.0841 -0.3021 -0.2024
 9497TIP3    H228456   4.249   3.462   0.551  0.7615  0.3190  0.7324
 9498TIP3   OH228457   2.836   0.613   0.433 -0.1726 -1.1170 -0.2986
 9498TIP3    H128458   2.884   0.630   0.352 -0.9036 -0.4670 -0.6082
 9498TIP3    H228459   2.748   0.591   0.404 -0.5897 -0.3296  0.3343
 9499TIP3   OH228460   7.211   4.673   3.857 -0.2075 -0.6868 -0.6228
 9499TIP3    H128461   7.240   4.705   3.772 -1.7750  1.3927 -0.4445
 9499TIP3    H228462   7.118   4.653   3.845 -0.7812  0.8484  0.8414
 9500TIP3   OH228463   1.333   1.667   1.251 -0.4202 -0.1693  0.3192
 9500TIP3    H128464   1.290   1.608   1.312 -0.7908 -0.5770 -0.3213
 9500TIP3    H228465   1.330   1.621   1.167  0.3643  0.2379  0.0548
 9501TIP3   OH228466   2.018   3.207   1.926 -0.0037  0.2196  0.3155
 9501TIP3    H128467   2.054   3.118   1.931  0.0980 -0.0156 -2.4885
 9501TIP3    H228468   1.941   3.198   1.870 -0.9200  1.6759  1.2861
 9502TIP3   OH228469   5.069   6.406   0.490  0.2127  0.3043 -0.3769
 9502TIP3    H128470   5.054   6.398   0.396  1.9303 -0.6962 -0.6086
 9502TIP3    H228471   5.164   6.415   0.498  0.2110 -0.7583  1.3237
 9503TIP3   OH228472   6.974   5.438   2.857 -0.4263  0.2242  0.1041
 9503TIP3    H128473   6.924   5.483   2.925 -0.2694  0.6388 -0.0503
 9503TIP3    H228474   6.918   5.443   2.779 -0.9051 -0.8400  0.3583
 9504TIP3   OH228475   1.512   4.404   3.760  0.1039 -0.1044 -0.1343
 9504TIP3    H128476   1.464   4.418   3.678  0.4662  1.4146 -0.1188
 9504TIP3    H228477   1.585   4.347   3.735 -0.4042 -0.5642 -0.6229
 9505TIP3   OH228478   1.559   0.283   0.644 -0.4685  0.0957  0.6419
 9505TIP3    H128479   1.480   0.269   0.696  0.0102  1.8872  1.9917
 9505TIP3    H228480   1.550   0.373   0.611  0.6631  0.0647  0.1947
 9506TIP3   OH228481   5.180   0.151   5.510 -0.1570  0.7463  0.3821
 9506TIP3    H128482   5.183   0.222   5.574  3.6035 -0.3616  1.7033
 9506TIP3    H228483   5.252   0.170   5.449 -1.1653 -0.2870 -1.2184
 9507TIP3   OH228484   4.381   6.078   3.702 -0.2616 -0.7823 -0.2427
 9507TIP3    H128485   4.445   6.123   3.757 -0.4339 -1.1606  0.2739
 9507TIP3    H228486   4.368   6.137   3.628  0.2149 -0.4154 -0.0392
 9508TIP3   OH228487   1.706   6.593   2.546  0.4682  0.0163  0.4787
 9508TIP3    H128488   1.627   6.646   2.558  0.1238  0.4461 -2.7086
 9508TIP3    H228489   1.764   6.619   2.618 -1.2509  1.7119  1.3364
 9509TIP3   OH228490   1.949   0.717   2.582 -0.6869  0.1588  0.1290
 9509TIP3    H128491   1.937   0.761   2.497  2.9386 -1.5464 -1.4752
 9509TIP3    H228492   1.866   0.672   2.597 -1.4071  0.3605 -2.6519
 9510TIP3   OH228493   6.054   5.166   0.635 -1.0190 -0.2892 -0.2038
 9510TIP3    H128494   5.976   5.219   0.651  0.5512  2.0695  0.2813
 9510TIP3    H228495   6.090   5.149   0.723 -0.5071 -0.5758 -0.4614
 9511TIP3   OH228496   2.367   0.939   3.762 -0.0661  0.0576  0.0827
 9511TIP3    H128497   2.290   0.922   3.708 -0.7871  1.6939  0.5448
 9511TIP3    H228498   2.441   0.916   3.706 -0.8405  0.2637 -1.0658
 9512TIP3   OH228499   1.430   5.594   2.328 -1.0165 -0.2002 -0.2141
 9512TIP3    H128500   1.366   5.645   2.278 -0.8795 -0.8433 -1.0646
 9512TIP3    H228501   1.495   5.659   2.355 -1.0361  0.1474 -0.9652
 9513TIP3   OH228502   0.139   5.123   5.535 -0.1380  0.2867  0.1923
 9513TIP3    H128503   0.109   5.033   5.543  0.2413  0.0849 -0.5298
 9513TIP3    H228504   0.096   5.170   5.606  0.3121 -0.6367  1.0998
 9514TIP3   OH228505   3.793   2.134   4.762  0.1719 -0.4640  0.0961
 9514TIP3    H128506   3.816   2.226   4.763 -0.5654 -0.2764  0.4663
 9514TIP3    H228507   3.749   2.121   4.678  0.0662 -0.4291  0.1467
 9515TIP3   OH228508   6.864   1.481   5.916 -0.0098 -0.2855  0.2630
 9515TIP3    H128509   6.892   1.552   5.857  1.7496 -1.0084  0.1709
 9515TIP3    H228510   6.800   1.432   5.865  0.3859 -0.0352 -0.4897
 9516TIP3   OH228511   2.197   3.054   0.367  0.2312  0.5210 -0.7326
 9516TIP3    H128512   2.102   3.054   0.358 -0.0260 -0.9844  1.2515
 9516TIP3    H228513   2.230   3.068   0.278 -1.8306 -1.3176 -1.8677
 9517TIP3   OH228514   7.151   5.305   0.714  0.3819 -0.2623 -0.3893
 9517TIP3    H128515   7.108   5.332   0.795 -0.7954 -0.0573 -1.0572
 9517TIP3    H228516   7.150   5.382   0.658 -0.0562 -0.7694 -1.1022
 9518TIP3   OH228517   0.921   1.040   1.780 -0.1062 -0.9963  0.3509
 9518TIP3    H128518   0.878   0.999   1.856 -1.7306  0.1498  0.1113
 9518TIP3    H228519   0.855   1.036   1.711  0.2527  0.6195 -0.1267
 9519TIP3   OH228520   4.243   1.824   2.346  0.0748 -0.4202 -0.3442
 9519TIP3    H128521   4.171   1.802   2.287  2.0012 -0.9839 -2.6263
 9519TIP3    H228522   4.264   1.915   2.326 -2.6093  1.2639  3.3613
 9520TIP3   OH228523   6.359   4.177   2.705 -0.5956 -0.1074 -0.4402
 9520TIP3    H128524   6.326   4.133   2.784 -0.0983  0.5823  0.1594
 9520TIP3    H228525   6.451   4.195   2.724 -0.7104  0.9102 -0.8004
 9521TIP3   OH228526   2.362   0.204   1.805 -0.0662  0.0996 -0.5487
 9521TIP3    H128527   2.456   0.188   1.813 -0.1132 -0.0483 -0.2887
 9521TIP3    H228528   2.340   0.261   1.879 -0.7151 -2.2340  1.1753
 9522TIP3   OH228529   3.065   0.938   3.913  0.6850 -0.2354  0.0470
 9522TIP3    H128530   3.158   0.924   3.896  0.8135  1.9418 -1.4662
 9522TIP3    H228531   3.063   0.987   3.995  1.0247  1.1915 -0.7706
 9523TIP3   OH228532   7.026   3.864   1.992  0.5277 -0.2562 -0.5603
 9523TIP3    H128533   7.067   3.938   2.037 -2.8019  0.8278  1.0704
 9523TIP3    H228534   7.062   3.786   2.035  1.2043  0.5848  0.4312
 9524TIP3   OH228535   6.922   2.309   2.422 -0.4307 -0.2678 -0.3989
 9524TIP3    H128536   6.846   2.279   2.472  0.8532 -1.4524  0.9587
 9524TIP3    H228537   6.897   2.396   2.390 -1.4739  0.4388  2.0491
 9525TIP3   OH228538   1.177   3.649   3.613 -0.2510 -0.8756  0.5186
 9525TIP3    H128539   1.181   3.596   3.692  2.7189 -1.5403  0.0138
 9525TIP3    H228540   1.258   3.699   3.612  0.1509 -1.4016 -2.4286
 9526TIP3   OH228541   0.772   5.437   0.939  0.2442  0.0883  0.2309
 9526TIP3    H128542   0.696   5.390   0.974  0.6881 -2.1103 -1.5103
 9526TIP3    H228543   0.734   5.496   0.873 -0.1287  0.5633  0.8619
 9527TIP3   OH228544   3.064   2.992   4.502 -0.2910  0.5835  0.1127
 9527TIP3    H128545   3.129   3.009   4.570 -0.2880  0.4436  0.1442
 9527TIP3    H228546   3.025   2.909   4.526  1.4500 -0.7563 -1.3818
 9528TIP3   OH228547   3.054   2.643   2.802 -0.3452 -0.0060 -0.4694
 9528TIP3    H128548   3.144   2.674   2.795 -0.2494  0.4797  2.0150
 9528TIP3    H228549   3.061   2.556   2.842 -0.9752 -0.0369 -0.4079
 9529TIP3   OH228550   1.848   0.755   2.005 -0.1249 -0.2981 -0.1417
 9529TIP3    H128551   1.808   0.668   2.008  0.1293 -0.4044  0.0920
 9529TIP3    H228552   1.788   0.806   1.950 -0.4594 -0.5234  0.0100
 9530TIP3   OH228553   1.700   3.782   4.017 -0.0045 -0.5510 -0.4441
 9530TIP3    H128554   1.618   3.821   3.988 -0.3977 -1.8659 -1.2086
 9530TIP3    H228555   1.769   3.838   3.982 -0.5628  0.4059 -0.0348
 9531TIP3   OH228556   2.635   4.960   1.699 -0.0614  0.7638 -0.1913
 9531TIP3    H128557   2.567   4.917   1.751 -0.2017  0.6361 -0.4757
 9531TIP3    H228558   2.714   4.908   1.715 -0.3032  0.2014 -0.7846
 9532TIP3   OH228559   4.662   5.267   0.697 -0.1751 -0.3701  0.0214
 9532TIP3    H128560   4.643   5.282   0.604  1.1966 -0.2974 -0.2696
 9532TIP3    H228561   4.578   5.279   0.741 -0.5361  1.1908 -1.0165
 9533TIP3   OH228562   4.112   4.319   3.818 -0.2213 -0.0685 -0.2342
 9533TIP3    H128563   4.123   4.338   3.912 -0.6837  0.9566 -0.3714
 9533TIP3    H228564   4.083   4.402   3.780 -0.8416 -0.6833 -1.1570
 9534TIP3   OH228565   6.485   1.033   3.742  0.0250  1.0506  0.7979
 9534TIP3    H128566   6.495   1.083   3.661 -1.2210  1.0522  0.6179
 9534TIP3    H228567   6.574   1.025   3.777  0.4384  2.0244  0.0223
 9535TIP3   OH228568   4.192   3.948   0.073 -0.2289 -0.2240 -0.2368
 9535TIP3    H128569   4.231   3.992   0.149 -0.5279 -0.3894  0.0107
 9535TIP3    H228570   4.247   3.871   0.059 -0.1650 -0.1860 -0.1962
 9536TIP3   OH228571   0.789   4.115   4.784  0.5763  0.0361 -0.5025
 9536TIP3    H128572   0.812   4.053   4.714 -0.8472 -0.7086 -0.3633
 9536TIP3    H228573   0.837   4.194   4.762  0.7396 -0.4187 -1.9341
 9537TIP3   OH228574   6.123   0.739   1.717 -0.0515  0.0739 -0.5185
 9537TIP3    H128575   6.141   0.797   1.644  0.1874  0.8845  0.1626
 9537TIP3    H228576   6.169   0.779   1.791  0.2006 -1.0385 -0.0537
 9538TIP3   OH228577   5.128   5.892   0.539 -0.3765  0.3835  0.0767
 9538TIP3    H128578   5.209   5.930   0.572  1.4638 -2.4586 -0.7204
 9538TIP3    H228579   5.095   5.956   0.476  2.0313  1.1098 -0.5616
 9539TIP3   OH228580   5.135   3.504   5.556 -0.7458  0.1751 -0.0272
 9539TIP3    H128581   5.131   3.439   5.486  0.6643  1.5624 -1.4911
 9539TIP3    H228582   5.095   3.583   5.519  1.2374  1.3503  0.1516
 9540TIP3   OH228583   3.256   4.005   1.294 -0.4030 -0.1380 -0.3961
 9540TIP3    H128584   3.341   3.961   1.294 -0.7617 -0.8514 -0.3156
 9540TIP3    H228585   3.221   3.989   1.206 -0.4131  0.2322 -0.4594
 9541TIP3   OH228586   5.333   1.253   2.240  0.7948  0.2829 -0.8591
 9541TIP3    H128587   5.279   1.200   2.298  4.3792 -1.0562  1.6800
 9541TIP3    H228588   5.320   1.343   2.272 -1.1548  0.2726 -1.5067
 9542TIP3   OH228589   3.558   6.644   0.742  0.2229  0.5033  0.3264
 9542TIP3    H128590   3.559   6.556   0.705  2.4261  1.0967 -1.2653
 9542TIP3    H228591   3.467   6.671   0.738 -0.2855 -1.1998 -0.4519
 9543TIP3   OH228592   4.662   2.167   1.795 -0.3354 -0.1105  0.1213
 9543TIP3    H128593   4.647   2.073   1.803  1.8962 -0.4852  0.6133
 9543TIP3    H228594   4.752   2.180   1.825  0.1361  1.9037 -1.8907
 9544TIP3   OH228595   5.844   2.011   2.265 -0.1899  0.0342  1.0890
 9544TIP3    H128596   5.932   1.973   2.253  1.3762  3.2652  1.3462
 9544TIP3    H228597   5.841   2.032   2.358 -1.0157  0.4971  0.9582
 9545TIP3   OH228598   1.897   6.652   1.436  1.0408 -0.0711  0.4537
 9545TIP3    H128599   1.862   6.681   1.351  0.6317 -1.2818  0.1865
 9545TIP3    H228600   1.981   6.610   1.414  0.9816 -0.2957  0.6469
 9546TIP3   OH228601   4.163   3.422   2.359 -0.3942  0.1463 -0.1963
 9546TIP3    H128602   4.146   3.504   2.312 -3.2634  2.6016  4.3434
 9546TIP3    H228603   4.255   3.429   2.386  0.3563  0.1566 -2.4850
 9547TIP3   OH228604   4.472   4.380   0.155  0.8202  0.1697 -0.4159
 9547TIP3    H128605   4.398   4.338   0.199  1.1848 -0.4968 -0.4274
 9547TIP3    H228606   4.463   4.473   0.176 -0.0538  0.1070 -0.4697
 9548TIP3   OH228607   4.461   0.800   5.094  0.1206 -0.0217 -0.2815
 9548TIP3    H128608   4.404   0.814   5.018 -0.8347 -0.6892  0.2948
 9548TIP3    H228609   4.539   0.758   5.058 -0.8850 -1.5736 -0.7325
 9549TIP3   OH228610   0.350   2.575   2.366 -0.5881 -0.7546 -0.7196
 9549TIP3    H128611   0.429   2.542   2.324 -1.5987 -0.6760 -2.8069
 9549TIP3    H228612   0.372   2.580   2.459  2.1349  0.0551 -1.3175
 9550TIP3   OH228613   2.293   3.138   4.787 -0.5167 -0.0353  0.3742
 9550TIP3    H128614   2.274   3.194   4.863  0.0162 -0.5491  0.8993
 9550TIP3    H228615   2.213   3.141   4.735 -1.5477 -1.0553  1.8189
 9551TIP3   OH228616   0.752   2.934   2.463 -0.3969  0.0747 -0.4447
 9551TIP3    H128617   0.685   2.998   2.442  0.2157  0.4948 -1.2081
 9551TIP3    H228618   0.801   2.972   2.536 -0.9143 -0.1782  0.0329
 9552TIP3   OH228619   1.297   4.615   4.257  0.0999  0.2155 -0.2094
 9552TIP3    H128620   1.354   4.688   4.282 -1.9053  2.4611 -1.7953
 9552TIP3    H228621   1.353   4.538   4.265  2.6332  1.9944  0.5795
 9553TIP3   OH228622   2.942   4.925   1.686 -0.0575 -0.1783  0.3070
 9553TIP3    H128623   2.968   5.017   1.696  0.4077 -0.3122  0.3466
 9553TIP3    H228624   3.009   4.876   1.733  0.2087 -0.5957 -0.4896
 9554TIP3   OH228625   6.517   3.109   1.860 -0.2065 -0.0836  0.5334
 9554TIP3    H128626   6.477   3.182   1.813  1.2687  1.6115  1.7641
 9554TIP3    H228627   6.551   3.148   1.941 -0.0808 -2.3068  1.6441
 9555TIP3   OH228628   2.974   5.416   5.826  0.2952 -0.1376 -0.1388
 9555TIP3    H128629   3.055   5.387   5.785 -0.2887 -1.5569 -0.3421
 9555TIP3    H228630   2.990   5.411   5.920  0.2688 -0.9443 -0.1766
 9556TIP3   OH228631   4.987   5.710   5.347  0.2569  0.1701 -0.1450
 9556TIP3    H128632   4.925   5.637   5.336  3.0166 -2.5056  0.7660
 9556TIP3    H228633   5.040   5.708   5.267  0.1051  1.4947 -0.2956
 9557TIP3   OH228634   5.945   4.024   0.500  0.0209 -0.6286  0.0994
 9557TIP3    H128635   6.001   4.051   0.427 -0.6923 -0.5137 -0.4179
 9557TIP3    H228636   5.860   4.065   0.481 -0.4216 -1.3362  0.5221
 9558TIP3   OH228637   6.389   4.412   2.939 -0.1765 -0.1222  0.5534
 9558TIP3    H128638   6.306   4.364   2.936 -0.2605  0.0586 -0.6772
 9558TIP3    H228639   6.447   4.356   2.991 -0.0472 -1.9943 -1.4475
 9559TIP3   OH228640   2.202   1.395   1.678  0.1765  0.2351 -0.3239
 9559TIP3    H128641   2.167   1.309   1.654 -1.9988  1.4015 -1.6151
 9559TIP3    H228642   2.293   1.394   1.647  0.1059 -1.4703 -0.5514
 9560TIP3   OH228643   4.610   3.350   1.587 -0.5290 -0.1251 -0.4847
 9560TIP3    H128644   4.686   3.381   1.538 -1.0024  0.3293 -0.9515
 9560TIP3    H228645   4.595   3.417   1.654  0.2778 -0.8760  0.4813
 9561TIP3   OH228646   3.074   0.785   3.535 -0.4327 -0.1823  0.3030
 9561TIP3    H128647   3.164   0.815   3.545 -0.6465  0.0305  1.8520
 9561TIP3    H228648   3.076   0.731   3.456  0.5737  1.5095 -0.9031
 9562TIP3   OH228649   4.813   6.508   2.980 -0.1728  0.6693  0.3564
 9562TIP3    H128650   4.794   6.501   3.073 -1.9034 -0.6524 -0.0184
 9562TIP3    H228651   4.756   6.578   2.949 -2.0148 -0.9633 -0.1764
 9563TIP3   OH228652   5.140   2.837   1.903 -0.3379  0.4589 -0.3553
 9563TIP3    H128653   5.232   2.810   1.910 -0.1981  1.0100  0.0077
 9563TIP3    H228654   5.140   2.906   1.836 -0.4215  0.7163 -0.0950
 9564TIP3   OH228655   6.138   3.139   4.169  0.1166  0.0051  0.1342
 9564TIP3    H128656   6.182   3.202   4.112 -0.4422 -0.9116 -1.3688
 9564TIP3    H228657   6.170   3.160   4.257  2.1660  0.4878 -0.6750
 9565TIP3   OH228658   2.086   2.741   5.611 -0.1250 -0.4079 -0.4128
 9565TIP3    H128659   2.179   2.726   5.628 -0.1349  0.4584  0.4673
 9565TIP3    H228660   2.074   2.714   5.519  1.0492 -0.2510 -0.6262
 9566TIP3   OH228661   6.193   1.994   3.004  0.5522 -0.1390  0.1482
 9566TIP3    H128662   6.112   2.023   2.962 -0.9070 -3.4278  0.4113
 9566TIP3    H228663   6.186   2.026   3.094 -0.3171 -0.1127  0.0790
 9567TIP3   OH228664   0.376   0.137   0.585 -0.2572 -0.1014 -0.1028
 9567TIP3    H128665   0.400   0.081   0.660  0.2303  0.0405 -0.1481
 9567TIP3    H228666   0.360   0.223   0.624 -0.5212 -0.1528 -0.0964
 9568TIP3   OH228667   6.290   2.896   5.145  0.1111 -0.4068 -0.0302
 9568TIP3    H128668   6.319   2.863   5.060 -0.2067  1.5247 -0.9451
 9568TIP3    H228669   6.202   2.859   5.156 -0.0274 -0.3202 -0.7760
 9569TIP3   OH228670   2.770   1.812   0.303 -0.0662 -0.2928  0.1588
 9569TIP3    H128671   2.715   1.752   0.353  0.1280 -0.6012 -0.0002
 9569TIP3    H228672   2.768   1.778   0.213  1.6168 -1.2019  0.4295
 9570TIP3   OH228673   2.532   2.662   2.950 -0.1429  0.5425 -0.1924
 9570TIP3    H128674   2.460   2.605   2.977  0.1764  0.6110  0.8430
 9570TIP3    H228675   2.502   2.751   2.970 -0.8708  0.8407 -2.3213
 9571TIP3   OH228676   2.170   0.145   4.447  0.2241  0.1943 -0.0867
 9571TIP3    H128677   2.232   0.216   4.429 -0.3354  0.8305  0.4325
 9571TIP3    H228678   2.111   0.145   4.371  1.3129 -0.9464 -0.9761
 9572TIP3   OH228679   5.249   4.024   3.201  0.9291 -0.0368 -0.4784
 9572TIP3    H128680   5.176   3.989   3.149 -1.1925  0.1900  2.1265
 9572TIP3    H228681   5.296   3.947   3.232  0.8941 -0.2547 -0.9613
 9573TIP3   OH228682   0.477   4.033   3.244  1.3544  0.0466  0.0140
 9573TIP3    H128683   0.421   4.063   3.173  0.2278  1.1348  1.2947
 9573TIP3    H228684   0.418   3.984   3.302  2.0275  0.0324  0.6974
 9574TIP3   OH228685   6.104   4.345   3.034  0.1975  0.5145 -0.5510
 9574TIP3    H128686   6.040   4.345   3.105 -0.3945 -0.5858 -1.0596
 9574TIP3    H228687   6.180   4.391   3.071 -0.9362  2.0392 -0.0219
 9575TIP3   OH228688   5.878   3.498   2.015 -0.6348  0.0968  0.1108
 9575TIP3    H128689   5.931   3.460   2.085 -1.1932  0.0193  0.5006
 9575TIP3    H228690   5.873   3.591   2.036 -0.3573  0.1640 -0.1213
 9576TIP3   OH228691   1.232   4.569   1.870  0.6261  0.2020 -0.5744
 9576TIP3    H128692   1.160   4.578   1.932  1.4697  1.6837  0.2441
 9576TIP3    H228693   1.237   4.654   1.826  2.7414  0.6800  0.4282
 9577TIP3   OH228694   6.392   6.714   0.835 -0.3709  0.2903 -0.6136
 9577TIP3    H128695   6.429   6.724   0.747  1.6331  0.2070  0.1576
 9577TIP3    H228696   6.304   6.681   0.821 -0.4740  1.2757 -2.6158
 9578TIP3   OH228697   5.447   1.429   0.345 -0.1416 -0.0090  0.6361
 9578TIP3    H128698   5.442   1.509   0.292  1.7043 -0.4728 -0.3744
 9578TIP3    H228699   5.500   1.454   0.420 -1.8564  0.3713  1.7584
 9579TIP3   OH228700   6.421   3.937   4.407 -0.3198 -0.1627  0.0829
 9579TIP3    H128701   6.375   3.900   4.333  0.5642  0.1151 -0.6222
 9579TIP3    H228702   6.389   3.888   4.483 -1.8319  0.0953 -0.3664
 9580TIP3   OH228703   0.240   1.167   2.565  0.2044  0.5384 -1.0587
 9580TIP3    H128704   0.189   1.089   2.545 -0.6881  0.7085  0.4239
 9580TIP3    H228705   0.325   1.152   2.523  1.4667 -2.9727  2.2373
 9581TIP3   OH228706   2.917   2.014   0.074  0.1107 -0.0973 -0.2053
 9581TIP3    H128707   2.870   2.063   0.007  0.1414  0.3992  0.1343
 9581TIP3    H228708   2.865   2.027   0.154 -0.1817 -1.0588 -0.2225
 9582TIP3   OH228709   0.221   1.156   3.328 -0.0252 -0.0487 -0.2430
 9582TIP3    H128710   0.151   1.220   3.313  0.1725 -0.1401 -1.6366
 9582TIP3    H228711   0.294   1.187   3.273  0.6519 -0.5699  0.3400
 9583TIP3   OH228712   1.050   2.146   5.581 -0.5369  0.1606  0.2870
 9583TIP3    H128713   1.068   2.240   5.583 -2.3527  0.5642 -0.2509
 9583TIP3    H228714   1.037   2.126   5.488  0.3296 -0.7439  0.3444
 9584TIP3   OH228715   4.855   1.030   4.388  0.4738  0.1574 -0.2083
 9584TIP3    H128716   4.839   1.091   4.317  1.8931  0.2124 -0.5151
 9584TIP3    H228717   4.845   1.083   4.468 -1.0653  0.1064 -0.3293
 9585TIP3   OH228718   5.884   1.797   2.536 -0.1211 -0.1246 -0.0910
 9585TIP3    H128719   5.851   1.780   2.448 -2.3735 -0.8561  0.8222
 9585TIP3    H228720   5.979   1.788   2.528 -0.1382  1.1459 -2.6940
 9586TIP3   OH228721   4.187   1.410   2.389 -0.4352 -0.0753 -0.5984
 9586TIP3    H128722   4.142   1.407   2.474 -0.3569  0.2837 -0.5421
 9586TIP3    H228723   4.116   1.424   2.326 -0.2458  2.6625 -0.3220
 9587TIP3   OH228724   6.077   0.902   1.501 -0.2955  0.4842 -0.0801
 9587TIP3    H128725   5.999   0.949   1.531 -0.2191  3.0402 -3.3172
 9587TIP3    H228726   6.149   0.945   1.547 -0.5663  0.3020  0.5226
 9588TIP3   OH228727   4.312   6.426   1.037  0.3010 -0.1791  0.4018
 9588TIP3    H128728   4.350   6.511   1.056 -1.0671  0.5076  0.1479
 9588TIP3    H228729   4.229   6.445   0.994  0.9291 -1.6492 -1.6496
 9589TIP3   OH228730   4.085   0.198   3.475 -0.5146 -0.2857 -0.0544
 9589TIP3    H128731   4.081   0.111   3.435  0.0294  0.2692 -1.3674
 9589TIP3    H228732   4.141   0.186   3.552 -0.2747 -1.0672 -0.3394
 9590TIP3   OH228733   6.319   1.856   0.899  0.0629 -0.1032 -0.0066
 9590TIP3    H128734   6.282   1.942   0.878 -0.2085  0.4267  2.3656
 9590TIP3    H228735   6.383   1.874   0.968  2.6313 -1.4064 -1.8731
 9591TIP3   OH228736   1.201   2.059   5.275  0.7157 -0.5061  0.0486
 9591TIP3    H128737   1.181   1.994   5.207  2.3016 -0.0333 -0.9183
 9591TIP3    H228738   1.292   2.042   5.299 -0.0626 -1.3098  2.8462
 9592TIP3   OH228739   6.551   1.738   0.273 -0.0913 -0.5539 -0.3134
 9592TIP3    H128740   6.586   1.660   0.317 -0.8415 -0.9700 -0.4208
 9592TIP3    H228741   6.539   1.710   0.182 -2.1116 -0.9435  0.0240
 9593TIP3   OH228742   3.243   5.536   2.645  0.0700  0.5618  0.7466
 9593TIP3    H128743   3.253   5.458   2.699  1.0903  1.1359  1.4341
 9593TIP3    H228744   3.325   5.584   2.657 -0.6056  1.8364  0.5168
 9594TIP3   OH228745   6.452   2.199   3.973  0.8106 -0.1554 -0.0025
 9594TIP3    H128746   6.439   2.212   3.879  0.5051 -0.6024 -0.0266
 9594TIP3    H228747   6.418   2.111   3.990 -0.3546  0.4129  0.7563
 9595TIP3   OH228748   2.385   5.693   0.357 -0.5836  0.1847 -0.0233
 9595TIP3    H128749   2.307   5.678   0.410 -0.4073 -0.8013 -0.0219
 9595TIP3    H228750   2.353   5.740   0.280 -1.4388 -1.4220 -0.7005
 9596TIP3   OH228751   0.045   4.745   2.885 -0.5367  0.7170 -0.5034
 9596TIP3    H128752  -0.025   4.743   2.950  0.5322  1.2817  0.7153
 9596TIP3    H228753   0.010   4.797   2.813 -2.2597 -1.0824 -1.0506
 9597TIP3   OH228754   3.476   2.005   2.397  0.2094  0.2330 -0.0766
 9597TIP3    H128755   3.480   1.951   2.476 -1.0530 -0.5362 -0.5026
 9597TIP3    H228756   3.558   2.054   2.397  0.7367 -0.6007  1.1047
 9598TIP3   OH228757   6.029   0.862   0.930 -0.1181 -0.1635 -0.1680
 9598TIP3    H128758   6.033   0.952   0.963  1.0709 -0.2977  0.0919
 9598TIP3    H228759   5.982   0.870   0.847 -0.6182  0.5974  0.1738
 9599TIP3   OH228760   5.675   5.920   1.442 -0.0785 -0.1543 -0.2916
 9599TIP3    H128761   5.699   6.012   1.457  0.7231 -0.3032 -0.5947
 9599TIP3    H228762   5.714   5.873   1.515 -0.8734 -0.2057  0.1060
 9600TIP3   OH228763   5.062   0.752   0.144  1.1888  0.0998 -0.0704
 9600TIP3    H128764   5.094   0.663   0.153 -0.7114 -0.5683  0.5537
 9600TIP3    H228765   4.986   0.756   0.202  1.4124  2.2287  0.1687
 9601TIP3   OH228766   5.484   3.098   2.976 -0.2588 -0.6001  0.1996
 9601TIP3    H128767   5.533   3.092   2.893  1.5984 -2.3122  1.3218
 9601TIP3    H228768   5.423   3.023   2.973 -1.5749  0.4496 -0.3877
 9602TIP3   OH228769   2.073   2.146   3.610 -0.4327  0.3418 -0.0523
 9602TIP3    H128770   2.097   2.163   3.701 -0.1889 -1.2780  0.2219
 9602TIP3    H228771   2.002   2.082   3.615  0.6602 -1.0025 -0.9959
 9603TIP3   OH228772   6.786   4.304   1.684 -0.1657  1.0040  0.0193
 9603TIP3    H128773   6.730   4.304   1.762 -3.0821  1.8184 -1.8996
 9603TIP3    H228774   6.762   4.224   1.637  2.5909 -0.2234  0.5287
 9604TIP3   OH228775   2.134   5.159   5.281 -0.2163  0.4627 -0.4997
 9604TIP3    H128776   2.110   5.246   5.311  0.4311 -0.3333  2.7314
 9604TIP3    H228777   2.212   5.137   5.332 -2.4508 -3.4104  1.7579
 9605TIP3   OH228778   1.214   2.968   2.836 -0.6918 -0.1974  0.0153
 9605TIP3    H128779   1.292   2.939   2.885 -0.5026 -0.9033 -0.6860
 9605TIP3    H228780   1.222   3.063   2.834  0.7974 -0.2994 -1.0563
 9606TIP3   OH228781   2.918   4.842   4.204  1.1949  0.0909  0.3168
 9606TIP3    H128782   2.881   4.766   4.158 -0.3895  0.5973  0.6870
 9606TIP3    H228783   2.859   4.856   4.278  2.5044  0.5991  1.2958
 9607TIP3   OH228784   5.725   5.606   5.244 -0.2542  0.1392  0.6596
 9607TIP3    H128785   5.681   5.689   5.265 -0.7229  0.1327 -0.2770
 9607TIP3    H228786   5.757   5.617   5.155  0.6894 -0.2745  0.9344
 9608TIP3   OH228787   6.052   5.828   0.600 -0.3106 -0.1293  0.0452
 9608TIP3    H128788   6.124   5.844   0.661  1.7930  0.9940 -2.5419
 9608TIP3    H228789   5.998   5.762   0.644  1.6012 -0.1336  2.6346
 9609TIP3   OH228790   1.461   3.436   2.507 -0.0084 -0.6980  0.3388
 9609TIP3    H128791   1.538   3.394   2.547  0.7179 -0.1605 -0.4497
 9609TIP3    H228792   1.492   3.464   2.420  0.0080  2.7840  1.3318
 9610TIP3   OH228793   5.597   3.081   5.312  0.0757 -0.1310  0.3034
 9610TIP3    H128794   5.640   3.072   5.398  0.4924 -1.1647  0.0020
 9610TIP3    H228795   5.604   3.174   5.291  0.1519  0.0997  1.2959
 9611TIP3   OH228796   1.935   5.917   2.938  0.0426  0.4243  0.3175
 9611TIP3    H128797   1.961   5.876   2.856 -0.3652  0.1198  0.3375
 9611TIP3    H228798   1.839   5.922   2.933 -0.1028 -0.7774  1.3070
 9612TIP3   OH228799   0.658   0.726   0.312  1.3741 -0.5815 -0.1832
 9612TIP3    H128800   0.592   0.661   0.336  1.5394 -0.2349  1.3370
 9612TIP3    H228801   0.638   0.748   0.221 -1.8947  0.9563  0.7180
 9613TIP3   OH228802   2.567   2.029   4.083 -0.0050 -0.3414 -0.0680
 9613TIP3    H128803   2.495   2.065   4.030  0.0959 -1.1031 -0.7418
 9613TIP3    H228804   2.642   2.031   4.025  0.7346  1.1685  0.8825
 9614TIP3   OH228805   4.605   4.618   1.496 -0.1312  0.3900 -0.3069
 9614TIP3    H128806   4.697   4.600   1.477 -0.5764 -0.4718 -1.8458
 9614TIP3    H228807   4.599   4.713   1.501  0.9374  0.4298  0.3488
 9615TIP3   OH228808   2.823   1.855   1.598 -0.4727  0.1223 -0.2736
 9615TIP3    H128809   2.805   1.814   1.514  2.0631 -3.2349  0.5917
 9615TIP3    H228810   2.800   1.788   1.663  1.0960  1.1555  1.4533
 9616TIP3   OH228811   1.406   4.034   0.124 -0.0406 -0.0844 -0.7279
 9616TIP3    H128812   1.417   4.101   0.191 -0.1218  0.6568 -1.4392
 9616TIP3    H228813   1.324   4.057   0.080 -0.5329 -1.1651 -0.4105
 9617TIP3   OH228814   0.694   3.483   5.286  0.1281 -0.1182  0.3454
 9617TIP3    H128815   0.604   3.500   5.314 -0.1317 -2.5079  1.1754
 9617TIP3    H228816   0.719   3.403   5.332  2.3973  0.0021 -0.5333
 9618TIP3   OH228817   0.626   1.704   0.602 -0.4525 -0.2627  0.1256
 9618TIP3    H128818   0.535   1.698   0.575  0.1893 -0.3363 -2.1712
 9618TIP3    H228819   0.633   1.791   0.641 -0.7561  1.2552 -2.9461
 9619TIP3   OH228820   7.194   1.750   2.211  0.4130 -0.3323  0.1551
 9619TIP3    H128821   7.220   1.806   2.285 -1.0534 -0.1145  0.5352
 9619TIP3    H228822   7.180   1.663   2.251 -0.9327 -0.0854  0.2711
 9620TIP3   OH228823   3.745   6.194   2.236 -0.2252  0.8290 -0.0431
 9620TIP3    H128824   3.715   6.110   2.270 -1.3987  2.5334  3.7045
 9620TIP3    H228825   3.804   6.228   2.304  2.4896  1.9161 -2.7175
 9621TIP3   OH228826   1.386   0.361   4.349 -0.2105 -0.1235  0.1844
 9621TIP3    H128827   1.411   0.406   4.429 -0.5539  1.2201 -0.4449
 9621TIP3    H228828   1.367   0.431   4.287  3.3750 -1.0241 -2.2099
 9622TIP3   OH228829   3.569   3.830   2.593 -0.1376  0.5921  0.5531
 9622TIP3    H128830   3.651   3.876   2.579  0.1484 -0.2085 -0.6358
 9622TIP3    H228831   3.524   3.835   2.508 -0.9409  0.3156  0.9497
 9623TIP3   OH228832   0.759   3.629   4.864  0.1346  0.2960  0.4152
 9623TIP3    H128833   0.776   3.539   4.892 -1.1068 -0.0340  0.1588
 9623TIP3    H228834   0.846   3.670   4.860  0.7437 -0.9723  0.2429
 9624TIP3   OH228835   2.974   3.807   5.153  0.0174 -0.3478 -0.3786
 9624TIP3    H128836   2.886   3.830   5.122  0.6745  2.9727 -0.1315
 9624TIP3    H228837   3.033   3.846   5.088  1.3216  0.5325  1.2616
 9625TIP3   OH228838   6.947   2.351   2.805  0.2071 -0.1139 -0.1668
 9625TIP3    H128839   6.878   2.372   2.868  1.0031  0.2879  0.5886
 9625TIP3    H228840   7.017   2.313   2.858 -0.2745 -2.6713 -1.1823
 9626TIP3   OH228841   6.811   4.024   2.348  0.6010 -0.0795  0.4290
 9626TIP3    H128842   6.882   4.082   2.320  2.0113 -0.5493  2.7019
 9626TIP3    H228843   6.749   4.081   2.394  0.1449  0.1371 -0.4415
 9627TIP3   OH228844   2.474   3.334   0.318  1.0274  0.2810 -0.2556
 9627TIP3    H128845   2.456   3.242   0.297  0.8004  0.1624  0.4042
 9627TIP3    H228846   2.504   3.373   0.236 -1.6447  0.3273 -1.3250
 9628TIP3   OH228847   4.965   6.395   5.014 -0.1983  0.4851 -0.0563
 9628TIP3    H128848   4.981   6.489   5.005  0.6343  0.2427 -1.2748
 9628TIP3    H228849   5.037   6.354   4.967  0.1582 -0.8050  1.5121
 9629TIP3   OH228850   5.442   0.157   3.851 -0.2228 -0.3337 -0.2380
 9629TIP3    H128851   5.466   0.173   3.759 -1.0735  0.0869 -0.4004
 9629TIP3    H228852   5.444   0.243   3.891  0.0899 -0.5121  0.1343
 9630TIP3   OH228853   6.646   3.307   0.091  0.1427 -0.4996  0.2449
 9630TIP3    H128854   6.632   3.349   0.176  1.0217  0.8650 -0.2578
 9630TIP3    H228855   6.655   3.380   0.029 -0.5517 -1.4654 -1.0514
 9631TIP3   OH228856   0.625   1.225   2.240 -0.1362 -0.1179  0.5601
 9631TIP3    H128857   0.631   1.243   2.146  2.0997 -0.3590  0.5821
 9631TIP3    H228858   0.584   1.303   2.277 -1.5632 -0.2588 -0.6578
 9632TIP3   OH228859   5.471   0.729   2.305  0.6878 -0.6124 -0.8739
 9632TIP3    H128860   5.385   0.723   2.264 -0.3102  1.2678  0.8146
 9632TIP3    H228861   5.506   0.814   2.277  1.0989 -0.4541  0.0829
 9633TIP3   OH228862   6.307   6.413   5.198 -0.1286  0.4082 -0.4268
 9633TIP3    H128863   6.283   6.422   5.290 -1.5385 -0.6772 -0.6588
 9633TIP3    H228864   6.317   6.319   5.185  1.9239  0.6402 -0.9691
 9634TIP3   OH228865   4.605   2.331   3.315  0.2137 -0.3449 -0.5064
 9634TIP3    H128866   4.636   2.387   3.245  0.9764  0.0678  0.1404
 9634TIP3    H228867   4.680   2.275   3.336 -0.1475 -0.7667 -0.3142
 9635TIP3   OH228868   4.343   4.016   5.333  0.0956  0.4158 -0.5898
 9635TIP3    H128869   4.280   4.074   5.378 -0.0837 -0.2569  0.0406
 9635TIP3    H228870   4.290   3.944   5.300  0.6797 -0.8848  1.1493
 9636TIP3   OH228871   2.152   5.495   2.336 -0.0529  0.1309  0.1224
 9636TIP3    H128872   2.132   5.453   2.419  0.8366 -0.1876  0.1925
 9636TIP3    H228873   2.108   5.580   2.339 -0.9919 -0.3642  0.4219
 9637TIP3   OH228874   2.928   5.912   5.113 -0.5891 -0.1931  0.6236
 9637TIP3    H128875   2.973   5.958   5.041 -2.4287 -0.7973 -0.9869
 9637TIP3    H228876   2.909   5.981   5.176 -2.4375  1.2072 -1.3062
 9638TIP3   OH228877   3.825   5.107   4.744 -0.2505  0.1451 -0.0331
 9638TIP3    H128878   3.808   5.024   4.787 -0.6730 -0.0478 -0.5606
 9638TIP3    H228879   3.739   5.136   4.712  0.1879 -0.1968 -1.5956
 9639TIP3   OH228880   7.130   5.520   2.115 -0.0732 -0.1705 -0.1375
 9639TIP3    H128881   7.151   5.600   2.067 -2.3363  1.6282  1.5856
 9639TIP3    H228882   7.121   5.549   2.206 -2.1132 -2.1089  0.3893
 9640TIP3   OH228883   1.000   3.713   3.913 -0.1095 -0.2035  0.3108
 9640TIP3    H128884   1.095   3.723   3.905 -0.3812  0.9051 -3.6490
 9640TIP3    H228885   0.965   3.801   3.901 -1.7121 -0.6305  1.4236
 9641TIP3   OH228886   6.532   4.805   5.442  0.2666  0.2217 -0.3226
 9641TIP3    H128887   6.442   4.815   5.413  0.1327 -0.1844 -0.0561
 9641TIP3    H228888   6.529   4.734   5.507  0.8812 -0.2679 -0.8213
 9642TIP3   OH228889   0.200   5.129   1.417 -0.4740 -0.1067 -0.4104
 9642TIP3    H128890   0.232   5.215   1.445  0.6388 -0.6378 -0.0028
 9642TIP3    H228891   0.114   5.147   1.379 -0.4213  1.1349  0.0095
 9643TIP3   OH228892   2.150   5.611   2.658  0.2867 -0.3086  0.3730
 9643TIP3    H128893   2.144   5.570   2.744  1.1354  1.5203  1.3555
 9643TIP3    H228894   2.242   5.639   2.651 -0.7644  3.9067  1.0207
 9644TIP3   OH228895   7.017   4.903   0.319 -0.6543 -0.4287  0.2253
 9644TIP3    H128896   7.080   4.843   0.359  1.7137  0.7333 -1.5572
 9644TIP3    H228897   7.014   4.978   0.378 -1.0286 -0.8038  0.7037
 9645TIP3   OH228898   3.207   2.982   1.114 -0.3217 -0.3329 -0.2419
 9645TIP3    H128899   3.124   3.030   1.110 -0.6237 -0.8980 -1.2877
 9645TIP3    H228900   3.196   2.921   1.187 -1.6704 -1.8358 -1.6073
 9646TIP3   OH228901   5.706   0.582   1.005  0.4077  0.4064 -0.0141
 9646TIP3    H128902   5.741   0.654   1.058 -0.4627  0.3190  0.7113
 9646TIP3    H228903   5.725   0.607   0.915  0.5555  1.3084  0.2537
 9647TIP3   OH228904   6.178   1.341   3.999  0.8762  0.1673 -0.2387
 9647TIP3    H128905   6.178   1.437   3.992  1.7808  0.1438 -0.7548
 9647TIP3    H228906   6.220   1.312   3.918  1.3227 -0.6318  0.2668
 9648TIP3   OH228907   2.173   3.926   4.987 -0.3534 -0.6363 -0.3372
 9648TIP3    H128908   2.156   3.954   4.897 -0.5574  1.3372  0.2624
 9648TIP3    H228909   2.088   3.893   5.018 -1.1835  1.7580  0.1275
 9649TIP3   OH228910   1.094   4.411   3.714  0.1734 -0.2736  0.3574
 9649TIP3    H128911   1.088   4.487   3.655  2.2190  1.1270  1.8069
 9649TIP3    H228912   1.141   4.444   3.790 -0.7372 -2.5085  1.9873
 9650TIP3   OH228913   7.173   4.490   4.323  0.1746  0.1988  0.7148
 9650TIP3    H128914   7.122   4.536   4.389 -1.1472 -0.2899  0.0656
 9650TIP3    H228915   7.115   4.484   4.247  0.8119 -1.3264  0.3156
 9651TIP3   OH228916   5.315   6.256   5.552 -0.3473 -0.3581  0.1859
 9651TIP3    H128917   5.318   6.351   5.563 -0.2232 -0.5114  1.8063
 9651TIP3    H228918   5.397   6.234   5.509 -0.1230  0.2165  0.3080
 9652TIP3   OH228919   3.444   4.491   5.479  0.2263  0.4784 -0.2607
 9652TIP3    H128920   3.495   4.532   5.549 -0.4783 -1.0061  1.1944
 9652TIP3    H228921   3.458   4.397   5.492 -1.9167  0.0787 -0.5418
 9653TIP3   OH228922   4.956   1.317   2.418  0.1274 -0.7460 -0.6126
 9653TIP3    H128923   4.954   1.412   2.420  0.2977 -0.7394  0.8118
 9653TIP3    H228924   4.869   1.290   2.446  0.0092 -1.0149 -1.2229
 9654TIP3   OH228925   1.461   0.507   1.673 -0.0671 -0.5092 -0.1336
 9654TIP3    H128926   1.535   0.447   1.676 -0.0227 -0.3939  1.9036
 9654TIP3    H228927   1.385   0.453   1.691 -0.6965 -0.7932 -3.0393
 9655TIP3   OH228928   6.659   4.160   4.575 -0.3473  0.2471  0.3991
 9655TIP3    H128929   6.575   4.137   4.614 -0.2381  0.8493  1.0115
 9655TIP3    H228930   6.695   4.227   4.633 -0.0140  0.9009 -0.5448
 9656TIP3   OH228931   5.539   0.229   0.152 -0.3629 -0.4857 -0.1839
 9656TIP3    H128932   5.548   0.151   0.097 -0.1526 -1.1312  0.7524
 9656TIP3    H228933   5.459   0.270   0.121 -0.0944 -0.6661 -1.1776
 9657TIP3   OH228934   2.951   3.027   1.114  0.4554  0.3480 -0.2927
 9657TIP3    H128935   2.931   2.989   1.200  0.5330  0.9955  0.0160
 9657TIP3    H228936   2.874   3.006   1.061  1.4308 -2.2315 -0.8232
 9658TIP3   OH228937   1.873   6.214   4.049  0.2280 -0.2848 -0.3480
 9658TIP3    H128938   1.814   6.153   4.004  1.0156  0.8480 -3.1712
 9658TIP3    H228939   1.945   6.159   4.079 -0.8065 -1.2377  0.4815
 9659TIP3   OH228940   5.578   5.003   2.053  0.3309  0.3007 -0.2248
 9659TIP3    H128941   5.645   4.936   2.037 -0.8676 -0.6613 -1.4871
 9659TIP3    H228942   5.621   5.085   2.030  0.9971 -0.3388 -1.3707
 9660TIP3   OH228943   2.946   0.280   2.211 -0.3813 -0.1941 -0.2764
 9660TIP3    H128944   2.914   0.251   2.296  3.7732 -0.8392  1.3165
 9660TIP3    H228945   2.973   0.371   2.225  0.5568 -0.3749 -0.7888
 9661TIP3   OH228946   4.544   4.251   3.850  0.3126 -0.0104  0.1195
 9661TIP3    H128947   4.520   4.344   3.859  0.2500  0.0078 -0.2414
 9661TIP3    H228948   4.505   4.224   3.767  0.0960 -0.4374  0.3596
 9662TIP3   OH228949   1.055   4.275   1.878  0.0268  0.3342  0.3170
 9662TIP3    H128950   1.074   4.364   1.907 -0.8423  0.7283 -0.2843
 9662TIP3    H228951   0.989   4.243   1.940 -1.2101  0.8768 -0.6804
 9663TIP3   OH228952   7.000   5.230   3.056 -0.3907  0.2533  0.2516
 9663TIP3    H128953   7.029   5.288   2.986  0.5491 -1.9807 -1.3410
 9663TIP3    H228954   6.915   5.264   3.083  0.0324  2.2030 -0.7304
 9664TIP3   OH228955   6.112   2.264   1.605 -0.4515 -0.1089  0.4505
 9664TIP3    H128956   6.097   2.234   1.695  0.2069  1.3342  1.0762
 9664TIP3    H228957   6.202   2.236   1.586 -1.2722 -2.2613 -0.5751
 9665TIP3   OH228958   2.490   4.570   4.057  0.5391  0.0553  0.1887
 9665TIP3    H128959   2.518   4.573   3.966 -0.8449  2.5080 -0.2629
 9665TIP3    H228960   2.397   4.547   4.054  0.6559 -0.6118  1.0622
 9666TIP3   OH228961   0.561   4.929   0.804  0.1210  0.3004 -0.3279
 9666TIP3    H128962   0.507   4.861   0.844 -0.4531  0.3765 -0.9502
 9666TIP3    H228963   0.575   4.899   0.714 -0.7402  1.3327 -0.8286
 9667TIP3   OH228964   3.535   1.656   1.626 -0.0806  0.1319  0.7165
 9667TIP3    H128965   3.562   1.689   1.712  0.2337 -1.1199  1.1118
 9667TIP3    H228966   3.442   1.638   1.637  0.3395 -1.8246  1.4123
 9668TIP3   OH228967   1.416   0.462   3.872 -0.6699 -0.3982 -0.1909
 9668TIP3    H128968   1.349   0.527   3.893 -0.6884 -1.0036  1.7569
 9668TIP3    H228969   1.391   0.384   3.921  1.4814 -0.6425  0.6247
 9669TIP3   OH228970   4.706   5.750   2.489 -0.9367 -0.0973  0.0104
 9669TIP3    H128971   4.734   5.659   2.480  3.0955  0.9210  0.3971
 9669TIP3    H228972   4.740   5.793   2.410 -2.5390  1.1988 -0.0351
 9670TIP3   OH228973   5.452   4.278   3.377  0.3986 -0.0574 -0.5386
 9670TIP3    H128974   5.422   4.191   3.350  1.5516 -0.4328 -0.6574
 9670TIP3    H228975   5.376   4.334   3.363  0.0020 -0.8174 -1.6220
 9671TIP3   OH228976   0.539   3.857   4.344 -0.5307  0.2279 -0.0772
 9671TIP3    H128977   0.479   3.838   4.416 -0.2551 -0.3956 -0.0017
 9671TIP3    H228978   0.580   3.773   4.325  1.6764  0.9471  1.1146
 9672TIP3   OH228979   7.035   3.334   5.270 -0.1600 -0.5032  0.8572
 9672TIP3    H128980   7.067   3.340   5.360 -0.9996 -2.0435  1.2775
 9672TIP3    H228981   6.943   3.308   5.278 -0.1229 -1.1114 -0.4621
 9673TIP3   OH228982   4.977   2.136   3.982  0.5875 -1.2352  0.1822
 9673TIP3    H128983   5.036   2.170   3.914  0.3649 -0.1389  0.5240
 9673TIP3    H228984   5.034   2.121   4.058  0.9385 -2.9682 -0.3601
 9674TIP3   OH228985   5.206   1.594   2.068  0.2930  0.9765  0.3923
 9674TIP3    H128986   5.187   1.615   1.977 -1.0183 -1.4752  0.0082
 9674TIP3    H228987   5.301   1.587   2.072  0.3740  1.2842 -0.7297
 9675TIP3   OH228988   3.770   5.881   0.931  0.3889 -0.1925  0.0247
 9675TIP3    H128989   3.775   5.830   1.012 -0.9192  1.5939  1.3108
 9675TIP3    H228990   3.838   5.948   0.940  0.3830 -0.1095 -0.4740
 9676TIP3   OH228991   7.092   3.103   2.216 -0.2928  0.2482  0.1762
 9676TIP3    H128992   7.076   3.068   2.304 -0.3685 -1.0047 -0.3299
 9676TIP3    H228993   7.179   3.072   2.193  0.6114  2.2866  0.6016
 9677TIP3   OH228994   4.016   0.034   1.891  0.3169  0.7201 -0.1853
 9677TIP3    H128995   3.956  -0.021   1.841 -0.2510  1.1316  0.0402
 9677TIP3    H228996   4.024   0.115   1.840  1.8320  0.1314 -0.9689
 9678TIP3   OH228997   3.891   4.962   2.878 -0.2236 -1.0718  0.1955
 9678TIP3    H128998   3.933   4.903   2.815 -1.1051 -3.6318  1.8602
 9678TIP3    H228999   3.803   4.976   2.843  1.0703  2.6195 -2.2097
 9679TIP3   OH229000   1.179   0.744   1.765  0.4658  0.0641  0.2491
 9679TIP3    H129001   1.154   0.778   1.851 -0.0635 -1.2908  0.6502
 9679TIP3    H229002   1.274   0.740   1.767  0.4164 -1.1137  1.2440
 9680TIP3   OH229003   5.101   1.418   2.824 -0.3341 -0.6008 -0.2271
 9680TIP3    H129004   5.112   1.442   2.732 -0.3393 -1.3000 -0.4206
 9680TIP3    H229005   5.106   1.500   2.871 -1.2387 -0.1160 -0.9372
 9681TIP3   OH229006   2.377   6.548   0.518 -0.2481 -0.9142  0.0579
 9681TIP3    H129007   2.435   6.473   0.532 -0.1957 -0.9633 -0.4052
 9681TIP3    H229008   2.289   6.509   0.511 -0.3569 -0.8323  0.8486
 9682TIP3   OH229009   2.987   0.355   5.146 -0.1556 -0.2562 -0.1476
 9682TIP3    H129010   3.057   0.349   5.080  0.5973  0.7372  0.5351
 9682TIP3    H229011   2.908   0.328   5.099  0.7051 -1.5900 -0.8837
 9683TIP3   OH229012   4.682   0.623   1.071  0.1804 -0.1976  0.2996
 9683TIP3    H129013   4.639   0.542   1.097  0.5836 -0.4264  0.2623
 9683TIP3    H229014   4.612   0.678   1.036 -0.0948 -0.5225  0.3392
 9684TIP3   OH229015   1.832   6.606   3.059 -0.3260 -0.2153  0.4744
 9684TIP3    H129016   1.815   6.518   3.093 -0.7510 -0.0379  0.7249
 9684TIP3    H229017   1.820   6.664   3.134  3.4267 -0.2270  1.2800
 9685TIP3   OH229018   5.235   0.187   4.463 -0.2016 -0.1583  0.2678
 9685TIP3    H129019   5.307   0.214   4.519 -0.8039  1.1849  0.4424
 9685TIP3    H229020   5.198   0.269   4.430 -1.5316 -0.8218  0.0387
 9686TIP3   OH229021   4.452   6.548   3.706 -0.2967  0.2420 -0.1014
 9686TIP3    H129022   4.469   6.621   3.647  0.3884  0.5091  0.4075
 9686TIP3    H229023   4.358   6.533   3.700 -0.3381  0.7082 -0.7330
 9687TIP3   OH229024   5.587   0.195   2.863  0.1271  0.0101 -0.1554
 9687TIP3    H129025   5.603   0.268   2.804  1.0267 -0.0593 -0.0082
 9687TIP3    H229026   5.546   0.128   2.808  1.0716 -0.1037 -0.7566
 9688TIP3   OH229027   0.598   3.973   2.921 -0.0823  0.3339  0.2727
 9688TIP3    H129028   0.597   3.953   2.828 -2.2757  2.5528 -0.3058
 9688TIP3    H229029   0.549   3.902   2.962 -0.0511 -0.0865 -0.4224
 9689TIP3   OH229030   2.924   2.771   1.814  0.3501 -0.5437 -0.0406
 9689TIP3    H129031   2.995   2.733   1.761  1.2557 -0.8181  1.3169
 9689TIP3    H229032   2.890   2.697   1.864  0.3796 -0.0670  0.7003
 9690TIP3   OH229033   0.375   3.916   1.953 -0.0595 -0.4282 -0.6914
 9690TIP3    H129034   0.310   3.892   2.020  0.2428  1.0556  0.1888
 9690TIP3    H229035   0.387   4.010   1.965  2.5280 -0.6970 -0.5706
 9691TIP3   OH229036   1.262   1.182   3.916 -0.0368 -0.1258 -0.2066
 9691TIP3    H129037   1.245   1.271   3.886 -2.0822 -0.6824 -0.8743
 9691TIP3    H229038   1.261   1.189   4.012 -0.0301  0.5938 -0.2522
 9692TIP3   OH229039   5.340   5.204   0.206  0.2733 -0.0431 -0.3649
 9692TIP3    H129040   5.380   5.288   0.230  2.2572 -0.2145 -2.6791
 9692TIP3    H229041   5.277   5.226   0.137  1.3677 -0.4879 -1.5399
 9693TIP3   OH229042   1.193   5.903   1.769  0.0115  0.0321 -0.2528
 9693TIP3    H129043   1.230   5.826   1.726  1.8046  0.4994  0.3512
 9693TIP3    H229044   1.234   5.977   1.725  2.1954  0.5306  2.3495
 9694TIP3   OH229045   5.286   2.798   0.276  0.3247 -0.6401 -0.9488
 9694TIP3    H129046   5.281   2.871   0.214  1.6952 -0.7842 -1.2541
 9694TIP3    H229047   5.374   2.762   0.264 -0.5527 -2.8322 -1.3425
 9695TIP3   OH229048   1.469   0.785   3.931 -0.0275 -0.0124 -0.1724
 9695TIP3    H129049   1.503   0.874   3.942 -1.2502  0.7821 -2.3136
 9695TIP3    H229050   1.502   0.737   4.008  1.0994  2.1245  0.7567
 9696TIP3   OH229051   6.859   3.093   5.507  0.3816 -0.4421  0.1105
 9696TIP3    H129052   6.901   3.027   5.452 -0.9698 -0.2876 -1.1756
 9696TIP3    H229053   6.832   3.046   5.585 -0.3408 -1.4018 -0.6845
 9697TIP3   OH229054   6.781   0.564   4.031  0.2873 -0.0082 -0.3763
 9697TIP3    H129055   6.692   0.536   4.055 -0.3829  0.5764 -2.0749
 9697TIP3    H229056   6.809   0.619   4.105 -0.1664 -1.3470  0.8517
 9698TIP3   OH229057   1.973   3.188   0.529  0.4309 -0.3908 -0.4580
 9698TIP3    H129058   1.953   3.130   0.455 -0.9583 -0.0074 -0.4147
 9698TIP3    H229059   1.928   3.149   0.603  1.3149 -0.4389  0.0662
 9699TIP3   OH229060   3.331   0.879   1.816  0.2703 -0.6475 -0.0160
 9699TIP3    H129061   3.301   0.788   1.812  0.6740 -0.7839 -0.0192
 9699TIP3    H229062   3.400   0.884   1.750 -0.1057 -0.2001 -0.3809
 9700TIP3   OH229063   4.860   4.976   4.436 -0.3462  0.5068  0.3564
 9700TIP3    H129064   4.792   5.042   4.446  0.3601  1.3021  0.0605
 9700TIP3    H229065   4.871   4.967   4.341 -0.3505  0.0606  0.3978
 9701TIP3   OH229066   3.726   0.642   4.283 -0.0947  0.2308  0.5684
 9701TIP3    H129067   3.813   0.628   4.246 -0.6389 -0.3753 -0.5079
 9701TIP3    H229068   3.667   0.636   4.208 -1.4791 -3.1544  1.7440
 9702TIP3   OH229069   5.020   4.952   3.058  0.3168  0.1444  0.4734
 9702TIP3    H129070   5.081   4.883   3.082 -1.0873 -0.6512  2.0175
 9702TIP3    H229071   5.023   4.955   2.963  1.4284 -1.0957  0.4416
 9703TIP3   OH229072   0.838   5.917   1.926  0.4066  0.2063  0.1493
 9703TIP3    H129073   0.751   5.954   1.910 -0.2450 -0.6958  1.4687
 9703TIP3    H229074   0.881   5.981   1.982 -0.1516 -0.2398  1.1257
 9704TIP3   OH229075   5.113   4.444   5.629  0.2073 -0.0883 -0.3917
 9704TIP3    H129076   5.184   4.479   5.682 -0.2910  0.9775 -0.4110
 9704TIP3    H229077   5.045   4.421   5.693 -0.4826  1.4040 -0.5546
 9705TIP3   OH229078   6.036   0.131   2.276 -0.2710  0.1880  0.1265
 9705TIP3    H129079   6.012   0.219   2.304  0.5660  0.5557 -0.2835
 9705TIP3    H229080   5.957   0.097   2.232 -0.1222  1.2884 -1.0242
 9706TIP3   OH229081   2.684   1.361   5.596  0.3370  0.2292 -0.2770
 9706TIP3    H129082   2.612   1.308   5.564 -0.3981  1.5164 -0.8551
 9706TIP3    H229083   2.726   1.308   5.663 -1.6279 -0.2488  0.6252
 9707TIP3   OH229084   6.495   3.280   4.994 -0.0167  0.1338 -0.2184
 9707TIP3    H129085   6.511   3.340   5.067 -0.4337 -0.1990  0.1517
 9707TIP3    H229086   6.464   3.200   5.036 -0.7000  0.0948 -0.7979
 9708TIP3   OH229087   4.029   0.776  -0.010 -0.3793 -0.6070 -0.6491
 9708TIP3    H129088   3.951   0.738   0.031 -0.4526  0.5467  0.3179
 9708TIP3    H229089   4.101   0.755   0.050 -0.6144  1.8014  0.6041
 9709TIP3   OH229090   6.560   0.272   0.027  0.1190 -0.1370 -0.1024
 9709TIP3    H129091   6.587   0.296  -0.061  1.9108  1.5228  0.8231
 9709TIP3    H229092   6.641   0.243   0.070 -0.7027 -0.8673  1.0244
 9710TIP3   OH229093   1.073   0.464   0.444  0.1590  0.3456 -0.3370
 9710TIP3    H129094   1.135   0.520   0.490  1.7858 -0.0586 -1.9057
 9710TIP3    H229095   1.117   0.379   0.438 -0.5105  0.0576 -1.5100
 9711TIP3   OH229096   4.495   1.705   2.888  0.3692  0.1275 -0.5352
 9711TIP3    H129097   4.547   1.785   2.876 -1.1839  0.8714 -2.9685
 9711TIP3    H229098   4.526   1.646   2.819 -1.0339  0.0769 -1.1453
 9712TIP3   OH229099   2.446   4.933   0.533  0.2788 -0.1098  0.1341
 9712TIP3    H129100   2.366   4.911   0.486 -0.1333  1.1650  0.1897
 9712TIP3    H229101   2.513   4.936   0.465  0.2568 -1.0191  0.0615
 9713TIP3   OH229102   3.134   4.411   4.549 -0.2014  0.4697 -0.0591
 9713TIP3    H129103   3.187   4.381   4.623  1.0756  1.2092 -0.6524
 9713TIP3    H229104   3.188   4.476   4.505 -1.1447  0.4108 -1.3604
 9714TIP3   OH229105   1.480   2.856   0.155  0.4883  0.6600 -0.1335
 9714TIP3    H129106   1.491   2.762   0.141 -0.3794  0.6716 -1.0162
 9714TIP3    H229107   1.560   2.896   0.121  0.1422  0.3553 -1.3358
 9715TIP3   OH229108   1.639   2.120   3.025 -0.9557 -0.3582  0.0136
 9715TIP3    H129109   1.666   2.161   2.943  0.2492 -0.1498  0.5017
 9715TIP3    H229110   1.599   2.037   2.998  1.7143 -1.5275 -0.7104
 9716TIP3   OH229111   0.762   4.765   2.767 -0.1125 -0.0590  0.2486
 9716TIP3    H129112   0.734   4.743   2.856  0.0074  0.4428  0.4113
 9716TIP3    H229113   0.829   4.700   2.746  1.1728  0.9135  1.2115
 9717TIP3   OH229114   2.605   3.500   2.769 -0.2923 -0.1081 -0.3169
 9717TIP3    H129115   2.653   3.431   2.723 -0.9278 -1.4614  0.9611
 9717TIP3    H229116   2.656   3.580   2.752  1.2418 -1.1147 -0.7070
 9718TIP3   OH229117   6.542   0.600   5.507 -0.6743 -0.3497  0.2802
 9718TIP3    H129118   6.476   0.578   5.573 -0.5620 -0.9693  0.1939
 9718TIP3    H229119   6.613   0.641   5.557 -1.2820  0.6779  0.3222
 9719TIP3   OH229120   1.095   3.640   5.743  0.4487 -0.0255  0.1654
 9719TIP3    H129121   1.117   3.588   5.820 -0.7034 -0.0582  0.4894
 9719TIP3    H229122   1.164   3.707   5.739  0.8003 -0.3252  0.9261
 9720TIP3   OH229123   2.942   2.226   1.639  0.0534 -0.2813  0.2289
 9720TIP3    H129124   2.924   2.263   1.726  0.0606 -0.8457  0.4804
 9720TIP3    H229125   2.999   2.290   1.596  0.0961 -0.0242  0.6632
 9721TIP3   OH229126   6.050   0.484   0.387  0.5753  0.4888  0.1563
 9721TIP3    H129127   6.130   0.520   0.425  0.3649  0.1653  0.9323
 9721TIP3    H229128   6.010   0.558   0.341  1.1376  0.7385  0.0651
 9722TIP3   OH229129   6.588   5.085   5.855  0.4884  0.0774 -0.3984
 9722TIP3    H129130   6.580   5.076   5.760  0.0615 -0.7738 -0.2934
 9722TIP3    H229131   6.499   5.099   5.886  0.7899  1.9850 -0.2489
 9723TIP3   OH229132   4.934   0.536   3.969 -0.1738  0.3248 -0.2224
 9723TIP3    H129133   4.920   0.490   4.052 -0.7188  0.6455 -0.1322
 9723TIP3    H229134   4.864   0.504   3.912  0.2659  0.0195 -0.6007
 9724TIP3   OH229135   0.533   0.063   5.168  0.4073 -0.3940 -0.1591
 9724TIP3    H129136   0.496  -0.022   5.192  0.5631 -0.1051  1.1988
 9724TIP3    H229137   0.469   0.127   5.199  0.7297  0.0215 -0.3322
 9725TIP3   OH229138   5.751   2.082   3.718 -0.4449  0.2394  0.0925
 9725TIP3    H129139   5.798   2.007   3.681  0.6685  0.8437  0.2308
 9725TIP3    H229140   5.741   2.061   3.811  0.6290  0.6052  0.3116
 9726TIP3   OH229141   4.355   0.174   1.031 -0.1458  0.2398  0.0632
 9726TIP3    H129142   4.327   0.254   1.074  0.8055  0.0547  1.0883
 9726TIP3    H229143   4.417   0.134   1.093  0.5196 -0.5374 -1.0593
 9727TIP3   OH229144   1.357   0.459   1.330 -0.2303 -0.0824 -0.0490
 9727TIP3    H129145   1.363   0.489   1.421  0.1341 -1.3889  0.3770
 9727TIP3    H229146   1.270   0.421   1.322  0.2312 -1.2247  0.1707
 9728TIP3   OH229147   1.881   4.362   1.205 -0.1292 -0.1598  0.0617
 9728TIP3    H129148   1.910   4.432   1.264 -0.2087  0.1349 -0.2400
 9728TIP3    H229149   1.902   4.281   1.251  0.2160  0.0613  0.3011
 9729TIP3   OH229150   0.867   0.527   2.915 -0.1059  0.4302 -0.2857
 9729TIP3    H129151   0.962   0.516   2.909 -0.2192 -0.1658 -1.1789
 9729TIP3    H229152   0.835   0.505   2.828 -1.1287 -0.0162  0.1860
 9730TIP3   OH229153   3.602   6.229   3.272 -0.0483  0.1669 -0.2842
 9730TIP3    H129154   3.558   6.246   3.189 -0.0270  0.2520 -0.2785
 9730TIP3    H229155   3.541   6.262   3.339  0.1348  0.5270 -0.2879
 9731TIP3   OH229156   0.875   2.007   0.188 -0.0065  0.2319 -0.3724
 9731TIP3    H129157   0.920   2.011   0.272 -1.6310 -1.6145  0.6665
 9731TIP3    H229158   0.943   1.984   0.125  1.2225  1.5666  0.4029
 9732TIP3   OH229159   2.800   0.989   2.990 -0.6228 -0.4737  0.4730
 9732TIP3    H129160   2.724   1.002   2.933 -0.4190  1.4361  0.5622
 9732TIP3    H229161   2.856   1.065   2.973  2.0722 -2.5909 -0.7558
 9733TIP3   OH229162   4.549   5.371   4.820  0.5813 -0.4330 -0.2921
 9733TIP3    H129163   4.629   5.416   4.847 -0.0336  1.3993 -1.3545
 9733TIP3    H229164   4.489   5.441   4.794 -1.4711 -1.7408  0.6604
 9734TIP3   OH229165   6.734   0.130   0.959  0.1915  0.0106 -0.2835
 9734TIP3    H129166   6.665   0.075   0.921 -1.1118  0.8006  0.8639
 9734TIP3    H229167   6.690   0.180   1.027  1.9898  0.3083  0.7075
 9735TIP3   OH229168   0.389   5.929   5.758  0.3117  0.1221 -0.0888
 9735TIP3    H129169   0.414   5.856   5.815  2.9402  1.1829  0.2474
 9735TIP3    H229170   0.456   5.995   5.773 -2.0076  2.6950 -0.3071
 9736TIP3   OH229171   6.485   0.510   2.150 -0.2093 -0.1257  0.0104
 9736TIP3    H129172   6.515   0.427   2.189 -0.0292  0.4663  1.1659
 9736TIP3    H229173   6.403   0.529   2.195  0.6545  1.2349  1.1122
 9737TIP3   OH229174   1.223   0.407   4.624  0.4530 -0.2062 -0.1997
 9737TIP3    H129175   1.272   0.329   4.599  1.2316  0.1853  0.0883
 9737TIP3    H229176   1.159   0.376   4.688  1.4926 -0.4318  0.7557
 9738TIP3   OH229177   2.324   6.159   2.560  0.0377  0.1050  0.2413
 9738TIP3    H129178   2.292   6.083   2.609 -0.3099  0.1397  0.0715
 9738TIP3    H229179   2.291   6.234   2.609  0.3011  0.1455  0.3559
 9739TIP3   OH229180   5.122   3.039   1.688  0.4287 -0.4159 -0.2833
 9739TIP3    H129181   5.062   3.106   1.722  0.1574 -1.6841  1.8930
 9739TIP3    H229182   5.208   3.069   1.715  0.4079 -0.4169 -0.2140
 9740TIP3   OH229183   0.941   1.815   3.580 -0.2102 -0.3806  0.3445
 9740TIP3    H129184   1.032   1.805   3.553 -0.2111  0.1767  0.1095
 9740TIP3    H229185   0.944   1.880   3.651 -0.3660 -0.7634  0.7041
 9741TIP3   OH229186   5.208   5.167   5.298  0.3036 -0.3578 -0.4857
 9741TIP3    H129187   5.202   5.178   5.393 -0.0072  0.3439 -0.5795
 9741TIP3    H229188   5.296   5.194   5.276  0.4908 -0.8478 -0.3631
 9742TIP3   OH229189   0.651   6.583   3.660 -0.8994 -0.5950  0.4065
 9742TIP3    H129190   0.640   6.667   3.704  1.7208 -0.2662  0.5744
 9742TIP3    H229191   0.589   6.586   3.587 -0.0854  2.0086 -0.2848
 9743TIP3   OH229192   3.108   6.026   4.901  0.2249  0.5614 -0.4828
 9743TIP3    H129193   3.146   6.082   4.833  0.1519  1.3269  0.0951
 9743TIP3    H229194   3.158   6.046   4.980  0.8972 -0.9735 -0.4951
 9744TIP3   OH229195   4.510   6.103   4.727 -0.5992 -0.9870  0.2967
 9744TIP3    H129196   4.497   6.029   4.668 -1.2573 -0.7732  0.1608
 9744TIP3    H229197   4.422   6.125   4.757 -0.2592 -1.1403  1.4254
 9745TIP3   OH229198   4.784   1.067   4.681 -0.0532  0.1760 -0.3912
 9745TIP3    H129199   4.792   0.978   4.647 -4.1228 -1.0982  1.4457
 9745TIP3    H229200   4.709   1.104   4.634  0.3891  1.9875  0.2487
 9746TIP3   OH229201   6.011   3.568   5.582 -0.5579  0.1936  0.6896
 9746TIP3    H129202   5.989   3.660   5.594 -2.4362 -0.2271  0.7520
 9746TIP3    H229203   6.097   3.569   5.540 -0.6911  1.9649  0.3929
 9747TIP3   OH229204   5.560   0.910   2.566 -0.0739 -0.5760 -0.5828
 9747TIP3    H129205   5.585   0.989   2.517 -0.8583  0.6941  0.9560
 9747TIP3    H229206   5.643   0.869   2.590  0.3495 -0.1712 -1.3264
 9748TIP3   OH229207   1.289   0.655   3.104 -0.2164 -0.0129  0.1624
 9748TIP3    H129208   1.353   0.650   3.175 -0.2733 -0.8296  0.1630
 9748TIP3    H229209   1.211   0.694   3.144  0.6649  2.1721 -0.1279
 9749TIP3   OH229210   2.811   5.193   3.336 -0.4725  0.0095  0.1056
 9749TIP3    H129211   2.862   5.227   3.409 -2.2592  0.8409  1.0314
 9749TIP3    H229212   2.740   5.256   3.325 -0.8954 -0.7131 -1.6089
   7.20668   6.79453   5.88422   0.00000   0.00000  -2.40223   0.00000  -2.40223  -3.39726
