Title t= 202.00000 step= 101000
29212
    1ASP      N    1   2.404   1.463   2.511
    1ASP    HT1    2   2.375   1.525   2.588
    1ASP    HT2    3   2.389   1.494   2.413
    1ASP    HT3    4   2.506   1.446   2.528
    1ASP     CA    5   2.330   1.339   2.535
    1ASP     HA    6   2.335   1.279   2.446
    1ASP     CB    7   2.389   1.252   2.652
    1ASP    HB1    8   2.317   1.169   2.669
    1ASP    HB2    9   2.399   1.307   2.748
    1ASP     CG   10   2.525   1.196   2.614
    1ASP    OD1   11   2.593   1.256   2.532
    1ASP    OD2   12   2.572   1.096   2.678
    1ASP      C   13   2.181   1.355   2.551
    1ASP      O   14   2.134   1.470   2.569
    2GLY      N   15   2.108   1.241   2.548
    2GLY     HN   16   2.148   1.157   2.515
    2GLY     CA   17   1.969   1.236   2.593
    2GLY    HA1   18   1.962   1.308   2.673
    2GLY    HA2   19   1.931   1.140   2.626
    2GLY      C   20   1.878   1.283   2.479
    2GLY      O   21   1.907   1.309   2.361
    3ASP      N   22   1.751   1.296   2.526
    3ASP     HN   23   1.718   1.255   2.611
    3ASP     CA   24   1.641   1.341   2.442
    3ASP     HA   25   1.647   1.289   2.347
    3ASP     CB   26   1.504   1.309   2.497
    3ASP    HB1   27   1.425   1.328   2.422
    3ASP    HB2   28   1.482   1.368   2.589
    3ASP     CG   29   1.496   1.164   2.519
    3ASP    OD1   30   1.432   1.117   2.611
    3ASP    OD2   31   1.548   1.083   2.437
    3ASP      C   32   1.650   1.489   2.413
    3ASP      O   33   1.690   1.568   2.502
    4GLY      N   34   1.628   1.533   2.288
    4GLY     HN   35   1.591   1.470   2.221
    4GLY     CA   36   1.628   1.664   2.231
    4GLY    HA1   37   1.615   1.646   2.126
    4GLY    HA2   38   1.724   1.700   2.264
    4GLY      C   39   1.519   1.762   2.277
    4GLY      O   40   1.449   1.746   2.377
    5PRO      N   41   1.502   1.876   2.212
    5PRO     CD   42   1.574   1.910   2.089
    5PRO    HD1   43   1.521   1.863   2.003
    5PRO    HD2   44   1.681   1.880   2.087
    5PRO     CA   45   1.407   1.979   2.242
    5PRO     HA   46   1.444   2.026   2.332
    5PRO     CB   47   1.422   2.083   2.125
    5PRO    HB1   48   1.412   2.182   2.176
    5PRO    HB2   49   1.358   2.063   2.037
    5PRO     CG   50   1.565   2.060   2.076
    5PRO    HG1   51   1.586   2.108   1.979
    5PRO    HG2   52   1.630   2.101   2.156
    5PRO      C   53   1.259   1.947   2.267
    5PRO      O   54   1.200   1.859   2.205
    6GLY      N   55   1.198   2.016   2.369
    6GLY     HN   56   1.249   2.082   2.424
    6GLY     CA   57   1.064   1.980   2.421
    6GLY    HA1   58   1.075   1.885   2.471
    6GLY    HA2   59   0.990   1.985   2.343
    6GLY      C   60   1.020   2.085   2.518
    6GLY      O   61   1.093   2.179   2.549
    7ASP      N   62   0.907   2.061   2.587
    7ASP     HN   63   0.854   1.979   2.568
    7ASP     CA   64   0.863   2.146   2.695
    7ASP     HA   65   0.885   2.249   2.669
    7ASP     CB   66   0.713   2.125   2.732
    7ASP    HB1   67   0.681   2.192   2.814
    7ASP    HB2   68   0.686   2.019   2.752
    7ASP     CG   69   0.620   2.176   2.618
    7ASP    OD1   70   0.501   2.147   2.617
    7ASP    OD2   71   0.670   2.249   2.530
    7ASP      C   72   0.940   2.109   2.820
    7ASP      O   73   0.987   1.997   2.827
    8PRO      N   74   0.946   2.196   2.920
    8PRO     CD   75   0.914   2.337   2.914
    8PRO    HD1   76   0.804   2.353   2.921
    8PRO    HD2   77   0.952   2.394   2.827
    8PRO     CA   78   1.004   2.166   3.050
    8PRO     HA   79   1.111   2.160   3.036
    8PRO     CB   80   0.963   2.290   3.137
    8PRO    HB1   81   1.033   2.303   3.222
    8PRO    HB2   82   0.859   2.278   3.175
    8PRO     CG   83   0.976   2.405   3.039
    8PRO    HG1   84   0.913   2.490   3.070
    8PRO    HG2   85   1.084   2.432   3.030
    8PRO      C   86   0.961   2.036   3.116
    8PRO      O   87   0.844   2.004   3.109
    9GLY      N   88   1.056   1.966   3.188
    9GLY     HN   89   1.149   2.000   3.201
    9GLY     CA   90   1.024   1.831   3.240
    9GLY    HA1   91   1.124   1.792   3.252
    9GLY    HA2   92   0.958   1.784   3.170
    9GLY      C   93   0.972   1.834   3.378
    9GLY      O   94   0.920   1.929   3.433
   10ASP      N   95   1.005   1.726   3.458
   10ASP     HN   96   1.031   1.642   3.410
   10ASP     CA   97   0.975   1.712   3.599
   10ASP     HA   98   0.882   1.751   3.639
   10ASP     CB   99   0.974   1.562   3.645
   10ASP    HB1  100   0.955   1.563   3.754
   10ASP    HB2  101   1.075   1.517   3.631
   10ASP     CG  102   0.861   1.485   3.590
   10ASP    OD1  103   0.792   1.525   3.492
   10ASP    OD2  104   0.849   1.367   3.631
   10ASP      C  105   1.076   1.777   3.685
   10ASP      O  106   1.197   1.753   3.671
   11GLY      N  107   1.027   1.848   3.785
   11GLY     HN  108   0.931   1.871   3.799
   11GLY     CA  109   1.111   1.907   3.891
   11GLY    HA1  110   1.200   1.850   3.908
   11GLY    HA2  111   1.057   1.914   3.985
   11GLY      C  112   1.150   2.049   3.849
   11GLY    OT1  113   1.069   2.126   3.796
   11GLY    OT2  114   1.270   2.086   3.867
   12LIT    LIT  115   0.217   1.099   1.378
   13LIT    LIT  116   4.902   6.067   0.667
   14LIT    LIT  117   5.096   2.224   5.463
   15LIT    LIT  118   0.313   6.139   2.543
   16LIT    LIT  119   1.215   2.262   3.813
   17LIT    LIT  120   6.620  -0.020   2.876
   18LIT    LIT  121   3.392   3.472   4.003
   19LIT    LIT  122   1.768   4.256   0.591
   20LIT    LIT  123   7.086   1.897   5.190
   21LIT    LIT  124   0.086   6.313   3.802
   22LIT    LIT  125   5.220   1.716   4.657
   23LIT    LIT  126   6.391   0.454   0.927
   24LIT    LIT  127   6.213   4.593   5.598
   25LIT    LIT  128   0.336   2.318   2.606
   26LIT    LIT  129   0.704   1.343   3.501
   27LIT    LIT  130   2.581   0.899   3.469
   28LIT    LIT  131   2.190   5.466   5.192
   29LIT    LIT  132   5.262   3.267   3.796
   30LIT    LIT  133   6.433   1.816   1.657
   31LIT    LIT  134   4.667   1.297   2.020
   32LIT    LIT  135   5.131   3.038   0.074
   33LIT    LIT  136   3.761   4.217   2.540
   34LIT    LIT  137   5.459   1.152   4.405
   35LIT    LIT  138   1.155   1.467   2.329
   36LIT    LIT  139   6.108   5.730   3.012
   37LIT    LIT  140   0.553   3.397   0.658
   38LIT    LIT  141   4.620   6.639   0.503
   39LIT    LIT  142   2.745   1.140   2.594
   40LIT    LIT  143   2.108   5.004   1.757
   41LIT    LIT  144   1.887   1.688   4.808
   42LIT    LIT  145   1.539   0.961   2.581
   43CLA    CLA  146   2.320   5.044   1.824
   44CLA    CLA  147   3.358   0.902   4.237
   45CLA    CLA  148   2.223   3.409   3.130
   46CLA    CLA  149   5.433   3.558   0.418
   47CLA    CLA  150   0.671   1.453   2.272
   48CLA    CLA  151   3.617   6.556   1.427
   49CLA    CLA  152   2.089   4.703   3.539
   50CLA    CLA  153   0.767   3.083   1.553
   51CLA    CLA  154   6.663   1.926   2.663
   52CLA    CLA  155   3.523   4.660   3.118
   53CLA    CLA  156   2.460   2.327   3.820
   54CLA    CLA  157   3.295   1.738   1.158
   55CLA    CLA  158   5.731   1.329   4.687
   56CLA    CLA  159   0.082   1.493   4.720
   57CLA    CLA  160   4.629   3.295   4.849
   58CLA    CLA  161   3.537   4.161   2.585
   59CLA    CLA  162   4.540   0.642   3.059
   60CLA    CLA  163   2.587   0.060   3.430
   61CLA    CLA  164   0.804   0.158   1.429
   62CLA    CLA  165   1.933   0.821   2.527
   63CLA    CLA  166   2.487   4.631   4.808
   64CLA    CLA  167   3.446   3.962   0.363
   65CLA    CLA  168   6.577   4.097   4.773
   66CLA    CLA  169   1.033   4.973   3.064
   67CLA    CLA  170   5.834   1.248   1.043
   68CLA    CLA  171   3.888   5.615   5.615
   69CLA    CLA  172   3.108   5.191   3.823
   70TIP3   OH2  173   4.354   4.627   0.169
   70TIP3    H1  174   4.357   4.689   0.096
   70TIP3    H2  175   4.436   4.579   0.163
   71TIP3   OH2  176   4.312   1.298   2.226
   71TIP3    H1  177   4.319   1.203   2.216
   71TIP3    H2  178   4.223   1.311   2.258
   72TIP3   OH2  179   0.970   5.139   3.515
   72TIP3    H1  180   0.952   5.097   3.599
   72TIP3    H2  181   1.007   5.070   3.461
   73TIP3   OH2  182   6.028   4.724   4.745
   73TIP3    H1  183   6.110   4.675   4.750
   73TIP3    H2  184   6.054   4.816   4.754
   74TIP3   OH2  185   2.511   5.782   5.155
   74TIP3    H1  186   2.521   5.874   5.182
   74TIP3    H2  187   2.515   5.785   5.059
   75TIP3   OH2  188   5.330   4.302   1.530
   75TIP3    H1  189   5.417   4.339   1.515
   75TIP3    H2  190   5.283   4.318   1.448
   76TIP3   OH2  191   2.342   5.952   5.674
   76TIP3    H1  192   2.290   6.028   5.700
   76TIP3    H2  193   2.388   5.926   5.754
   77TIP3   OH2  194   4.357   2.528   0.935
   77TIP3    H1  195   4.426   2.498   0.994
   77TIP3    H2  196   4.304   2.588   0.988
   78TIP3   OH2  197   2.618   5.025   2.998
   78TIP3    H1  198   2.563   5.050   3.072
   78TIP3    H2  199   2.613   4.929   2.996
   79TIP3   OH2  200   0.076   5.322   5.183
   79TIP3    H1  201  -0.003   5.375   5.191
   79TIP3    H2  202   0.147   5.380   5.212
   80TIP3   OH2  203   4.978   2.842   1.308
   80TIP3    H1  204   4.925   2.841   1.388
   80TIP3    H2  205   5.017   2.755   1.303
   81TIP3   OH2  206   7.104   3.789   2.978
   81TIP3    H1  207   7.189   3.790   2.934
   81TIP3    H2  208   7.091   3.879   3.007
   82TIP3   OH2  209   3.343   5.191   5.232
   82TIP3    H1  210   3.306   5.104   5.248
   82TIP3    H2  211   3.332   5.236   5.316
   83TIP3   OH2  212   2.721   5.404   4.457
   83TIP3    H1  213   2.775   5.449   4.521
   83TIP3    H2  214   2.656   5.357   4.509
   84TIP3   OH2  215   4.455   2.594   4.072
   84TIP3    H1  216   4.393   2.556   4.134
   84TIP3    H2  217   4.529   2.533   4.072
   85TIP3   OH2  218   0.153   0.349   3.446
   85TIP3    H1  219   0.223   0.414   3.455
   85TIP3    H2  220   0.157   0.323   3.354
   86TIP3   OH2  221   5.797   6.621   1.056
   86TIP3    H1  222   5.706   6.598   1.038
   86TIP3    H2  223   5.813   6.585   1.143
   87TIP3   OH2  224   4.745   5.627   1.552
   87TIP3    H1  225   4.821   5.680   1.577
   87TIP3    H2  226   4.782   5.543   1.525
   88TIP3   OH2  227   1.911   5.097   3.906
   88TIP3    H1  228   1.824   5.071   3.937
   88TIP3    H2  229   1.969   5.025   3.931
   89TIP3   OH2  230   1.455   0.113   1.643
   89TIP3    H1  231   1.519   0.042   1.639
   89TIP3    H2  232   1.437   0.125   1.736
   90TIP3   OH2  233   4.571   3.183   1.769
   90TIP3    H1  234   4.601   3.202   1.858
   90TIP3    H2  235   4.577   3.266   1.723
   91TIP3   OH2  236   4.216   3.611   5.717
   91TIP3    H1  237   4.131   3.577   5.745
   91TIP3    H2  238   4.251   3.656   5.794
   92TIP3   OH2  239   1.740   6.703   0.710
   92TIP3    H1  240   1.805   6.751   0.659
   92TIP3    H2  241   1.786   6.625   0.740
   93TIP3   OH2  242   2.813   0.116   3.950
   93TIP3    H1  243   2.870   0.160   3.888
   93TIP3    H2  244   2.724   0.144   3.926
   94TIP3   OH2  245   7.181   1.191   5.892
   94TIP3    H1  246   7.209   1.272   5.934
   94TIP3    H2  247   7.087   1.200   5.881
   95TIP3   OH2  248   1.802   3.506   5.647
   95TIP3    H1  249   1.881   3.547   5.681
   95TIP3    H2  250   1.821   3.490   5.554
   96TIP3   OH2  251   0.136   6.429   2.375
   96TIP3    H1  252   0.135   6.471   2.461
   96TIP3    H2  253   0.046   6.436   2.343
   97TIP3   OH2  254   1.894   5.392   4.095
   97TIP3    H1  255   1.860   5.386   4.005
   97TIP3    H2  256   1.988   5.381   4.085
   98TIP3   OH2  257   0.224   3.902   2.090
   98TIP3    H1  258   0.176   3.855   2.021
   98TIP3    H2  259   0.205   3.994   2.073
   99TIP3   OH2  260   2.487   4.856   3.552
   99TIP3    H1  261   2.577   4.874   3.578
   99TIP3    H2  262   2.435   4.877   3.630
  100TIP3   OH2  263   3.783   5.689   5.243
  100TIP3    H1  264   3.791   5.650   5.330
  100TIP3    H2  265   3.754   5.617   5.187
  101TIP3   OH2  266   6.200   3.603   2.727
  101TIP3    H1  267   6.268   3.547   2.687
  101TIP3    H2  268   6.154   3.640   2.652
  102TIP3   OH2  269   5.774   2.194   0.324
  102TIP3    H1  270   5.839   2.230   0.384
  102TIP3    H2  271   5.697   2.177   0.378
  103TIP3   OH2  272   0.116   0.823   0.821
  103TIP3    H1  273   0.171   0.880   0.875
  103TIP3    H2  274   0.128   0.855   0.732
  104TIP3   OH2  275   6.157   3.464   4.692
  104TIP3    H1  276   6.208   3.402   4.640
  104TIP3    H2  277   6.126   3.528   4.628
  105TIP3   OH2  278   5.445   1.786   2.669
  105TIP3    H1  279   5.519   1.846   2.677
  105TIP3    H2  280   5.380   1.835   2.619
  106TIP3   OH2  281   4.823   6.100   4.417
  106TIP3    H1  282   4.742   6.096   4.468
  106TIP3    H2  283   4.802   6.155   4.342
  107TIP3   OH2  284   3.258   0.171   5.104
  107TIP3    H1  285   3.240   0.121   5.025
  107TIP3    H2  286   3.322   0.118   5.152
  108TIP3   OH2  287   3.444   6.016   1.488
  108TIP3    H1  288   3.522   5.961   1.494
  108TIP3    H2  289   3.383   5.980   1.553
  109TIP3   OH2  290   6.815   4.344   4.674
  109TIP3    H1  291   6.787   4.391   4.595
  109TIP3    H2  292   6.741   4.287   4.696
  110TIP3   OH2  293   5.940   6.311   4.201
  110TIP3    H1  294   5.938   6.395   4.155
  110TIP3    H2  295   6.021   6.269   4.171
  111TIP3   OH2  296   0.181   3.207   0.667
  111TIP3    H1  297   0.114   3.182   0.730
  111TIP3    H2  298   0.176   3.139   0.599
  112TIP3   OH2  299   2.682   5.380   0.939
  112TIP3    H1  300   2.686   5.406   0.847
  112TIP3    H2  301   2.606   5.428   0.974
  113TIP3   OH2  302   0.887   4.722   1.956
  113TIP3    H1  303   0.905   4.778   1.881
  113TIP3    H2  304   0.791   4.719   1.962
  114TIP3   OH2  305   1.708   1.982   5.539
  114TIP3    H1  306   1.795   1.996   5.500
  114TIP3    H2  307   1.720   1.909   5.599
  115TIP3   OH2  308   4.272   0.048   2.751
  115TIP3    H1  309   4.282   0.107   2.676
  115TIP3    H2  310   4.358   0.049   2.794
  116TIP3   OH2  311   6.113   6.620   4.858
  116TIP3    H1  312   6.126   6.681   4.786
  116TIP3    H2  313   6.101   6.675   4.935
  117TIP3   OH2  314   3.793   6.685   1.791
  117TIP3    H1  315   3.842   6.631   1.852
  117TIP3    H2  316   3.749   6.750   1.846
  118TIP3   OH2  317   5.652   2.043   0.506
  118TIP3    H1  318   5.740   2.015   0.530
  118TIP3    H2  319   5.608   1.962   0.478
  119TIP3   OH2  320   2.658   1.531   2.614
  119TIP3    H1  321   2.742   1.560   2.578
  119TIP3    H2  322   2.680   1.466   2.680
  120TIP3   OH2  323   2.444   4.712   1.858
  120TIP3    H1  324   2.375   4.778   1.864
  120TIP3    H2  325   2.401   4.636   1.818
  121TIP3   OH2  326   4.746   0.017   0.062
  121TIP3    H1  327   4.712   0.073  -0.009
  121TIP3    H2  328   4.674   0.013   0.125
  122TIP3   OH2  329   4.695   4.273   2.674
  122TIP3    H1  330   4.766   4.331   2.644
  122TIP3    H2  331   4.738   4.189   2.689
  123TIP3   OH2  332   4.697   0.512   5.293
  123TIP3    H1  333   4.697   0.548   5.204
  123TIP3    H2  334   4.605   0.515   5.320
  124TIP3   OH2  335   1.429   4.196   5.319
  124TIP3    H1  336   1.387   4.245   5.389
  124TIP3    H2  337   1.367   4.199   5.246
  125TIP3   OH2  338   5.053   0.784   4.214
  125TIP3    H1  339   5.082   0.818   4.299
  125TIP3    H2  340   4.998   0.709   4.237
  126TIP3   OH2  341   7.021   5.236   2.413
  126TIP3    H1  342   7.039   5.296   2.341
  126TIP3    H2  343   7.019   5.149   2.373
  127TIP3   OH2  344   0.770   2.464   4.712
  127TIP3    H1  345   0.708   2.463   4.785
  127TIP3    H2  346   0.719   2.437   4.636
  128TIP3   OH2  347   0.830   1.761   5.755
  128TIP3    H1  348   0.860   1.851   5.765
  128TIP3    H2  349   0.868   1.714   5.829
  129TIP3   OH2  350   1.256   0.809   0.961
  129TIP3    H1  351   1.174   0.835   1.004
  129TIP3    H2  352   1.302   0.891   0.945
  130TIP3   OH2  353   4.648   6.469   2.764
  130TIP3    H1  354   4.694   6.519   2.830
  130TIP3    H2  355   4.565   6.444   2.806
  131TIP3   OH2  356   7.147   2.006   5.049
  131TIP3    H1  357   7.164   2.097   5.073
  131TIP3    H2  358   7.165   2.001   4.955
  132TIP3   OH2  359   5.604   2.063   2.640
  132TIP3    H1  360   5.596   2.159   2.635
  132TIP3    H2  361   5.580   2.042   2.730
  133TIP3   OH2  362   1.388   2.763   3.821
  133TIP3    H1  363   1.315   2.822   3.805
  133TIP3    H2  364   1.464   2.821   3.833
  134TIP3   OH2  365   4.488   4.556   5.822
  134TIP3    H1  366   4.467   4.648   5.807
  134TIP3    H2  367   4.474   4.514   5.737
  135TIP3   OH2  368   0.439   5.634   4.237
  135TIP3    H1  369   0.457   5.719   4.277
  135TIP3    H2  370   0.524   5.591   4.231
  136TIP3   OH2  371   2.211   3.766   3.299
  136TIP3    H1  372   2.239   3.703   3.365
  136TIP3    H2  373   2.287   3.775   3.241
  137TIP3   OH2  374   3.120   5.923   4.333
  137TIP3    H1  375   3.090   5.937   4.423
  137TIP3    H2  376   3.125   6.011   4.296
  138TIP3   OH2  377   5.807   1.698   1.819
  138TIP3    H1  378   5.774   1.648   1.894
  138TIP3    H2  379   5.729   1.742   1.784
  139TIP3   OH2  380   6.356   1.962   4.951
  139TIP3    H1  381   6.406   1.955   5.033
  139TIP3    H2  382   6.361   1.875   4.912
  140TIP3   OH2  383   2.574   5.351   3.108
  140TIP3    H1  384   2.579   5.410   3.032
  140TIP3    H2  385   2.493   5.303   3.096
  141TIP3   OH2  386   5.654   2.501   0.456
  141TIP3    H1  387   5.559   2.491   0.465
  141TIP3    H2  388   5.666   2.589   0.421
  142TIP3   OH2  389   0.749   6.322   3.361
  142TIP3    H1  390   0.710   6.239   3.334
  142TIP3    H2  391   0.843   6.306   3.359
  143TIP3   OH2  392   0.183   5.806   2.696
  143TIP3    H1  393   0.149   5.728   2.652
  143TIP3    H2  394   0.116   5.829   2.760
  144TIP3   OH2  395   1.100   2.911   4.023
  144TIP3    H1  396   1.162   2.952   3.962
  144TIP3    H2  397   1.014   2.929   3.984
  145TIP3   OH2  398   5.146   4.793   3.964
  145TIP3    H1  399   5.199   4.753   4.033
  145TIP3    H2  400   5.114   4.874   4.003
  146TIP3   OH2  401   4.782   3.587   5.103
  146TIP3    H1  402   4.708   3.637   5.138
  146TIP3    H2  403   4.852   3.651   5.091
  147TIP3   OH2  404   3.762   4.564   1.062
  147TIP3    H1  405   3.725   4.632   1.117
  147TIP3    H2  406   3.697   4.550   0.993
  148TIP3   OH2  407   4.467   0.848   2.681
  148TIP3    H1  408   4.498   0.821   2.594
  148TIP3    H2  409   4.546   0.845   2.736
  149TIP3   OH2  410   7.147   1.604   4.473
  149TIP3    H1  411   7.188   1.687   4.447
  149TIP3    H2  412   7.190   1.581   4.555
  150TIP3   OH2  413   0.630   4.694   3.115
  150TIP3    H1  414   0.647   4.603   3.136
  150TIP3    H2  415   0.689   4.744   3.172
  151TIP3   OH2  416   1.121   1.445   4.567
  151TIP3    H1  417   1.088   1.528   4.603
  151TIP3    H2  418   1.209   1.437   4.602
  152TIP3   OH2  419   3.885   0.224   5.853
  152TIP3    H1  420   3.895   0.220   5.758
  152TIP3    H2  421   3.932   0.147   5.885
  153TIP3   OH2  422   0.613   3.382   4.433
  153TIP3    H1  423   0.603   3.309   4.494
  153TIP3    H2  424   0.550   3.364   4.363
  154TIP3   OH2  425   0.945   4.752   3.725
  154TIP3    H1  426   0.984   4.821   3.780
  154TIP3    H2  427   0.851   4.763   3.736
  155TIP3   OH2  428   3.982   4.332   4.440
  155TIP3    H1  429   3.893   4.346   4.408
  155TIP3    H2  430   4.038   4.357   4.367
  156TIP3   OH2  431   0.866   4.136   4.784
  156TIP3    H1  432   0.900   4.136   4.694
  156TIP3    H2  433   0.928   4.190   4.833
  157TIP3   OH2  434   0.918   6.535   1.275
  157TIP3    H1  435   0.987   6.514   1.338
  157TIP3    H2  436   0.848   6.574   1.328
  158TIP3   OH2  437   1.695   6.089   1.344
  158TIP3    H1  438   1.790   6.077   1.342
  158TIP3    H2  439   1.672   6.079   1.436
  159TIP3   OH2  440   4.840   0.674   0.782
  159TIP3    H1  441   4.760   0.700   0.828
  159TIP3    H2  442   4.909   0.728   0.821
  160TIP3   OH2  443   0.295   3.374   0.485
  160TIP3    H1  444   0.294   3.301   0.422
  160TIP3    H2  445   0.237   3.345   0.556
  161TIP3   OH2  446   6.143   1.951   1.742
  161TIP3    H1  447   6.081   1.950   1.669
  161TIP3    H2  448   6.111   1.884   1.802
  162TIP3   OH2  449   4.655   0.258   4.272
  162TIP3    H1  450   4.592   0.293   4.210
  162TIP3    H2  451   4.703   0.335   4.303
  163TIP3   OH2  452   1.182   5.836   4.070
  163TIP3    H1  453   1.260   5.871   4.027
  163TIP3    H2  454   1.190   5.741   4.062
  164TIP3   OH2  455   4.615   5.242   2.759
  164TIP3    H1  456   4.529   5.212   2.788
  164TIP3    H2  457   4.647   5.172   2.702
  165TIP3   OH2  458   2.631   6.583   0.517
  165TIP3    H1  459   2.639   6.514   0.451
  165TIP3    H2  460   2.706   6.640   0.502
  166TIP3   OH2  461   5.430   5.966   5.138
  166TIP3    H1  462   5.337   5.983   5.156
  166TIP3    H2  463   5.476   6.008   5.211
  167TIP3   OH2  464   5.764   3.409   1.943
  167TIP3    H1  465   5.856   3.433   1.935
  167TIP3    H2  466   5.720   3.492   1.963
  168TIP3   OH2  467   4.702   4.695   3.285
  168TIP3    H1  468   4.610   4.670   3.295
  168TIP3    H2  469   4.750   4.621   3.322
  169TIP3   OH2  470   5.641   5.187   5.776
  169TIP3    H1  471   5.586   5.172   5.852
  169TIP3    H2  472   5.730   5.173   5.807
  170TIP3   OH2  473   6.321   0.710   1.381
  170TIP3    H1  474   6.296   0.627   1.339
  170TIP3    H2  475   6.294   0.699   1.472
  171TIP3   OH2  476   2.912   2.477   5.278
  171TIP3    H1  477   3.002   2.510   5.280
  171TIP3    H2  478   2.912   2.402   5.338
  172TIP3   OH2  479   4.721   2.594   4.651
  172TIP3    H1  480   4.722   2.681   4.689
  172TIP3    H2  481   4.635   2.587   4.609
  173TIP3   OH2  482   4.552   6.164   4.413
  173TIP3    H1  483   4.525   6.255   4.405
  173TIP3    H2  484   4.539   6.127   4.326
  174TIP3   OH2  485   6.183   5.611   1.075
  174TIP3    H1  486   6.268   5.585   1.041
  174TIP3    H2  487   6.156   5.685   1.021
  175TIP3   OH2  488  -0.005   0.403   0.554
  175TIP3    H1  489   0.044   0.324   0.532
  175TIP3    H2  490  -0.046   0.429   0.472
  176TIP3   OH2  491   5.091   5.751   0.053
  176TIP3    H1  492   5.067   5.842   0.069
  176TIP3    H2  493   5.185   5.747   0.069
  177TIP3   OH2  494   2.170   5.683   3.439
  177TIP3    H1  495   2.226   5.631   3.380
  177TIP3    H2  496   2.157   5.766   3.392
  178TIP3   OH2  497   2.934   5.533   3.766
  178TIP3    H1  498   3.022   5.547   3.800
  178TIP3    H2  499   2.937   5.447   3.725
  179TIP3   OH2  500   6.414   2.844   0.038
  179TIP3    H1  501   6.489   2.799   0.077
  179TIP3    H2  502   6.364   2.877   0.112
  180TIP3   OH2  503   2.211   1.517   1.506
  180TIP3    H1  504   2.242   1.534   1.417
  180TIP3    H2  505   2.142   1.582   1.520
  181TIP3   OH2  506   6.031   5.750   5.320
  181TIP3    H1  507   5.943   5.775   5.349
  181TIP3    H2  508   6.053   5.673   5.373
  182TIP3   OH2  509   0.947   0.426   1.457
  182TIP3    H1  510   0.897   0.344   1.461
  182TIP3    H2  511   1.038   0.399   1.469
  183TIP3   OH2  512   4.020   0.375   2.658
  183TIP3    H1  513   3.993   0.289   2.627
  183TIP3    H2  514   4.116   0.372   2.656
  184TIP3   OH2  515   0.318   4.730   2.010
  184TIP3    H1  516   0.331   4.824   1.993
  184TIP3    H2  517   0.385   4.687   1.956
  185TIP3   OH2  518   4.047   3.555   2.884
  185TIP3    H1  519   4.087   3.470   2.903
  185TIP3    H2  520   4.108   3.598   2.825
  186TIP3   OH2  521   3.165   1.597   2.462
  186TIP3    H1  522   3.242   1.646   2.490
  186TIP3    H2  523   3.188   1.505   2.475
  187TIP3   OH2  524   6.605   4.319   4.229
  187TIP3    H1  525   6.598   4.225   4.214
  187TIP3    H2  526   6.528   4.356   4.184
  188TIP3   OH2  527   2.437   1.372   5.455
  188TIP3    H1  528   2.359   1.382   5.399
  188TIP3    H2  529   2.483   1.297   5.418
  189TIP3   OH2  530   1.679   6.161   0.366
  189TIP3    H1  531   1.755   6.106   0.350
  189TIP3    H2  532   1.703   6.213   0.443
  190TIP3   OH2  533   4.830   3.767   0.060
  190TIP3    H1  534   4.843   3.862   0.065
  190TIP3    H2  535   4.808   3.751  -0.031
  191TIP3   OH2  536   2.110   2.717   1.093
  191TIP3    H1  537   2.183   2.726   1.031
  191TIP3    H2  538   2.053   2.792   1.073
  192TIP3   OH2  539   1.977   0.244   0.804
  192TIP3    H1  540   1.932   0.218   0.724
  192TIP3    H2  541   2.068   0.253   0.779
  193TIP3   OH2  542   4.744   1.380   4.233
  193TIP3    H1  543   4.773   1.311   4.173
  193TIP3    H2  544   4.754   1.342   4.320
  194TIP3   OH2  545   0.962   2.877   5.555
  194TIP3    H1  546   1.050   2.894   5.521
  194TIP3    H2  547   0.911   2.852   5.478
  195TIP3   OH2  548   2.202   1.603   1.131
  195TIP3    H1  549   2.289   1.567   1.148
  195TIP3    H2  550   2.217   1.697   1.120
  196TIP3   OH2  551   0.132   0.518   5.386
  196TIP3    H1  552   0.155   0.606   5.416
  196TIP3    H2  553   0.216   0.476   5.367
  197TIP3   OH2  554   6.718   3.424   3.925
  197TIP3    H1  555   6.753   3.477   3.997
  197TIP3    H2  556   6.756   3.462   3.846
  198TIP3   OH2  557   0.669   4.750   3.790
  198TIP3    H1  558   0.612   4.681   3.757
  198TIP3    H2  559   0.633   4.831   3.753
  199TIP3   OH2  560   6.177   1.900   2.294
  199TIP3    H1  561   6.199   1.883   2.385
  199TIP3    H2  562   6.121   1.977   2.297
  200TIP3   OH2  563   4.084   1.361   4.590
  200TIP3    H1  564   4.093   1.283   4.645
  200TIP3    H2  565   3.993   1.357   4.558
  201TIP3   OH2  566   6.340   6.483   0.043
  201TIP3    H1  567   6.329   6.569   0.002
  201TIP3    H2  568   6.299   6.422  -0.019
  202TIP3   OH2  569   1.044   6.550   0.140
  202TIP3    H1  570   0.981   6.622   0.153
  202TIP3    H2  571   1.070   6.525   0.229
  203TIP3   OH2  572   0.932   4.185   1.743
  203TIP3    H1  573   1.004   4.227   1.790
  203TIP3    H2  574   0.871   4.158   1.812
  204TIP3   OH2  575   2.967   1.089   1.917
  204TIP3    H1  576   2.896   1.067   1.857
  204TIP3    H2  577   2.975   1.184   1.912
  205TIP3   OH2  578   3.102   1.254   3.444
  205TIP3    H1  579   3.041   1.319   3.478
  205TIP3    H2  580   3.188   1.295   3.454
  206TIP3   OH2  581   7.291   4.462   3.579
  206TIP3    H1  582   7.269   4.393   3.642
  206TIP3    H2  583   7.216   4.522   3.582
  207TIP3   OH2  584   7.124   6.777   4.716
  207TIP3    H1  585   7.051   6.716   4.724
  207TIP3    H2  586   7.094   6.857   4.759
  208TIP3   OH2  587   2.955   3.445   0.358
  208TIP3    H1  588   2.966   3.415   0.268
  208TIP3    H2  589   2.869   3.412   0.384
  209TIP3   OH2  590   0.363   4.795   0.215
  209TIP3    H1  591   0.284   4.744   0.197
  209TIP3    H2  592   0.429   4.730   0.238
  210TIP3   OH2  593   1.766   3.982   3.784
  210TIP3    H1  594   1.848   3.940   3.761
  210TIP3    H2  595   1.791   4.058   3.837
  211TIP3   OH2  596   5.803   3.070   1.447
  211TIP3    H1  597   5.711   3.061   1.424
  211TIP3    H2  598   5.803   3.083   1.541
  212TIP3   OH2  599   0.167   5.438   3.613
  212TIP3    H1  600   0.140   5.488   3.690
  212TIP3    H2  601   0.233   5.377   3.646
  213TIP3   OH2  602   1.620   3.237   3.819
  213TIP3    H1  603   1.591   3.225   3.729
  213TIP3    H2  604   1.539   3.252   3.869
  214TIP3   OH2  605   1.678   1.630   1.267
  214TIP3    H1  606   1.732   1.622   1.346
  214TIP3    H2  607   1.638   1.543   1.256
  215TIP3   OH2  608   6.944   1.801   5.115
  215TIP3    H1  609   6.865   1.851   5.136
  215TIP3    H2  610   6.912   1.725   5.067
  216TIP3   OH2  611   5.624   0.786   3.077
  216TIP3    H1  612   5.673   0.739   3.010
  216TIP3    H2  613   5.677   0.779   3.156
  217TIP3   OH2  614   4.437   4.220   5.466
  217TIP3    H1  615   4.418   4.167   5.389
  217TIP3    H2  616   4.359   4.275   5.478
  218TIP3   OH2  617   2.996   3.965   0.027
  218TIP3    H1  618   3.087   3.978   0.000
  218TIP3    H2  619   2.988   3.870   0.038
  219TIP3   OH2  620   4.276   0.920   1.670
  219TIP3    H1  621   4.283   1.014   1.689
  219TIP3    H2  622   4.243   0.915   1.581
  220TIP3   OH2  623   4.026   3.582   5.477
  220TIP3    H1  624   3.998   3.647   5.542
  220TIP3    H2  625   4.113   3.556   5.506
  221TIP3   OH2  626   1.828   4.755   5.627
  221TIP3    H1  627   1.917   4.789   5.638
  221TIP3    H2  628   1.811   4.705   5.707
  222TIP3   OH2  629   1.628   2.706   1.279
  222TIP3    H1  630   1.552   2.754   1.311
  222TIP3    H2  631   1.619   2.618   1.317
  223TIP3   OH2  632   4.161   2.739   4.371
  223TIP3    H1  633   4.148   2.712   4.280
  223TIP3    H2  634   4.209   2.666   4.411
  224TIP3   OH2  635   3.471   5.310   1.164
  224TIP3    H1  636   3.395   5.353   1.206
  224TIP3    H2  637   3.497   5.371   1.095
  225TIP3   OH2  638   4.789   2.074   5.146
  225TIP3    H1  639   4.777   2.146   5.209
  225TIP3    H2  640   4.705   2.030   5.145
  226TIP3   OH2  641   1.894   2.301   0.728
  226TIP3    H1  642   1.807   2.273   0.756
  226TIP3    H2  643   1.898   2.279   0.635
  227TIP3   OH2  644   0.349   6.738   2.190
  227TIP3    H1  645   0.300   6.770   2.115
  227TIP3    H2  646   0.306   6.778   2.266
  228TIP3   OH2  647   5.484   4.776   2.690
  228TIP3    H1  648   5.479   4.709   2.758
  228TIP3    H2  649   5.477   4.859   2.738
  229TIP3   OH2  650   1.259   3.841   1.181
  229TIP3    H1  651   1.261   3.787   1.102
  229TIP3    H2  652   1.253   3.931   1.150
  230TIP3   OH2  653   2.128   1.032   2.097
  230TIP3    H1  654   2.216   1.027   2.059
  230TIP3    H2  655   2.072   0.984   2.037
  231TIP3   OH2  656   4.276   4.179   2.341
  231TIP3    H1  657   4.291   4.265   2.302
  231TIP3    H2  658   4.325   4.181   2.423
  232TIP3   OH2  659   6.316   4.374   4.450
  232TIP3    H1  660   6.309   4.388   4.545
  232TIP3    H2  661   6.352   4.455   4.416
  233TIP3   OH2  662   6.677   4.440   0.576
  233TIP3    H1  663   6.730   4.514   0.548
  233TIP3    H2  664   6.738   4.367   0.582
  234TIP3   OH2  665   2.350   1.898   1.822
  234TIP3    H1  666   2.344   1.889   1.918
  234TIP3    H2  667   2.439   1.869   1.802
  235TIP3   OH2  668   1.077   4.871   4.952
  235TIP3    H1  669   1.158   4.870   5.002
  235TIP3    H2  670   1.103   4.897   4.864
  236TIP3   OH2  671   2.025   2.838   3.195
  236TIP3    H1  672   2.078   2.882   3.129
  236TIP3    H2  673   2.043   2.886   3.276
  237TIP3   OH2  674   4.601   4.073   5.296
  237TIP3    H1  675   4.570   4.050   5.208
  237TIP3    H2  676   4.619   4.167   5.291
  238TIP3   OH2  677   6.340   2.129   4.409
  238TIP3    H1  678   6.382   2.175   4.481
  238TIP3    H2  679   6.288   2.061   4.450
  239TIP3   OH2  680   2.081   1.150   0.673
  239TIP3    H1  681   2.132   1.125   0.597
  239TIP3    H2  682   2.019   1.078   0.685
  240TIP3   OH2  683   5.321   3.913   1.792
  240TIP3    H1  684   5.332   3.950   1.880
  240TIP3    H2  685   5.241   3.861   1.798
  241TIP3   OH2  686   0.460   6.222   2.149
  241TIP3    H1  687   0.517   6.229   2.072
  241TIP3    H2  688   0.382   6.273   2.125
  242TIP3   OH2  689   2.208   4.199   4.717
  242TIP3    H1  690   2.203   4.232   4.807
  242TIP3    H2  691   2.239   4.274   4.666
  243TIP3   OH2  692   2.214   2.566   1.292
  243TIP3    H1  693   2.284   2.611   1.340
  243TIP3    H2  694   2.180   2.633   1.233
  244TIP3   OH2  695   1.376   0.172   1.957
  244TIP3    H1  696   1.294   0.177   1.909
  244TIP3    H2  697   1.360   0.107   2.026
  245TIP3   OH2  698   0.935   4.137   3.289
  245TIP3    H1  699   0.923   4.231   3.304
  245TIP3    H2  700   0.852   4.108   3.250
  246TIP3   OH2  701   5.940   6.523   0.811
  246TIP3    H1  702   5.938   6.519   0.906
  246TIP3    H2  703   5.908   6.437   0.783
  247TIP3   OH2  704   5.069   3.269   4.765
  247TIP3    H1  705   5.091   3.233   4.679
  247TIP3    H2  706   5.049   3.361   4.749
  248TIP3   OH2  707   7.125   6.428   0.651
  248TIP3    H1  708   7.083   6.441   0.735
  248TIP3    H2  709   7.068   6.367   0.604
  249TIP3   OH2  710   1.603   4.496   2.038
  249TIP3    H1  711   1.610   4.585   2.074
  249TIP3    H2  712   1.693   4.467   2.027
  250TIP3   OH2  713   1.227   5.803   0.387
  250TIP3    H1  714   1.310   5.827   0.345
  250TIP3    H2  715   1.173   5.881   0.381
  251TIP3   OH2  716   5.740   6.566   2.993
  251TIP3    H1  717   5.662   6.589   3.043
  251TIP3    H2  718   5.813   6.591   3.050
  252TIP3   OH2  719   0.718   5.049   4.871
  252TIP3    H1  720   0.813   5.044   4.875
  252TIP3    H2  721   0.689   5.040   4.961
  253TIP3   OH2  722   4.186   2.960   2.615
  253TIP3    H1  723   4.186   2.942   2.521
  253TIP3    H2  724   4.167   2.876   2.655
  254TIP3   OH2  725   4.069   4.671   5.313
  254TIP3    H1  726   4.099   4.762   5.307
  254TIP3    H2  727   4.032   4.663   5.401
  255TIP3   OH2  728   3.842   4.444   1.537
  255TIP3    H1  729   3.868   4.469   1.448
  255TIP3    H2  730   3.765   4.388   1.524
  256TIP3   OH2  731   2.199   1.288   2.989
  256TIP3    H1  732   2.169   1.378   3.003
  256TIP3    H2  733   2.241   1.264   3.072
  257TIP3   OH2  734   2.539   6.434   1.212
  257TIP3    H1  735   2.523   6.444   1.306
  257TIP3    H2  736   2.504   6.347   1.191
  258TIP3   OH2  737   4.971   6.312   4.029
  258TIP3    H1  738   4.922   6.291   4.109
  258TIP3    H2  739   5.061   6.323   4.059
  259TIP3   OH2  740   3.042   2.564   5.627
  259TIP3    H1  741   2.949   2.551   5.605
  259TIP3    H2  742   3.044   2.565   5.722
  260TIP3   OH2  743   5.091   3.716   4.122
  260TIP3    H1  744   5.124   3.749   4.206
  260TIP3    H2  745   5.013   3.770   4.105
  261TIP3   OH2  746   2.345   2.206   5.208
  261TIP3    H1  747   2.360   2.193   5.302
  261TIP3    H2  748   2.251   2.218   5.200
  262TIP3   OH2  749   3.123   0.613   2.400
  262TIP3    H1  750   3.181   0.641   2.329
  262TIP3    H2  751   3.077   0.538   2.364
  263TIP3   OH2  752   7.147   1.864   3.036
  263TIP3    H1  753   7.186   1.942   2.998
  263TIP3    H2  754   7.178   1.792   2.981
  264TIP3   OH2  755   4.371   1.478   3.887
  264TIP3    H1  756   4.323   1.548   3.931
  264TIP3    H2  757   4.359   1.402   3.944
  265TIP3   OH2  758   4.651   1.309   1.385
  265TIP3    H1  759   4.707   1.285   1.311
  265TIP3    H2  760   4.569   1.264   1.368
  266TIP3   OH2  761   2.184   1.280   2.240
  266TIP3    H1  762   2.104   1.266   2.291
  266TIP3    H2  763   2.191   1.203   2.184
  267TIP3   OH2  764   2.710   1.758   5.603
  267TIP3    H1  765   2.765   1.821   5.650
  267TIP3    H2  766   2.677   1.806   5.528
  268TIP3   OH2  767   5.760   3.760   2.377
  268TIP3    H1  768   5.763   3.853   2.355
  268TIP3    H2  769   5.851   3.735   2.390
  269TIP3   OH2  770   6.695   4.731   1.005
  269TIP3    H1  771   6.673   4.651   0.958
  269TIP3    H2  772   6.790   4.738   0.997
  270TIP3   OH2  773   5.538   2.145   3.989
  270TIP3    H1  774   5.560   2.138   4.082
  270TIP3    H2  775   5.445   2.166   3.988
  271TIP3   OH2  776   2.109   1.675   5.400
  271TIP3    H1  777   2.094   1.628   5.318
  271TIP3    H2  778   2.149   1.758   5.374
  272TIP3   OH2  779   4.536   5.386   1.402
  272TIP3    H1  780   4.458   5.343   1.368
  272TIP3    H2  781   4.569   5.438   1.328
  273TIP3   OH2  782   3.210   4.046   2.343
  273TIP3    H1  783   3.256   4.105   2.283
  273TIP3    H2  784   3.241   3.959   2.321
  274TIP3   OH2  785   1.760   1.640   4.941
  274TIP3    H1  786   1.697   1.709   4.959
  274TIP3    H2  787   1.734   1.568   4.998
  275TIP3   OH2  788   3.007   4.060   2.007
  275TIP3    H1  789   3.033   4.126   2.072
  275TIP3    H2  790   2.991   4.111   1.927
  276TIP3   OH2  791   3.864   2.419   5.598
  276TIP3    H1  792   3.899   2.430   5.686
  276TIP3    H2  793   3.774   2.387   5.611
  277TIP3   OH2  794   2.466   2.616   1.369
  277TIP3    H1  795   2.488   2.594   1.459
  277TIP3    H2  796   2.548   2.646   1.330
  278TIP3   OH2  797   6.210   3.950   2.567
  278TIP3    H1  798   6.286   3.898   2.592
  278TIP3    H2  799   6.245   4.017   2.508
  279TIP3   OH2  800   4.548   2.898   4.422
  279TIP3    H1  801   4.525   2.805   4.427
  279TIP3    H2  802   4.469   2.943   4.453
  280TIP3   OH2  803   2.510   5.457   2.675
  280TIP3    H1  804   2.579   5.398   2.707
  280TIP3    H2  805   2.446   5.399   2.634
  281TIP3   OH2  806   0.687   6.170   2.523
  281TIP3    H1  807   0.619   6.223   2.564
  281TIP3    H2  808   0.769   6.202   2.561
  282TIP3   OH2  809   5.887   2.243   4.356
  282TIP3    H1  810   5.976   2.255   4.322
  282TIP3    H2  811   5.843   2.326   4.339
  283TIP3   OH2  812   3.149   2.171   3.966
  283TIP3    H1  813   3.202   2.250   3.968
  283TIP3    H2  814   3.123   2.162   3.874
  284TIP3   OH2  815   4.262   2.025   5.084
  284TIP3    H1  816   4.283   2.106   5.130
  284TIP3    H2  817   4.260   2.050   4.991
  285TIP3   OH2  818   4.826   0.782   2.366
  285TIP3    H1  819   4.731   0.771   2.362
  285TIP3    H2  820   4.858   0.701   2.406
  286TIP3   OH2  821   6.354   1.030   3.667
  286TIP3    H1  822   6.445   1.000   3.659
  286TIP3    H2  823   6.357   1.094   3.739
  287TIP3   OH2  824   4.809   5.287   2.284
  287TIP3    H1  825   4.897   5.280   2.247
  287TIP3    H2  826   4.753   5.242   2.221
  288TIP3   OH2  827   5.566   2.823   1.753
  288TIP3    H1  828   5.634   2.759   1.773
  288TIP3    H2  829   5.513   2.782   1.685
  289TIP3   OH2  830   5.209   5.983   3.116
  289TIP3    H1  831   5.205   6.079   3.111
  289TIP3    H2  832   5.253   5.966   3.199
  290TIP3   OH2  833   4.672   1.279   0.836
  290TIP3    H1  834   4.750   1.334   0.826
  290TIP3    H2  835   4.616   1.328   0.896
  291TIP3   OH2  836   6.932   5.896   0.618
  291TIP3    H1  837   6.879   5.911   0.540
  291TIP3    H2  838   7.002   5.837   0.588
  292TIP3   OH2  839   4.992   0.182   3.770
  292TIP3    H1  840   4.960   0.175   3.680
  292TIP3    H2  841   4.920   0.223   3.818
  293TIP3   OH2  842   3.605   3.208   0.684
  293TIP3    H1  843   3.541   3.192   0.615
  293TIP3    H2  844   3.606   3.303   0.694
  294TIP3   OH2  845   6.244   3.305   5.495
  294TIP3    H1  846   6.162   3.335   5.456
  294TIP3    H2  847   6.301   3.289   5.420
  295TIP3   OH2  848   6.384   5.028   2.569
  295TIP3    H1  849   6.358   5.084   2.496
  295TIP3    H2  850   6.350   5.072   2.647
  296TIP3   OH2  851   5.007   5.665   1.816
  296TIP3    H1  852   5.091   5.627   1.791
  296TIP3    H2  853   4.979   5.612   1.891
  297TIP3   OH2  854   4.643   4.207   1.469
  297TIP3    H1  855   4.586   4.276   1.435
  297TIP3    H2  856   4.659   4.233   1.560
  298TIP3   OH2  857   6.272   3.387   1.199
  298TIP3    H1  858   6.294   3.438   1.277
  298TIP3    H2  859   6.183   3.414   1.177
  299TIP3   OH2  860   0.916   0.467   2.493
  299TIP3    H1  861   0.951   0.383   2.523
  299TIP3    H2  862   0.984   0.502   2.435
  300TIP3   OH2  863   0.364   5.265   4.333
  300TIP3    H1  864   0.376   5.170   4.338
  300TIP3    H2  865   0.338   5.281   4.242
  301TIP3   OH2  866   1.997   5.969   4.981
  301TIP3    H1  867   2.014   5.948   5.073
  301TIP3    H2  868   1.948   6.051   4.984
  302TIP3   OH2  869   3.337   4.937   2.250
  302TIP3    H1  870   3.290   4.854   2.257
  302TIP3    H2  871   3.318   4.982   2.333
  303TIP3   OH2  872   3.195   1.188   4.905
  303TIP3    H1  873   3.178   1.264   4.962
  303TIP3    H2  874   3.248   1.224   4.834
  304TIP3   OH2  875   5.959   0.724   5.772
  304TIP3    H1  876   6.043   0.681   5.789
  304TIP3    H2  877   5.911   0.662   5.717
  305TIP3   OH2  878   6.069   5.085   0.067
  305TIP3    H1  879   6.007   5.012   0.070
  305TIP3    H2  880   6.116   5.079   0.150
  306TIP3   OH2  881   0.653   5.895   1.756
  306TIP3    H1  882   0.628   5.955   1.827
  306TIP3    H2  883   0.631   5.942   1.676
  307TIP3   OH2  884   5.817   3.857   3.429
  307TIP3    H1  885   5.778   3.834   3.513
  307TIP3    H2  886   5.847   3.773   3.394
  308TIP3   OH2  887   6.931   4.052   0.789
  308TIP3    H1  888   6.999   3.995   0.753
  308TIP3    H2  889   6.857   3.994   0.806
  309TIP3   OH2  890   6.608   1.199   2.008
  309TIP3    H1  891   6.572   1.178   2.094
  309TIP3    H2  892   6.600   1.118   1.958
  310TIP3   OH2  893   2.551   0.009   2.919
  310TIP3    H1  894   2.634   0.036   2.958
  310TIP3    H2  895   2.563  -0.083   2.896
  311TIP3   OH2  896   4.789   0.076   2.357
  311TIP3    H1  897   4.820  -0.013   2.369
  311TIP3    H2  898   4.706   0.079   2.405
  312TIP3   OH2  899   5.726   5.002   2.286
  312TIP3    H1  900   5.647   4.952   2.305
  312TIP3    H2  901   5.786   4.981   2.357
  313TIP3   OH2  902   1.139   3.572   4.668
  313TIP3    H1  903   1.122   3.497   4.610
  313TIP3    H2  904   1.232   3.567   4.688
  314TIP3   OH2  905   6.114   6.313   4.629
  314TIP3    H1  906   6.029   6.328   4.586
  314TIP3    H2  907   6.102   6.233   4.680
  315TIP3   OH2  908   1.982   3.787   3.470
  315TIP3    H1  909   1.911   3.739   3.428
  315TIP3    H2  910   2.051   3.790   3.404
  316TIP3   OH2  911   1.992   6.519   0.672
  316TIP3    H1  912   2.025   6.601   0.709
  316TIP3    H2  913   2.059   6.454   0.693
  317TIP3   OH2  914   4.881   0.869   5.811
  317TIP3    H1  915   4.849   0.951   5.773
  317TIP3    H2  916   4.959   0.847   5.759
  318TIP3   OH2  917   3.906   0.903   5.000
  318TIP3    H1  918   3.854   0.853   5.062
  318TIP3    H2  919   3.862   0.988   4.994
  319TIP3   OH2  920   1.566   0.417   0.469
  319TIP3    H1  921   1.614   0.474   0.530
  319TIP3    H2  922   1.511   0.362   0.526
  320TIP3   OH2  923   2.873   5.698   5.458
  320TIP3    H1  924   2.860   5.677   5.366
  320TIP3    H2  925   2.886   5.793   5.459
  321TIP3   OH2  926   3.384   1.421   1.744
  321TIP3    H1  927   3.397   1.342   1.797
  321TIP3    H2  928   3.414   1.493   1.800
  322TIP3   OH2  929   4.455   6.082   0.506
  322TIP3    H1  930   4.374   6.047   0.543
  322TIP3    H2  931   4.434   6.173   0.482
  323TIP3   OH2  932   7.131   3.117   5.817
  323TIP3    H1  933   7.163   3.112   5.727
  323TIP3    H2  934   7.189   3.181   5.859
  324TIP3   OH2  935   6.492   6.616   4.912
  324TIP3    H1  936   6.521   6.616   4.821
  324TIP3    H2  937   6.485   6.523   4.934
  325TIP3   OH2  938   2.031   3.880   1.450
  325TIP3    H1  939   2.067   3.792   1.440
  325TIP3    H2  940   2.026   3.914   1.361
  326TIP3   OH2  941   3.774   1.971   3.100
  326TIP3    H1  942   3.749   2.050   3.148
  326TIP3    H2  943   3.727   1.977   3.017
  327TIP3   OH2  944   1.922  -0.024   2.060
  327TIP3    H1  945   1.828  -0.038   2.045
  327TIP3    H2  946   1.942   0.057   2.013
  328TIP3   OH2  947   4.005   4.250   4.829
  328TIP3    H1  948   4.017   4.161   4.861
  328TIP3    H2  949   4.076   4.263   4.766
  329TIP3   OH2  950   3.160   3.575   0.592
  329TIP3    H1  951   3.102   3.511   0.551
  329TIP3    H2  952   3.193   3.628   0.519
  330TIP3   OH2  953   4.523   3.943   0.987
  330TIP3    H1  954   4.611   3.971   0.964
  330TIP3    H2  955   4.490   3.899   0.909
  331TIP3   OH2  956   1.762   0.628   3.726
  331TIP3    H1  957   1.799   0.585   3.803
  331TIP3    H2  958   1.705   0.561   3.687
  332TIP3   OH2  959   3.588   2.154   4.902
  332TIP3    H1  960   3.579   2.188   4.813
  332TIP3    H2  961   3.523   2.201   4.954
  333TIP3   OH2  962   6.506   6.509   2.384
  333TIP3    H1  963   6.421   6.554   2.385
  333TIP3    H2  964   6.570   6.578   2.370
  334TIP3   OH2  965   0.386   6.096   2.371
  334TIP3    H1  966   0.398   6.001   2.370
  334TIP3    H2  967   0.427   6.126   2.290
  335TIP3   OH2  968   5.248   4.831   3.507
  335TIP3    H1  969   5.194   4.767   3.555
  335TIP3    H2  970   5.269   4.898   3.573
  336TIP3   OH2  971   5.223   6.195   0.350
  336TIP3    H1  972   5.193   6.194   0.259
  336TIP3    H2  973   5.303   6.143   0.350
  337TIP3   OH2  974   1.099   0.794   2.722
  337TIP3    H1  975   1.177   0.762   2.678
  337TIP3    H2  976   1.084   0.731   2.793
  338TIP3   OH2  977   0.293   3.527   2.194
  338TIP3    H1  978   0.208   3.556   2.228
  338TIP3    H2  979   0.271   3.479   2.114
  339TIP3   OH2  980   3.736   0.688   1.209
  339TIP3    H1  981   3.711   0.639   1.288
  339TIP3    H2  982   3.659   0.740   1.188
  340TIP3   OH2  983   2.046   3.584   5.246
  340TIP3    H1  984   2.083   3.666   5.277
  340TIP3    H2  985   2.121   3.525   5.240
  341TIP3   OH2  986   0.900   2.782   1.613
  341TIP3    H1  987   0.877   2.875   1.609
  341TIP3    H2  988   0.823   2.740   1.651
  342TIP3   OH2  989   4.105   3.058   4.843
  342TIP3    H1  990   4.165   3.123   4.807
  342TIP3    H2  991   4.140   2.974   4.812
  343TIP3   OH2  992   6.197   0.533   0.901
  343TIP3    H1  993   6.156   0.618   0.920
  343TIP3    H2  994   6.148   0.499   0.826
  344TIP3   OH2  995   6.897   1.741   1.862
  344TIP3    H1  996   6.866   1.673   1.921
  344TIP3    H2  997   6.876   1.823   1.907
  345TIP3   OH2  998   4.416   5.338   5.758
  345TIP3    H1  999   4.365   5.362   5.680
  345TIP3    H2 1000   4.497   5.387   5.750
  346TIP3   OH2 1001   0.689   0.921   3.527
  346TIP3    H1 1002   0.604   0.881   3.509
  346TIP3    H2 1003   0.687   0.942   3.620
  347TIP3   OH2 1004   1.073   4.968   3.855
  347TIP3    H1 1005   1.122   4.970   3.938
  347TIP3    H2 1006   1.132   5.011   3.792
  348TIP3   OH2 1007   5.496   4.143   5.307
  348TIP3    H1 1008   5.458   4.138   5.219
  348TIP3    H2 1009   5.479   4.057   5.345
  349TIP3   OH2 1010   0.312   6.459   1.530
  349TIP3    H1 1011   0.319   6.554   1.544
  349TIP3    H2 1012   0.316   6.421   1.617
  350TIP3   OH2 1013   3.638   3.870   5.832
  350TIP3    H1 1014   3.651   3.796   5.773
  350TIP3    H2 1015   3.689   3.848   5.910
  351TIP3   OH2 1016   5.727   0.965   4.974
  351TIP3    H1 1017   5.657   1.021   5.005
  351TIP3    H2 1018   5.723   0.972   4.878
  352TIP3   OH2 1019   3.050   4.530   1.632
  352TIP3    H1 1020   3.004   4.614   1.631
  352TIP3    H2 1021   3.123   4.544   1.693
  353TIP3   OH2 1022   0.906   4.494   5.707
  353TIP3    H1 1023   0.892   4.524   5.617
  353TIP3    H2 1024   0.820   4.502   5.748
  354TIP3   OH2 1025   4.016   6.585   5.003
  354TIP3    H1 1026   3.994   6.514   5.063
  354TIP3    H2 1027   3.968   6.661   5.036
  355TIP3   OH2 1028   0.246   2.587   4.487
  355TIP3    H1 1029   0.340   2.608   4.494
  355TIP3    H2 1030   0.244   2.494   4.466
  356TIP3   OH2 1031   3.412   2.896   3.921
  356TIP3    H1 1032   3.474   2.965   3.946
  356TIP3    H2 1033   3.417   2.894   3.825
  357TIP3   OH2 1034   2.904   2.082   4.068
  357TIP3    H1 1035   2.987   2.129   4.074
  357TIP3    H2 1036   2.844   2.143   4.025
  358TIP3   OH2 1037   5.657   1.557   4.489
  358TIP3    H1 1038   5.681   1.497   4.559
  358TIP3    H2 1039   5.734   1.559   4.432
  359TIP3   OH2 1040   1.246   6.188   0.133
  359TIP3    H1 1041   1.315   6.228   0.079
  359TIP3    H2 1042   1.284   6.107   0.164
  360TIP3   OH2 1043   2.169   0.566   1.774
  360TIP3    H1 1044   2.136   0.570   1.864
  360TIP3    H2 1045   2.264   0.575   1.782
  361TIP3   OH2 1046   0.502   0.700   5.261
  361TIP3    H1 1047   0.467   0.787   5.238
  361TIP3    H2 1048   0.458   0.677   5.342
  362TIP3   OH2 1049   0.314   6.116   3.498
  362TIP3    H1 1050   0.409   6.107   3.502
  362TIP3    H2 1051   0.287   6.062   3.423
  363TIP3   OH2 1052   2.801   2.982   5.564
  363TIP3    H1 1053   2.826   2.963   5.474
  363TIP3    H2 1054   2.709   3.008   5.559
  364TIP3   OH2 1055   2.587   3.178   4.480
  364TIP3    H1 1056   2.568   3.267   4.509
  364TIP3    H2 1057   2.530   3.164   4.405
  365TIP3   OH2 1058   0.775   4.495   2.301
  365TIP3    H1 1059   0.864   4.464   2.286
  365TIP3    H2 1060   0.744   4.443   2.375
  366TIP3   OH2 1061   4.895   1.921   3.229
  366TIP3    H1 1062   4.853   1.959   3.306
  366TIP3    H2 1063   4.845   1.955   3.155
  367TIP3   OH2 1064   5.265   5.540   2.773
  367TIP3    H1 1065   5.224   5.560   2.857
  367TIP3    H2 1066   5.329   5.471   2.793
  368TIP3   OH2 1067   6.775   6.628   4.388
  368TIP3    H1 1068   6.770   6.570   4.464
  368TIP3    H2 1069   6.844   6.590   4.334
  369TIP3   OH2 1070   5.410   1.130   0.738
  369TIP3    H1 1071   5.410   1.042   0.699
  369TIP3    H2 1072   5.489   1.132   0.792
  370TIP3   OH2 1073   7.009   0.919   2.121
  370TIP3    H1 1074   6.981   0.989   2.063
  370TIP3    H2 1075   7.058   0.859   2.065
  371TIP3   OH2 1076   3.628   5.667   4.297
  371TIP3    H1 1077   3.655   5.605   4.229
  371TIP3    H2 1078   3.549   5.629   4.334
  372TIP3   OH2 1079   7.001   5.351   2.662
  372TIP3    H1 1080   6.999   5.300   2.581
  372TIP3    H2 1081   7.068   5.309   2.716
  373TIP3   OH2 1082   3.057   1.089   5.275
  373TIP3    H1 1083   2.993   1.128   5.216
  373TIP3    H2 1084   3.010   1.016   5.317
  374TIP3   OH2 1085   1.901   4.579   5.200
  374TIP3    H1 1086   1.885   4.552   5.290
  374TIP3    H2 1087   1.996   4.571   5.188
  375TIP3   OH2 1088   3.065   2.903   0.592
  375TIP3    H1 1089   3.041   2.995   0.578
  375TIP3    H2 1090   3.161   2.902   0.581
  376TIP3   OH2 1091   0.896   5.691   4.153
  376TIP3    H1 1092   0.948   5.613   4.170
  376TIP3    H2 1093   0.944   5.762   4.198
  377TIP3   OH2 1094   6.661   1.625   5.216
  377TIP3    H1 1095   6.618   1.543   5.190
  377TIP3    H2 1096   6.657   1.680   5.137
  378TIP3   OH2 1097   0.528   3.777   3.307
  378TIP3    H1 1098   0.474   3.699   3.315
  378TIP3    H2 1099   0.613   3.752   3.345
  379TIP3   OH2 1100   6.727   4.794   4.395
  379TIP3    H1 1101   6.773   4.797   4.479
  379TIP3    H2 1102   6.649   4.741   4.413
  380TIP3   OH2 1103   5.871   4.693   0.568
  380TIP3    H1 1104   5.927   4.619   0.592
  380TIP3    H2 1105   5.799   4.690   0.631
  381TIP3   OH2 1106   5.331   4.078   0.964
  381TIP3    H1 1107   5.426   4.077   0.968
  381TIP3    H2 1108   5.303   4.022   1.037
  382TIP3   OH2 1109   2.832   1.177   2.170
  382TIP3    H1 1110   2.830   1.263   2.129
  382TIP3    H2 1111   2.859   1.117   2.100
  383TIP3   OH2 1112   1.760   5.642   4.387
  383TIP3    H1 1113   1.855   5.651   4.376
  383TIP3    H2 1114   1.745   5.655   4.480
  384TIP3   OH2 1115   3.372   6.377   0.372
  384TIP3    H1 1116   3.383   6.319   0.297
  384TIP3    H2 1117   3.395   6.323   0.448
  385TIP3   OH2 1118   7.079   6.277   0.037
  385TIP3    H1 1119   7.149   6.332   0.002
  385TIP3    H2 1120   7.041   6.330   0.108
  386TIP3   OH2 1121   4.835   5.731   5.850
  386TIP3    H1 1122   4.801   5.809   5.807
  386TIP3    H2 1123   4.915   5.710   5.802
  387TIP3   OH2 1124   6.773   3.923   3.570
  387TIP3    H1 1125   6.703   3.872   3.529
  387TIP3    H2 1126   6.759   4.013   3.539
  388TIP3   OH2 1127   3.484   4.039   1.145
  388TIP3    H1 1128   3.533   4.048   1.063
  388TIP3    H2 1129   3.540   3.984   1.200
  389TIP3   OH2 1130   1.914   1.853   2.422
  389TIP3    H1 1131   1.911   1.897   2.337
  389TIP3    H2 1132   1.917   1.760   2.400
  390TIP3   OH2 1133   0.472   1.172   3.917
  390TIP3    H1 1134   0.393   1.148   3.870
  390TIP3    H2 1135   0.441   1.203   4.002
  391TIP3   OH2 1136   0.505   2.222   0.684
  391TIP3    H1 1137   0.480   2.258   0.599
  391TIP3    H2 1138   0.483   2.129   0.679
  392TIP3   OH2 1139   1.786   5.138   4.933
  392TIP3    H1 1140   1.740   5.056   4.918
  392TIP3    H2 1141   1.817   5.164   4.847
  393TIP3   OH2 1142   2.232   3.357   5.396
  393TIP3    H1 1143   2.193   3.300   5.329
  393TIP3    H2 1144   2.326   3.357   5.375
  394TIP3   OH2 1145   0.201   5.126   0.556
  394TIP3    H1 1146   0.160   5.192   0.612
  394TIP3    H2 1147   0.276   5.171   0.516
  395TIP3   OH2 1148   4.877   4.385   3.764
  395TIP3    H1 1149   4.836   4.458   3.809
  395TIP3    H2 1150   4.887   4.415   3.673
  396TIP3   OH2 1151   1.526   5.087   5.102
  396TIP3    H1 1152   1.526   5.022   5.032
  396TIP3    H2 1153   1.619   5.102   5.121
  397TIP3   OH2 1154   0.360   2.099   2.824
  397TIP3    H1 1155   0.416   2.091   2.747
  397TIP3    H2 1156   0.337   2.191   2.829
  398TIP3   OH2 1157   1.014   1.662   4.685
  398TIP3    H1 1158   0.939   1.720   4.674
  398TIP3    H2 1159   1.063   1.701   4.757
  399TIP3   OH2 1160   2.730   5.287   5.677
  399TIP3    H1 1161   2.737   5.274   5.583
  399TIP3    H2 1162   2.680   5.211   5.708
  400TIP3   OH2 1163   1.290   0.624   1.315
  400TIP3    H1 1164   1.295   0.626   1.219
  400TIP3    H2 1165   1.380   0.615   1.344
  401TIP3   OH2 1166   0.714   1.401   4.123
  401TIP3    H1 1167   0.680   1.390   4.034
  401TIP3    H2 1168   0.638   1.428   4.174
  402TIP3   OH2 1169   4.071   1.222   2.390
  402TIP3    H1 1170   4.026   1.298   2.428
  402TIP3    H2 1171   4.001   1.168   2.355
  403TIP3   OH2 1172   1.666   3.823   0.491
  403TIP3    H1 1173   1.649   3.792   0.580
  403TIP3    H2 1174   1.579   3.837   0.454
  404TIP3   OH2 1175   7.052   3.586   2.761
  404TIP3    H1 1176   7.060   3.590   2.856
  404TIP3    H2 1177   7.127   3.533   2.733
  405TIP3   OH2 1178   0.533   3.357   2.296
  405TIP3    H1 1179   0.616   3.403   2.304
  405TIP3    H2 1180   0.467   3.427   2.291
  406TIP3   OH2 1181   6.815   1.909   1.116
  406TIP3    H1 1182   6.828   1.869   1.202
  406TIP3    H2 1183   6.900   1.900   1.073
  407TIP3   OH2 1184   5.756   2.316   2.267
  407TIP3    H1 1185   5.792   2.248   2.324
  407TIP3    H2 1186   5.662   2.300   2.268
  408TIP3   OH2 1187   0.712   4.297   3.574
  408TIP3    H1 1188   0.682   4.213   3.542
  408TIP3    H2 1189   0.689   4.359   3.505
  409TIP3   OH2 1190   1.071   3.902   0.920
  409TIP3    H1 1191   1.147   3.848   0.901
  409TIP3    H2 1192   1.104   3.972   0.977
  410TIP3   OH2 1193   3.269   3.745   1.200
  410TIP3    H1 1194   3.216   3.704   1.268
  410TIP3    H2 1195   3.358   3.710   1.214
  411TIP3   OH2 1196   4.522   4.278   0.766
  411TIP3    H1 1197   4.464   4.269   0.842
  411TIP3    H2 1198   4.595   4.330   0.798
  412TIP3   OH2 1199   2.537   0.188   4.106
  412TIP3    H1 1200   2.561   0.147   4.023
  412TIP3    H2 1201   2.495   0.270   4.082
  413TIP3   OH2 1202   5.572   3.541   3.063
  413TIP3    H1 1203   5.621   3.621   3.081
  413TIP3    H2 1204   5.484   3.559   3.093
  414TIP3   OH2 1205   3.100   0.890   0.035
  414TIP3    H1 1206   3.081   0.972  -0.009
  414TIP3    H2 1207   3.123   0.915   0.125
  415TIP3   OH2 1208   5.380   1.605   3.818
  415TIP3    H1 1209   5.376   1.686   3.767
  415TIP3    H2 1210   5.317   1.547   3.777
  416TIP3   OH2 1211   6.100   4.879   1.796
  416TIP3    H1 1212   6.063   4.793   1.817
  416TIP3    H2 1213   6.194   4.862   1.784
  417TIP3   OH2 1214   6.057   0.864   5.457
  417TIP3    H1 1215   5.991   0.795   5.447
  417TIP3    H2 1216   6.139   0.816   5.467
  418TIP3   OH2 1217   6.719   5.114   3.443
  418TIP3    H1 1218   6.708   5.086   3.352
  418TIP3    H2 1219   6.672   5.048   3.494
  419TIP3   OH2 1220   3.921   0.886   1.653
  419TIP3    H1 1221   3.857   0.886   1.581
  419TIP3    H2 1222   3.988   0.823   1.626
  420TIP3   OH2 1223   5.766   4.431   2.429
  420TIP3    H1 1224   5.848   4.480   2.434
  420TIP3    H2 1225   5.703   4.495   2.396
  421TIP3   OH2 1226   6.774   3.889   4.638
  421TIP3    H1 1227   6.730   3.963   4.680
  421TIP3    H2 1228   6.709   3.819   4.638
  422TIP3   OH2 1229   2.428   6.632   0.714
  422TIP3    H1 1230   2.486   6.627   0.790
  422TIP3    H2 1231   2.485   6.610   0.640
  423TIP3   OH2 1232   6.157   1.420   2.478
  423TIP3    H1 1233   6.150   1.377   2.393
  423TIP3    H2 1234   6.251   1.434   2.491
  424TIP3   OH2 1235   4.759   3.636   2.385
  424TIP3    H1 1236   4.767   3.542   2.396
  424TIP3    H2 1237   4.827   3.673   2.441
  425TIP3   OH2 1238   2.005   4.130   2.502
  425TIP3    H1 1239   1.914   4.160   2.496
  425TIP3    H2 1240   2.000   4.035   2.487
  426TIP3   OH2 1241   4.134   0.539   4.194
  426TIP3    H1 1242   4.218   0.573   4.161
  426TIP3    H2 1243   4.113   0.595   4.268
  427TIP3   OH2 1244   0.318   5.574   1.230
  427TIP3    H1 1245   0.407   5.554   1.260
  427TIP3    H2 1246   0.298   5.659   1.269
  428TIP3   OH2 1247   0.477   5.471   3.093
  428TIP3    H1 1248   0.546   5.534   3.073
  428TIP3    H2 1249   0.496   5.396   3.036
  429TIP3   OH2 1250   1.187   0.762   4.210
  429TIP3    H1 1251   1.251   0.763   4.281
  429TIP3    H2 1252   1.216   0.831   4.150
  430TIP3   OH2 1253   0.305   5.762   5.432
  430TIP3    H1 1254   0.338   5.738   5.518
  430TIP3    H2 1255   0.288   5.856   5.438
  431TIP3   OH2 1256   1.781   6.252   5.666
  431TIP3    H1 1257   1.775   6.164   5.629
  431TIP3    H2 1258   1.736   6.245   5.751
  432TIP3   OH2 1259   3.360   5.862   5.558
  432TIP3    H1 1260   3.445   5.831   5.527
  432TIP3    H2 1261   3.342   5.940   5.507
  433TIP3   OH2 1262   5.539   4.016   5.833
  433TIP3    H1 1263   5.459   3.998   5.784
  433TIP3    H2 1264   5.528   4.105   5.867
  434TIP3   OH2 1265   3.574   2.157   4.611
  434TIP3    H1 1266   3.586   2.250   4.589
  434TIP3    H2 1267   3.514   2.124   4.544
  435TIP3   OH2 1268   0.180   5.312   0.094
  435TIP3    H1 1269   0.216   5.233   0.134
  435TIP3    H2 1270   0.088   5.313   0.120
  436TIP3   OH2 1271   4.477   0.319   5.648
  436TIP3    H1 1272   4.534   0.315   5.724
  436TIP3    H2 1273   4.535   0.300   5.574
  437TIP3   OH2 1274   4.198   1.766   1.361
  437TIP3    H1 1275   4.242   1.698   1.413
  437TIP3    H2 1276   4.262   1.789   1.294
  438TIP3   OH2 1277   6.855   4.321   5.777
  438TIP3    H1 1278   6.833   4.281   5.693
  438TIP3    H2 1279   6.774   4.362   5.807
  439TIP3   OH2 1280   4.301   1.929   0.138
  439TIP3    H1 1281   4.360   1.943   0.063
  439TIP3    H2 1282   4.223   1.891   0.099
  440TIP3   OH2 1283   6.723   3.585   2.595
  440TIP3    H1 1284   6.692   3.603   2.506
  440TIP3    H2 1285   6.786   3.655   2.613
  441TIP3   OH2 1286   3.507   2.299   5.245
  441TIP3    H1 1287   3.580   2.357   5.226
  441TIP3    H2 1288   3.429   2.350   5.222
  442TIP3   OH2 1289   6.374   1.847   1.064
  442TIP3    H1 1290   6.411   1.929   1.096
  442TIP3    H2 1291   6.442   1.809   1.009
  443TIP3   OH2 1292   4.893   5.923   2.663
  443TIP3    H1 1293   4.927   5.876   2.586
  443TIP3    H2 1294   4.870   6.009   2.630
  444TIP3   OH2 1295   6.422   2.297   2.419
  444TIP3    H1 1296   6.377   2.375   2.451
  444TIP3    H2 1297   6.486   2.277   2.487
  445TIP3   OH2 1298   3.343   4.566   3.385
  445TIP3    H1 1299   3.264   4.620   3.377
  445TIP3    H2 1300   3.399   4.596   3.313
  446TIP3   OH2 1301   5.007   0.030   2.905
  446TIP3    H1 1302   5.071   0.100   2.919
  446TIP3    H2 1303   5.014   0.010   2.811
  447TIP3   OH2 1304   5.369   4.418   4.676
  447TIP3    H1 1305   5.299   4.384   4.732
  447TIP3    H2 1306   5.355   4.375   4.592
  448TIP3   OH2 1307   6.641   5.690   2.281
  448TIP3    H1 1308   6.712   5.626   2.285
  448TIP3    H2 1309   6.561   5.638   2.285
  449TIP3   OH2 1310   1.447   2.324   5.703
  449TIP3    H1 1311   1.446   2.383   5.627
  449TIP3    H2 1312   1.355   2.307   5.722
  450TIP3   OH2 1313   6.070   3.200   1.566
  450TIP3    H1 1314   6.001   3.164   1.511
  450TIP3    H2 1315   6.148   3.201   1.510
  451TIP3   OH2 1316   2.582   0.260   1.526
  451TIP3    H1 1317   2.501   0.233   1.482
  451TIP3    H2 1318   2.647   0.266   1.457
  452TIP3   OH2 1319   4.336   1.012   3.944
  452TIP3    H1 1320   4.418   0.968   3.964
  452TIP3    H2 1321   4.271   0.972   4.003
  453TIP3   OH2 1322   6.729   1.244   3.744
  453TIP3    H1 1323   6.765   1.281   3.825
  453TIP3    H2 1324   6.672   1.313   3.710
  454TIP3   OH2 1325   1.103   2.275   1.602
  454TIP3    H1 1326   1.169   2.331   1.642
  454TIP3    H2 1327   1.148   2.192   1.585
  455TIP3   OH2 1328   4.676   5.273   3.530
  455TIP3    H1 1329   4.621   5.337   3.487
  455TIP3    H2 1330   4.688   5.203   3.465
  456TIP3   OH2 1331   6.065   0.299   5.142
  456TIP3    H1 1332   6.050   0.293   5.048
  456TIP3    H2 1333   5.989   0.257   5.181
  457TIP3   OH2 1334   2.461   2.106   1.289
  457TIP3    H1 1335   2.410   2.069   1.217
  457TIP3    H2 1336   2.402   2.169   1.330
  458TIP3   OH2 1337   3.106   2.657   1.233
  458TIP3    H1 1338   3.172   2.619   1.175
  458TIP3    H2 1339   3.092   2.745   1.199
  459TIP3   OH2 1340   1.600   0.766   3.878
  459TIP3    H1 1341   1.583   0.684   3.925
  459TIP3    H2 1342   1.659   0.740   3.807
  460TIP3   OH2 1343   5.334   3.883   3.739
  460TIP3    H1 1344   5.281   3.963   3.742
  460TIP3    H2 1345   5.336   3.853   3.830
  461TIP3   OH2 1346   3.474   0.999   1.338
  461TIP3    H1 1347   3.404   0.960   1.390
  461TIP3    H2 1348   3.428   1.055   1.274
  462TIP3   OH2 1349   4.834   1.673   5.626
  462TIP3    H1 1350   4.802   1.746   5.572
  462TIP3    H2 1351   4.808   1.595   5.578
  463TIP3   OH2 1352   3.796   2.162   4.375
  463TIP3    H1 1353   3.860   2.228   4.348
  463TIP3    H2 1354   3.718   2.180   4.322
  464TIP3   OH2 1355   2.078   4.384   3.158
  464TIP3    H1 1356   2.086   4.345   3.071
  464TIP3    H2 1357   2.162   4.365   3.200
  465TIP3   OH2 1358   7.110   3.641   5.180
  465TIP3    H1 1359   7.120   3.571   5.244
  465TIP3    H2 1360   7.067   3.712   5.228
  466TIP3   OH2 1361   5.807   0.914   2.316
  466TIP3    H1 1362   5.875   0.901   2.250
  466TIP3    H2 1363   5.752   0.836   2.310
  467TIP3   OH2 1364   6.959   1.973   2.042
  467TIP3    H1 1365   6.914   2.034   2.100
  467TIP3    H2 1366   7.043   1.957   2.086
  468TIP3   OH2 1367   3.725   3.572   0.047
  468TIP3    H1 1368   3.684   3.622   0.117
  468TIP3    H2 1369   3.803   3.533   0.087
  469TIP3   OH2 1370   1.391   3.273   0.012
  469TIP3    H1 1371   1.383   3.277   0.108
  469TIP3    H2 1372   1.305   3.302  -0.020
  470TIP3   OH2 1373   3.635   0.321   3.241
  470TIP3    H1 1374   3.614   0.280   3.157
  470TIP3    H2 1375   3.624   0.415   3.225
  471TIP3   OH2 1376   4.868   6.562   3.264
  471TIP3    H1 1377   4.915   6.547   3.346
  471TIP3    H2 1378   4.834   6.651   3.272
  472TIP3   OH2 1379   5.981   5.793   3.883
  472TIP3    H1 1380   6.014   5.859   3.945
  472TIP3    H2 1381   6.058   5.767   3.832
  473TIP3   OH2 1382   2.570   5.040   0.799
  473TIP3    H1 1383   2.517   5.103   0.750
  473TIP3    H2 1384   2.508   4.970   0.821
  474TIP3   OH2 1385   6.047   4.410   3.903
  474TIP3    H1 1386   6.022   4.320   3.883
  474TIP3    H2 1387   5.968   4.451   3.938
  475TIP3   OH2 1388   4.877   2.886   1.935
  475TIP3    H1 1389   4.881   2.881   1.840
  475TIP3    H2 1390   4.899   2.976   1.956
  476TIP3   OH2 1391   6.774   1.058   1.449
  476TIP3    H1 1392   6.706   0.991   1.448
  476TIP3    H2 1393   6.770   1.098   1.362
  477TIP3   OH2 1394   4.920   5.010   4.453
  477TIP3    H1 1395   4.990   5.070   4.478
  477TIP3    H2 1396   4.848   5.030   4.513
  478TIP3   OH2 1397   4.030   0.062   3.375
  478TIP3    H1 1398   4.001   0.129   3.314
  478TIP3    H2 1399   4.000  -0.020   3.335
  479TIP3   OH2 1400   1.336   4.185   3.351
  479TIP3    H1 1401   1.309   4.254   3.290
  479TIP3    H2 1402   1.325   4.224   3.438
  480TIP3   OH2 1403   0.295   0.146   3.813
  480TIP3    H1 1404   0.338   0.061   3.823
  480TIP3    H2 1405   0.335   0.184   3.734
  481TIP3   OH2 1406   3.001   1.203   0.210
  481TIP3    H1 1407   2.966   1.291   0.226
  481TIP3    H2 1408   3.095   1.217   0.200
  482TIP3   OH2 1409   0.249   0.944   2.570
  482TIP3    H1 1410   0.331   0.894   2.560
  482TIP3    H2 1411   0.210   0.943   2.483
  483TIP3   OH2 1412   4.733   5.437   3.751
  483TIP3    H1 1413   4.717   5.383   3.673
  483TIP3    H2 1414   4.815   5.403   3.787
  484TIP3   OH2 1415   2.192   5.271   0.893
  484TIP3    H1 1416   2.227   5.219   0.820
  484TIP3    H2 1417   2.203   5.362   0.864
  485TIP3   OH2 1418   1.011   5.241   5.296
  485TIP3    H1 1419   0.923   5.250   5.259
  485TIP3    H2 1420   1.068   5.235   5.220
  486TIP3   OH2 1421   4.687   4.670   0.330
  486TIP3    H1 1422   4.606   4.666   0.381
  486TIP3    H2 1423   4.745   4.724   0.383
  487TIP3   OH2 1424   0.551   5.120   1.788
  487TIP3    H1 1425   0.456   5.113   1.802
  487TIP3    H2 1426   0.578   5.191   1.846
  488TIP3   OH2 1427   1.354   2.054   2.967
  488TIP3    H1 1428   1.302   2.115   2.914
  488TIP3    H2 1429   1.324   1.968   2.940
  489TIP3   OH2 1430   6.980   5.197   5.851
  489TIP3    H1 1431   7.034   5.254   5.796
  489TIP3    H2 1432   6.941   5.134   5.791
  490TIP3   OH2 1433   7.000   1.564   1.372
  490TIP3    H1 1434   6.946   1.636   1.340
  490TIP3    H2 1435   6.974   1.552   1.463
  491TIP3   OH2 1436   6.264   5.280   4.578
  491TIP3    H1 1437   6.351   5.241   4.587
  491TIP3    H2 1438   6.214   5.216   4.528
  492TIP3   OH2 1439   2.326   4.892   0.535
  492TIP3    H1 1440   2.234   4.870   0.546
  492TIP3    H2 1441   2.373   4.816   0.571
  493TIP3   OH2 1442   2.590   0.927   1.052
  493TIP3    H1 1443   2.625   1.015   1.035
  493TIP3    H2 1444   2.524   0.915   0.984
  494TIP3   OH2 1445   1.777   0.223   2.853
  494TIP3    H1 1446   1.811   0.310   2.869
  494TIP3    H2 1447   1.781   0.179   2.938
  495TIP3   OH2 1448   4.714   6.267   3.266
  495TIP3    H1 1449   4.737   6.181   3.230
  495TIP3    H2 1450   4.782   6.325   3.232
  496TIP3   OH2 1451   7.188   5.380   2.916
  496TIP3    H1 1452   7.219   5.470   2.930
  496TIP3    H2 1453   7.176   5.345   3.004
  497TIP3   OH2 1454   3.747   0.610   5.668
  497TIP3    H1 1455   3.704   0.542   5.719
  497TIP3    H2 1456   3.830   0.626   5.713
  498TIP3   OH2 1457   2.750   6.003   2.358
  498TIP3    H1 1458   2.760   5.956   2.275
  498TIP3    H2 1459   2.820   6.069   2.357
  499TIP3   OH2 1460   1.281   4.320   3.583
  499TIP3    H1 1461   1.312   4.337   3.672
  499TIP3    H2 1462   1.195   4.363   3.579
  500TIP3   OH2 1463   4.753   3.758   1.664
  500TIP3    H1 1464   4.717   3.823   1.723
  500TIP3    H2 1465   4.688   3.749   1.594
  501TIP3   OH2 1466   2.331   1.621   5.566
  501TIP3    H1 1467   2.239   1.603   5.546
  501TIP3    H2 1468   2.376   1.540   5.544
  502TIP3   OH2 1469   3.219   0.649   5.139
  502TIP3    H1 1470   3.227   0.682   5.050
  502TIP3    H2 1471   3.127   0.626   5.149
  503TIP3   OH2 1472   3.761   2.526   4.853
  503TIP3    H1 1473   3.815   2.590   4.899
  503TIP3    H2 1474   3.710   2.579   4.791
  504TIP3   OH2 1475   2.305   6.036   4.274
  504TIP3    H1 1476   2.253   6.069   4.201
  504TIP3    H2 1477   2.250   5.969   4.315
  505TIP3   OH2 1478   0.079   0.166   2.618
  505TIP3    H1 1479   0.152   0.228   2.620
  505TIP3    H2 1480   0.062   0.150   2.525
  506TIP3   OH2 1481   1.372   6.693   3.838
  506TIP3    H1 1482   1.357   6.598   3.845
  506TIP3    H2 1483   1.302   6.732   3.889
  507TIP3   OH2 1484   4.164   0.790   5.624
  507TIP3    H1 1485   4.224   0.731   5.670
  507TIP3    H2 1486   4.200   0.877   5.638
  508TIP3   OH2 1487   6.104   2.987   2.697
  508TIP3    H1 1488   6.159   3.065   2.703
  508TIP3    H2 1489   6.087   2.963   2.789
  509TIP3   OH2 1490   2.877   5.849   2.674
  509TIP3    H1 1491   2.924   5.929   2.699
  509TIP3    H2 1492   2.803   5.845   2.735
  510TIP3   OH2 1493   4.992   0.228   4.622
  510TIP3    H1 1494   4.936   0.270   4.688
  510TIP3    H2 1495   4.944   0.148   4.598
  511TIP3   OH2 1496   5.901   3.977   2.250
  511TIP3    H1 1497   5.977   4.027   2.280
  511TIP3    H2 1498   5.832   4.043   2.239
  512TIP3   OH2 1499   3.964   5.919   4.895
  512TIP3    H1 1500   3.877   5.882   4.881
  512TIP3    H2 1501   3.958   5.963   4.980
  513TIP3   OH2 1502   2.059   0.417   3.052
  513TIP3    H1 1503   1.976   0.464   3.061
  513TIP3    H2 1504   2.077   0.416   2.959
  514TIP3   OH2 1505   1.655   3.190   5.753
  514TIP3    H1 1506   1.621   3.278   5.738
  514TIP3    H2 1507   1.581   3.141   5.787
  515TIP3   OH2 1508   0.657   2.914   2.002
  515TIP3    H1 1509   0.644   2.820   1.999
  515TIP3    H2 1510   0.612   2.947   1.924
  516TIP3   OH2 1511   0.741   6.081   3.251
  516TIP3    H1 1512   0.705   6.122   3.173
  516TIP3    H2 1513   0.704   5.992   3.250
  517TIP3   OH2 1514   3.515   2.846   1.751
  517TIP3    H1 1515   3.515   2.941   1.748
  517TIP3    H2 1516   3.586   2.819   1.693
  518TIP3   OH2 1517   0.843   5.049   2.579
  518TIP3    H1 1518   0.861   5.126   2.633
  518TIP3    H2 1519   0.873   5.073   2.492
  519TIP3   OH2 1520   3.612   3.197   5.593
  519TIP3    H1 1521   3.672   3.270   5.610
  519TIP3    H2 1522   3.661   3.140   5.534
  520TIP3   OH2 1523   3.916   5.375   3.950
  520TIP3    H1 1524   3.996   5.361   3.900
  520TIP3    H2 1525   3.919   5.466   3.977
  521TIP3   OH2 1526   1.946   1.369   1.483
  521TIP3    H1 1527   1.933   1.434   1.552
  521TIP3    H2 1528   2.039   1.372   1.464
  522TIP3   OH2 1529   0.504   0.770   3.788
  522TIP3    H1 1530   0.570   0.796   3.853
  522TIP3    H2 1531   0.427   0.824   3.809
  523TIP3   OH2 1532   2.734   2.966   4.420
  523TIP3    H1 1533   2.730   3.033   4.352
  523TIP3    H2 1534   2.686   3.003   4.494
  524TIP3   OH2 1535   2.077   6.071   0.794
  524TIP3    H1 1536   2.164   6.110   0.789
  524TIP3    H2 1537   2.035   6.092   0.711
  525TIP3   OH2 1538   2.473   3.275   5.055
  525TIP3    H1 1539   2.550   3.292   5.002
  525TIP3    H2 1540   2.496   3.198   5.108
  526TIP3   OH2 1541   2.712   2.366   4.866
  526TIP3    H1 1542   2.671   2.297   4.917
  526TIP3    H2 1543   2.788   2.393   4.918
  527TIP3   OH2 1544   0.819   4.043   1.282
  527TIP3    H1 1545   0.881   3.973   1.303
  527TIP3    H2 1546   0.821   4.100   1.359
  528TIP3   OH2 1547   3.081   2.219   2.775
  528TIP3    H1 1548   3.036   2.135   2.767
  528TIP3    H2 1549   3.101   2.244   2.685
  529TIP3   OH2 1550   4.657   3.323   5.627
  529TIP3    H1 1551   4.572   3.366   5.622
  529TIP3    H2 1552   4.699   3.361   5.704
  530TIP3   OH2 1553   5.026   5.257   3.351
  530TIP3    H1 1554   5.011   5.214   3.435
  530TIP3    H2 1555   5.000   5.192   3.286
  531TIP3   OH2 1556   5.003   4.847   5.571
  531TIP3    H1 1557   5.052   4.768   5.549
  531TIP3    H2 1558   5.068   4.917   5.572
  532TIP3   OH2 1559   2.024   4.058   4.597
  532TIP3    H1 1560   1.959   4.085   4.661
  532TIP3    H2 1561   2.107   4.095   4.629
  533TIP3   OH2 1562   2.721   0.331   2.816
  533TIP3    H1 1563   2.687   0.356   2.901
  533TIP3    H2 1564   2.659   0.367   2.753
  534TIP3   OH2 1565   6.120   1.768   4.379
  534TIP3    H1 1566   6.166   1.824   4.441
  534TIP3    H2 1567   6.055   1.826   4.338
  535TIP3   OH2 1568   0.061   5.571   0.660
  535TIP3    H1 1569   0.130   5.514   0.625
  535TIP3    H2 1570  -0.002   5.510   0.700
  536TIP3   OH2 1571   4.091   1.548   0.460
  536TIP3    H1 1572   4.006   1.561   0.503
  536TIP3    H2 1573   4.092   1.455   0.437
  537TIP3   OH2 1574   6.767   0.872   0.224
  537TIP3    H1 1575   6.719   0.936   0.278
  537TIP3    H2 1576   6.722   0.789   0.239
  538TIP3   OH2 1577   4.921   0.906   1.198
  538TIP3    H1 1578   4.974   0.850   1.255
  538TIP3    H2 1579   4.876   0.845   1.139
  539TIP3   OH2 1580   0.331   4.604   4.640
  539TIP3    H1 1581   0.355   4.525   4.592
  539TIP3    H2 1582   0.236   4.597   4.653
  540TIP3   OH2 1583   0.449   5.147   0.821
  540TIP3    H1 1584   0.482   5.166   0.734
  540TIP3    H2 1585   0.513   5.087   0.860
  541TIP3   OH2 1586   0.128   0.674   2.198
  541TIP3    H1 1587   0.103   0.751   2.147
  541TIP3    H2 1588   0.216   0.695   2.231
  542TIP3   OH2 1589   3.295   3.671   1.723
  542TIP3    H1 1590   3.293   3.684   1.629
  542TIP3    H2 1591   3.221   3.722   1.756
  543TIP3   OH2 1592   1.073   2.284   1.180
  543TIP3    H1 1593   1.082   2.249   1.091
  543TIP3    H2 1594   0.980   2.302   1.190
  544TIP3   OH2 1595   3.658   5.926   1.216
  544TIP3    H1 1596   3.614   5.866   1.156
  544TIP3    H2 1597   3.590   5.951   1.279
  545TIP3   OH2 1598   3.457   5.895   0.186
  545TIP3    H1 1599   3.386   5.848   0.230
  545TIP3    H2 1600   3.520   5.912   0.256
  546TIP3   OH2 1601   5.081   5.954   2.190
  546TIP3    H1 1602   5.156   5.899   2.168
  546TIP3    H2 1603   5.044   5.979   2.106
  547TIP3   OH2 1604   2.432   4.887   2.607
  547TIP3    H1 1605   2.521   4.907   2.637
  547TIP3    H2 1606   2.420   4.795   2.627
  548TIP3   OH2 1607   3.862   4.856   4.343
  548TIP3    H1 1608   3.935   4.918   4.348
  548TIP3    H2 1609   3.788   4.909   4.314
  549TIP3   OH2 1610   5.296   0.883   0.230
  549TIP3    H1 1611   5.231   0.918   0.169
  549TIP3    H2 1612   5.248   0.820   0.283
  550TIP3   OH2 1613   3.701   1.117   2.026
  550TIP3    H1 1614   3.792   1.116   1.998
  550TIP3    H2 1615   3.654   1.067   1.960
  551TIP3   OH2 1616   0.639   5.481   5.703
  551TIP3    H1 1617   0.598   5.526   5.629
  551TIP3    H2 1618   0.727   5.459   5.672
  552TIP3   OH2 1619   2.570   0.445   4.352
  552TIP3    H1 1620   2.545   0.366   4.304
  552TIP3    H2 1621   2.486   0.486   4.375
  553TIP3   OH2 1622   7.067   4.985   5.270
  553TIP3    H1 1623   7.160   4.974   5.251
  553TIP3    H2 1624   7.036   5.047   5.204
  554TIP3   OH2 1625   1.482   3.594   4.036
  554TIP3    H1 1626   1.557   3.635   3.994
  554TIP3    H2 1627   1.415   3.590   3.968
  555TIP3   OH2 1628   4.367   6.786   2.454
  555TIP3    H1 1629   4.389   6.876   2.430
  555TIP3    H2 1630   4.451   6.747   2.477
  556TIP3   OH2 1631   1.119   4.971   0.766
  556TIP3    H1 1632   1.099   5.026   0.842
  556TIP3    H2 1633   1.068   5.009   0.695
  557TIP3   OH2 1634   5.271   3.663   0.991
  557TIP3    H1 1635   5.261   3.735   1.054
  557TIP3    H2 1636   5.327   3.600   1.035
  558TIP3   OH2 1637   2.917   6.502   1.812
  558TIP3    H1 1638   2.871   6.547   1.882
  558TIP3    H2 1639   2.937   6.571   1.749
  559TIP3   OH2 1640   4.929   0.840   1.699
  559TIP3    H1 1641   4.877   0.919   1.713
  559TIP3    H2 1642   4.890   0.799   1.622
  560TIP3   OH2 1643   3.574   3.661   1.274
  560TIP3    H1 1644   3.509   3.593   1.289
  560TIP3    H2 1645   3.570   3.678   1.180
  561TIP3   OH2 1646   2.993   2.933   3.418
  561TIP3    H1 1647   2.928   2.900   3.356
  561TIP3    H2 1648   3.033   3.008   3.374
  562TIP3   OH2 1649   5.793   4.404   3.370
  562TIP3    H1 1650   5.769   4.333   3.428
  562TIP3    H2 1651   5.856   4.365   3.309
  563TIP3   OH2 1652   2.674   4.234   2.725
  563TIP3    H1 1653   2.605   4.240   2.791
  563TIP3    H2 1654   2.635   4.268   2.645
  564TIP3   OH2 1655   1.441   5.358   5.082
  564TIP3    H1 1656   1.506   5.389   5.145
  564TIP3    H2 1657   1.456   5.264   5.075
  565TIP3   OH2 1658   3.504   5.814   1.021
  565TIP3    H1 1659   3.432   5.867   0.988
  565TIP3    H2 1660   3.570   5.816   0.951
  566TIP3   OH2 1661   4.250   0.708   2.886
  566TIP3    H1 1662   4.199   0.669   2.957
  566TIP3    H2 1663   4.321   0.755   2.930
  567TIP3   OH2 1664   5.164   0.426   0.468
  567TIP3    H1 1665   5.209   0.417   0.552
  567TIP3    H2 1666   5.072   0.414   0.489
  568TIP3   OH2 1667   4.005   0.616   1.170
  568TIP3    H1 1668   4.042   0.612   1.081
  568TIP3    H2 1669   3.920   0.658   1.159
  569TIP3   OH2 1670   2.559   5.491   1.193
  569TIP3    H1 1671   2.564   5.413   1.249
  569TIP3    H2 1672   2.465   5.504   1.180
  570TIP3   OH2 1673   6.620   0.370   2.324
  570TIP3    H1 1674   6.589   0.303   2.263
  570TIP3    H2 1675   6.566   0.357   2.403
  571TIP3   OH2 1676   2.521   5.834   4.863
  571TIP3    H1 1677   2.551   5.759   4.811
  571TIP3    H2 1678   2.568   5.909   4.826
  572TIP3   OH2 1679   3.131   4.987   4.364
  572TIP3    H1 1680   3.039   4.994   4.391
  572TIP3    H2 1681   3.137   5.039   4.284
  573TIP3   OH2 1682   3.594   5.731   0.007
  573TIP3    H1 1683   3.523   5.763   0.062
  573TIP3    H2 1684   3.561   5.739  -0.082
  574TIP3   OH2 1685   2.476   2.825   4.385
  574TIP3    H1 1686   2.462   2.909   4.342
  574TIP3    H2 1687   2.549   2.786   4.338
  575TIP3   OH2 1688   1.119   1.295   4.927
  575TIP3    H1 1689   1.037   1.269   4.969
  575TIP3    H2 1690   1.165   1.347   4.993
  576TIP3   OH2 1691   2.836   1.436   1.449
  576TIP3    H1 1692   2.877   1.427   1.363
  576TIP3    H2 1693   2.890   1.501   1.494
  577TIP3   OH2 1694   5.801   5.170   3.392
  577TIP3    H1 1695   5.877   5.166   3.335
  577TIP3    H2 1696   5.741   5.231   3.349
  578TIP3   OH2 1697   6.867   4.745   3.595
  578TIP3    H1 1698   6.873   4.817   3.533
  578TIP3    H2 1699   6.902   4.780   3.677
  579TIP3   OH2 1700   3.221   2.543   1.525
  579TIP3    H1 1701   3.183   2.605   1.463
  579TIP3    H2 1702   3.244   2.467   1.471
  580TIP3   OH2 1703   6.033   4.005   5.230
  580TIP3    H1 1704   6.015   3.913   5.248
  580TIP3    H2 1705   6.089   4.003   5.152
  581TIP3   OH2 1706   4.260   5.336   2.424
  581TIP3    H1 1707   4.254   5.258   2.479
  581TIP3    H2 1708   4.302   5.306   2.344
  582TIP3   OH2 1709   2.402   1.613   0.787
  582TIP3    H1 1710   2.427   1.581   0.701
  582TIP3    H2 1711   2.322   1.565   0.809
  583TIP3   OH2 1712   0.256   5.025   0.168
  583TIP3    H1 1713   0.220   5.009   0.081
  583TIP3    H2 1714   0.314   4.951   0.183
  584TIP3   OH2 1715   0.700   5.743   2.242
  584TIP3    H1 1716   0.701   5.723   2.149
  584TIP3    H2 1717   0.608   5.732   2.267
  585TIP3   OH2 1718   4.727   3.576   1.113
  585TIP3    H1 1719   4.721   3.488   1.075
  585TIP3    H2 1720   4.727   3.635   1.038
  586TIP3   OH2 1721   1.998   3.981   5.683
  586TIP3    H1 1722   2.048   4.052   5.724
  586TIP3    H2 1723   1.912   4.019   5.665
  587TIP3   OH2 1724   1.050   5.803   2.729
  587TIP3    H1 1725   1.131   5.752   2.738
  587TIP3    H2 1726   0.991   5.747   2.679
  588TIP3   OH2 1727   6.513   5.919   0.970
  588TIP3    H1 1728   6.531   5.917   1.064
  588TIP3    H2 1729   6.525   5.828   0.942
  589TIP3   OH2 1730   2.968   1.944   1.579
  589TIP3    H1 1731   2.947   1.986   1.662
  589TIP3    H2 1732   2.895   1.886   1.561
  590TIP3   OH2 1733   6.511   3.989   0.219
  590TIP3    H1 1734   6.512   3.994   0.314
  590TIP3    H2 1735   6.498   3.897   0.199
  591TIP3   OH2 1736   5.592   1.967   1.291
  591TIP3    H1 1737   5.674   2.005   1.258
  591TIP3    H2 1738   5.578   2.009   1.376
  592TIP3   OH2 1739   6.822   6.376   5.050
  592TIP3    H1 1740   6.871   6.379   4.968
  592TIP3    H2 1741   6.882   6.410   5.115
  593TIP3   OH2 1742   1.524   2.891   2.139
  593TIP3    H1 1743   1.431   2.912   2.137
  593TIP3    H2 1744   1.536   2.841   2.219
  594TIP3   OH2 1745   0.318   3.975   1.626
  594TIP3    H1 1746   0.358   3.975   1.713
  594TIP3    H2 1747   0.392   3.970   1.566
  595TIP3   OH2 1748   0.278   2.608   0.119
  595TIP3    H1 1749   0.349   2.557   0.159
  595TIP3    H2 1750   0.322   2.684   0.080
  596TIP3   OH2 1751   0.956   6.039   4.533
  596TIP3    H1 1752   0.969   6.055   4.439
  596TIP3    H2 1753   0.943   5.944   4.540
  597TIP3   OH2 1754   3.064   0.556   0.312
  597TIP3    H1 1755   3.089   0.465   0.322
  597TIP3    H2 1756   2.986   0.553   0.256
  598TIP3   OH2 1757   1.296   3.764   3.336
  598TIP3    H1 1758   1.258   3.850   3.319
  598TIP3    H2 1759   1.280   3.715   3.255
  599TIP3   OH2 1760   0.715   3.406   4.790
  599TIP3    H1 1761   0.810   3.410   4.783
  599TIP3    H2 1762   0.690   3.332   4.734
  600TIP3   OH2 1763   2.307   2.002   0.376
  600TIP3    H1 1764   2.397   2.032   0.370
  600TIP3    H2 1765   2.312   1.918   0.423
  601TIP3   OH2 1766   6.552   1.744   2.882
  601TIP3    H1 1767   6.637   1.739   2.926
  601TIP3    H2 1768   6.563   1.811   2.815
  602TIP3   OH2 1769   3.531   0.497   1.869
  602TIP3    H1 1770   3.447   0.467   1.902
  602TIP3    H2 1771   3.510   0.542   1.787
  603TIP3   OH2 1772   3.219   3.868   5.115
  603TIP3    H1 1773   3.176   3.925   5.179
  603TIP3    H2 1774   3.195   3.779   5.143
  604TIP3   OH2 1775   6.434   4.284   3.603
  604TIP3    H1 1776   6.518   4.253   3.568
  604TIP3    H2 1777   6.371   4.263   3.534
  605TIP3   OH2 1778   2.045   6.329   0.185
  605TIP3    H1 1779   2.053   6.293   0.273
  605TIP3    H2 1780   2.027   6.422   0.199
  606TIP3   OH2 1781   5.583   2.776   5.589
  606TIP3    H1 1782   5.650   2.842   5.575
  606TIP3    H2 1783   5.538   2.769   5.505
  607TIP3   OH2 1784   0.643   2.441   4.457
  607TIP3    H1 1785   0.606   2.464   4.371
  607TIP3    H2 1786   0.735   2.422   4.438
  608TIP3   OH2 1787   5.941   3.903   4.110
  608TIP3    H1 1788   5.961   3.905   4.203
  608TIP3    H2 1789   5.862   3.956   4.102
  609TIP3   OH2 1790   6.592   4.200   0.055
  609TIP3    H1 1791   6.534   4.274   0.041
  609TIP3    H2 1792   6.545   4.144   0.118
  610TIP3   OH2 1793   3.673   2.192   1.331
  610TIP3    H1 1794   3.608   2.220   1.395
  610TIP3    H2 1795   3.653   2.241   1.252
  611TIP3   OH2 1796   0.149   4.950   5.002
  611TIP3    H1 1797   0.122   4.992   5.083
  611TIP3    H2 1798   0.068   4.919   4.962
  612TIP3   OH2 1799   2.866   5.542   0.412
  612TIP3    H1 1800   2.842   5.599   0.484
  612TIP3    H2 1801   2.959   5.524   0.426
  613TIP3   OH2 1802   4.093   0.492   3.682
  613TIP3    H1 1803   3.999   0.476   3.694
  613TIP3    H2 1804   4.101   0.588   3.685
  614TIP3   OH2 1805   1.354   6.486   2.291
  614TIP3    H1 1806   1.439   6.525   2.311
  614TIP3    H2 1807   1.333   6.517   2.203
  615TIP3   OH2 1808   5.198   4.727   2.112
  615TIP3    H1 1809   5.156   4.653   2.067
  615TIP3    H2 1810   5.291   4.711   2.102
  616TIP3   OH2 1811   5.489   3.072   0.970
  616TIP3    H1 1812   5.448   3.029   0.896
  616TIP3    H2 1813   5.526   3.153   0.934
  617TIP3   OH2 1814   2.248   6.461   2.374
  617TIP3    H1 1815   2.327   6.488   2.327
  617TIP3    H2 1816   2.276   6.385   2.425
  618TIP3   OH2 1817   6.918   5.562   2.382
  618TIP3    H1 1818   6.882   5.501   2.318
  618TIP3    H2 1819   6.934   5.510   2.460
  619TIP3   OH2 1820   3.214   2.602   3.350
  619TIP3    H1 1821   3.169   2.518   3.342
  619TIP3    H2 1822   3.160   2.652   3.412
  620TIP3   OH2 1823   2.949   2.863   4.229
  620TIP3    H1 1824   3.008   2.914   4.174
  620TIP3    H2 1825   2.921   2.924   4.297
  621TIP3   OH2 1826   2.003   1.851   5.789
  621TIP3    H1 1827   2.031   1.781   5.848
  621TIP3    H2 1828   1.931   1.812   5.738
  622TIP3   OH2 1829   4.948   1.352   0.946
  622TIP3    H1 1830   4.901   1.298   1.009
  622TIP3    H2 1831   5.040   1.339   0.967
  623TIP3   OH2 1832   5.011   0.531   2.517
  623TIP3    H1 1833   5.040   0.471   2.586
  623TIP3    H2 1834   4.916   0.537   2.528
  624TIP3   OH2 1835   4.202   5.005   1.149
  624TIP3    H1 1836   4.201   5.093   1.111
  624TIP3    H2 1837   4.141   5.010   1.222
  625TIP3   OH2 1838   5.253   3.254   2.269
  625TIP3    H1 1839   5.312   3.201   2.216
  625TIP3    H2 1840   5.303   3.275   2.348
  626TIP3   OH2 1841   6.319   0.866   4.138
  626TIP3    H1 1842   6.255   0.916   4.189
  626TIP3    H2 1843   6.306   0.776   4.167
  627TIP3   OH2 1844   4.175   6.336   1.198
  627TIP3    H1 1845   4.143   6.375   1.279
  627TIP3    H2 1846   4.270   6.331   1.210
  628TIP3   OH2 1847   6.880   6.442   5.648
  628TIP3    H1 1848   6.813   6.378   5.672
  628TIP3    H2 1849   6.926   6.402   5.574
  629TIP3   OH2 1850   0.487   5.424   3.468
  629TIP3    H1 1851   0.473   5.478   3.546
  629TIP3    H2 1852   0.581   5.405   3.469
  630TIP3   OH2 1853   0.519   1.885   1.598
  630TIP3    H1 1854   0.595   1.880   1.657
  630TIP3    H2 1855   0.557   1.905   1.513
  631TIP3   OH2 1856   4.813   2.806   1.502
  631TIP3    H1 1857   4.759   2.729   1.481
  631TIP3    H2 1858   4.751   2.873   1.529
  632TIP3   OH2 1859   6.413  -0.007   4.286
  632TIP3    H1 1860   6.442   0.080   4.260
  632TIP3    H2 1861   6.385   0.003   4.377
  633TIP3   OH2 1862   5.467   1.251   4.763
  633TIP3    H1 1863   5.556   1.273   4.734
  633TIP3    H2 1864   5.473   1.252   4.859
  634TIP3   OH2 1865   2.702   2.417   5.450
  634TIP3    H1 1866   2.623   2.463   5.422
  634TIP3    H2 1867   2.771   2.450   5.392
  635TIP3   OH2 1868   5.693   2.987   3.262
  635TIP3    H1 1869   5.750   2.982   3.339
  635TIP3    H2 1870   5.611   2.946   3.291
  636TIP3   OH2 1871   3.626   3.378   5.312
  636TIP3    H1 1872   3.619   3.473   5.326
  636TIP3    H2 1873   3.692   3.350   5.375
  637TIP3   OH2 1874   5.120   6.485   4.413
  637TIP3    H1 1875   5.090   6.397   4.437
  637TIP3    H2 1876   5.067   6.544   4.467
  638TIP3   OH2 1877   0.529   3.281   5.480
  638TIP3    H1 1878   0.599   3.229   5.441
  638TIP3    H2 1879   0.515   3.353   5.418
  639TIP3   OH2 1880   5.444   4.007   4.634
  639TIP3    H1 1881   5.365   3.966   4.598
  639TIP3    H2 1882   5.516   3.968   4.585
  640TIP3   OH2 1883   4.377   1.040   2.198
  640TIP3    H1 1884   4.445   0.974   2.212
  640TIP3    H2 1885   4.342   1.021   2.111
  641TIP3   OH2 1886   5.525   0.910   1.385
  641TIP3    H1 1887   5.607   0.953   1.412
  641TIP3    H2 1888   5.508   0.846   1.454
  642TIP3   OH2 1889   6.931   3.140   2.280
  642TIP3    H1 1890   6.874   3.131   2.204
  642TIP3    H2 1891   6.885   3.203   2.336
  643TIP3   OH2 1892   1.642   2.755   0.515
  643TIP3    H1 1893   1.710   2.819   0.538
  643TIP3    H2 1894   1.687   2.671   0.518
  644TIP3   OH2 1895   1.973   4.765   4.836
  644TIP3    H1 1896   1.913   4.748   4.909
  644TIP3    H2 1897   1.930   4.835   4.786
  645TIP3   OH2 1898   6.305   0.422   1.345
  645TIP3    H1 1899   6.309   0.332   1.312
  645TIP3    H2 1900   6.300   0.412   1.440
  646TIP3   OH2 1901   6.118   3.954   5.769
  646TIP3    H1 1902   6.043   3.912   5.727
  646TIP3    H2 1903   6.098   4.047   5.767
  647TIP3   OH2 1904   5.471   5.255   0.879
  647TIP3    H1 1905   5.414   5.179   0.861
  647TIP3    H2 1906   5.551   5.237   0.830
  648TIP3   OH2 1907   6.943   3.786   2.602
  648TIP3    H1 1908   6.986   3.721   2.659
  648TIP3    H2 1909   6.968   3.870   2.640
  649TIP3   OH2 1910   0.495   5.301   4.990
  649TIP3    H1 1911   0.529   5.219   5.027
  649TIP3    H2 1912   0.482   5.282   4.898
  650TIP3   OH2 1913   0.972   0.108   4.973
  650TIP3    H1 1914   0.882   0.113   5.003
  650TIP3    H2 1915   0.976   0.169   4.900
  651TIP3   OH2 1916   2.638   1.206   4.402
  651TIP3    H1 1917   2.722   1.199   4.447
  651TIP3    H2 1918   2.662   1.229   4.312
  652TIP3   OH2 1919   3.650   1.731   1.529
  652TIP3    H1 1920   3.745   1.736   1.532
  652TIP3    H2 1921   3.623   1.792   1.461
  653TIP3   OH2 1922   6.247   5.035   4.968
  653TIP3    H1 1923   6.184   4.964   4.978
  653TIP3    H2 1924   6.236   5.064   4.878
  654TIP3   OH2 1925   1.688   2.412   4.031
  654TIP3    H1 1926   1.639   2.447   4.105
  654TIP3    H2 1927   1.651   2.458   3.955
  655TIP3   OH2 1928   5.628   3.666   5.740
  655TIP3    H1 1929   5.533   3.682   5.744
  655TIP3    H2 1930   5.651   3.634   5.827
  656TIP3   OH2 1931   3.016   6.295   2.008
  656TIP3    H1 1932   2.986   6.366   1.950
  656TIP3    H2 1933   3.111   6.295   1.998
  657TIP3   OH2 1934   5.577   4.395   5.446
  657TIP3    H1 1935   5.534   4.326   5.394
  657TIP3    H2 1936   5.523   4.402   5.525
  658TIP3   OH2 1937   3.129   4.761   3.368
  658TIP3    H1 1938   3.158   4.764   3.277
  658TIP3    H2 1939   3.163   4.843   3.406
  659TIP3   OH2 1940   5.000   5.287   5.658
  659TIP3    H1 1941   4.968   5.370   5.622
  659TIP3    H2 1942   4.921   5.241   5.684
  660TIP3   OH2 1943   1.449   2.865   2.877
  660TIP3    H1 1944   1.465   2.937   2.938
  660TIP3    H2 1945   1.443   2.787   2.933
  661TIP3   OH2 1946   5.431   2.873   5.375
  661TIP3    H1 1947   5.338   2.852   5.383
  661TIP3    H2 1948   5.434   2.947   5.315
  662TIP3   OH2 1949   0.401   3.343   0.769
  662TIP3    H1 1950   0.325   3.292   0.741
  662TIP3    H2 1951   0.428   3.301   0.851
  663TIP3   OH2 1952   1.714   0.072   3.462
  663TIP3    H1 1953   1.743   0.149   3.511
  663TIP3    H2 1954   1.792   0.039   3.419
  664TIP3   OH2 1955   6.102   0.882   4.567
  664TIP3    H1 1956   6.058   0.849   4.645
  664TIP3    H2 1957   6.156   0.809   4.536
  665TIP3   OH2 1958   4.035   2.485   4.091
  665TIP3    H1 1959   4.029   2.438   4.174
  665TIP3    H2 1960   4.032   2.578   4.116
  666TIP3   OH2 1961   3.188   1.177   3.197
  666TIP3    H1 1962   3.193   1.264   3.157
  666TIP3    H2 1963   3.168   1.194   3.289
  667TIP3   OH2 1964   1.338   6.023   1.761
  667TIP3    H1 1965   1.433   6.020   1.772
  667TIP3    H2 1966   1.322   5.977   1.679
  668TIP3   OH2 1967   5.186   0.725   1.012
  668TIP3    H1 1968   5.268   0.696   1.052
  668TIP3    H2 1969   5.153   0.648   0.966
  669TIP3   OH2 1970   3.383   3.507   1.916
  669TIP3    H1 1971   3.336   3.561   1.979
  669TIP3    H2 1972   3.370   3.551   1.832
  670TIP3   OH2 1973   6.340   4.758   2.413
  670TIP3    H1 1974   6.285   4.767   2.491
  670TIP3    H2 1975   6.279   4.760   2.340
  671TIP3   OH2 1976   2.901   4.826   2.854
  671TIP3    H1 1977   2.946   4.768   2.793
  671TIP3    H2 1978   2.871   4.768   2.925
  672TIP3   OH2 1979   3.460   5.070   0.489
  672TIP3    H1 1980   3.419   4.991   0.454
  672TIP3    H2 1981   3.510   5.040   0.564
  673TIP3   OH2 1982   0.633   0.665   1.567
  673TIP3    H1 1983   0.672   0.688   1.483
  673TIP3    H2 1984   0.624   0.748   1.613
  674TIP3   OH2 1985   6.034   5.309   3.868
  674TIP3    H1 1986   5.949   5.325   3.909
  674TIP3    H2 1987   6.015   5.245   3.799
  675TIP3   OH2 1988   0.140   5.889   1.100
  675TIP3    H1 1989   0.134   5.940   1.020
  675TIP3    H2 1990   0.127   5.952   1.170
  676TIP3   OH2 1991   4.186   5.402   3.344
  676TIP3    H1 1992   4.256   5.467   3.342
  676TIP3    H2 1993   4.112   5.446   3.385
  677TIP3   OH2 1994   1.633   0.147   3.769
  677TIP3    H1 1995   1.648   0.063   3.813
  677TIP3    H2 1996   1.713   0.162   3.718
  678TIP3   OH2 1997   4.208   2.945   3.851
  678TIP3    H1 1998   4.220   2.956   3.946
  678TIP3    H2 1999   4.134   2.884   3.844
  679TIP3   OH2 2000   0.686   4.671   4.972
  679TIP3    H1 2001   0.740   4.676   4.893
  679TIP3    H2 2002   0.596   4.670   4.940
  680TIP3   OH2 2003   0.483   5.439   1.042
  680TIP3    H1 2004   0.412   5.375   1.049
  680TIP3    H2 2005   0.540   5.419   1.116
  681TIP3   OH2 2006   6.606   4.116   1.762
  681TIP3    H1 2007   6.617   4.211   1.764
  681TIP3    H2 2008   6.690   4.081   1.791
  682TIP3   OH2 2009   2.628   3.105   3.100
  682TIP3    H1 2010   2.592   3.177   3.048
  682TIP3    H2 2011   2.613   3.132   3.191
  683TIP3   OH2 2012   6.692   5.788   0.318
  683TIP3    H1 2013   6.614   5.796   0.374
  683TIP3    H2 2014   6.742   5.867   0.337
  684TIP3   OH2 2015   4.686   0.319   4.663
  684TIP3    H1 2016   4.594   0.343   4.664
  684TIP3    H2 2017   4.729   0.382   4.721
  685TIP3   OH2 2018   2.582   5.606   0.030
  685TIP3    H1 2019   2.648   5.624   0.097
  685TIP3    H2 2020   2.626   5.551  -0.034
  686TIP3   OH2 2021   0.580   4.203   1.581
  686TIP3    H1 2022   0.557   4.234   1.493
  686TIP3    H2 2023   0.581   4.107   1.572
  687TIP3   OH2 2024   2.812   3.029   3.709
  687TIP3    H1 2025   2.843   3.110   3.669
  687TIP3    H2 2026   2.877   2.963   3.684
  688TIP3   OH2 2027   1.831   5.658   2.977
  688TIP3    H1 2028   1.848   5.726   2.913
  688TIP3    H2 2029   1.752   5.613   2.945
  689TIP3   OH2 2030   2.738   1.070   0.202
  689TIP3    H1 2031   2.685   1.149   0.212
  689TIP3    H2 2032   2.828   1.102   0.196
  690TIP3   OH2 2033   3.971   0.327   3.312
  690TIP3    H1 2034   3.890   0.369   3.342
  690TIP3    H2 2035   4.020   0.397   3.270
  691TIP3   OH2 2036   2.655   3.203   1.929
  691TIP3    H1 2037   2.597   3.225   1.857
  691TIP3    H2 2038   2.629   3.262   2.000
  692TIP3   OH2 2039   1.338   0.101   4.328
  692TIP3    H1 2040   1.277   0.033   4.298
  692TIP3    H2 2041   1.317   0.177   4.274
  693TIP3   OH2 2042   4.126   0.430   0.276
  693TIP3    H1 2043   4.169   0.366   0.219
  693TIP3    H2 2044   4.054   0.465   0.223
  694TIP3   OH2 2045   7.014   2.007   5.335
  694TIP3    H1 2046   7.008   1.997   5.430
  694TIP3    H2 2047   6.958   2.082   5.315
  695TIP3   OH2 2048   5.526   0.055   4.297
  695TIP3    H1 2049   5.511  -0.028   4.252
  695TIP3    H2 2050   5.463   0.116   4.257
  696TIP3   OH2 2051   5.642   4.144   0.859
  696TIP3    H1 2052   5.640   4.152   0.955
  696TIP3    H2 2053   5.647   4.050   0.842
  697TIP3   OH2 2054   5.960   3.295   5.471
  697TIP3    H1 2055   5.902   3.364   5.437
  697TIP3    H2 2056   5.903   3.241   5.525
  698TIP3   OH2 2057   3.147   5.572   4.822
  698TIP3    H1 2058   3.133   5.483   4.854
  698TIP3    H2 2059   3.087   5.626   4.874
  699TIP3   OH2 2060   6.956   4.675   2.688
  699TIP3    H1 2061   6.868   4.672   2.725
  699TIP3    H2 2062   7.013   4.688   2.764
  700TIP3   OH2 2063   5.853   4.820   2.482
  700TIP3    H1 2064   5.819   4.771   2.557
  700TIP3    H2 2065   5.899   4.894   2.521
  701TIP3   OH2 2066   6.852   0.254   2.743
  701TIP3    H1 2067   6.934   0.207   2.735
  701TIP3    H2 2068   6.850   0.313   2.667
  702TIP3   OH2 2069   1.744   4.618   5.882
  702TIP3    H1 2070   1.679   4.624   5.813
  702TIP3    H2 2071   1.781   4.530   5.873
  703TIP3   OH2 2072   4.580   1.371   2.163
  703TIP3    H1 2073   4.516   1.307   2.196
  703TIP3    H2 2074   4.592   1.433   2.235
  704TIP3   OH2 2075   3.402   6.188   4.823
  704TIP3    H1 2076   3.321   6.137   4.827
  704TIP3    H2 2077   3.464   6.139   4.878
  705TIP3   OH2 2078   1.887   6.407   3.146
  705TIP3    H1 2079   1.888   6.312   3.139
  705TIP3    H2 2080   1.857   6.425   3.235
  706TIP3   OH2 2081   1.975   4.348   2.334
  706TIP3    H1 2082   2.024   4.294   2.396
  706TIP3    H2 2083   2.002   4.316   2.248
  707TIP3   OH2 2084   3.270   6.658   2.559
  707TIP3    H1 2085   3.214   6.727   2.524
  707TIP3    H2 2086   3.212   6.608   2.617
  708TIP3   OH2 2087   6.390   2.733   4.840
  708TIP3    H1 2088   6.362   2.786   4.765
  708TIP3    H2 2089   6.480   2.762   4.857
  709TIP3   OH2 2090   3.748   5.157   3.837
  709TIP3    H1 2091   3.665   5.174   3.880
  709TIP3    H2 2092   3.800   5.237   3.851
  710TIP3   OH2 2093   2.314   6.372   3.579
  710TIP3    H1 2094   2.273   6.350   3.663
  710TIP3    H2 2095   2.363   6.453   3.596
  711TIP3   OH2 2096   3.524   6.576   2.481
  711TIP3    H1 2097   3.553   6.537   2.563
  711TIP3    H2 2098   3.431   6.592   2.494
  712TIP3   OH2 2099   0.722   1.788   1.803
  712TIP3    H1 2100   0.708   1.715   1.742
  712TIP3    H2 2101   0.698   1.753   1.889
  713TIP3   OH2 2102   0.120   3.605   5.023
  713TIP3    H1 2103   0.031   3.611   5.059
  713TIP3    H2 2104   0.129   3.685   4.970
  714TIP3   OH2 2105   0.572   4.883   1.452
  714TIP3    H1 2106   0.601   4.792   1.449
  714TIP3    H2 2107   0.648   4.934   1.425
  715TIP3   OH2 2108   5.704   2.762   2.362
  715TIP3    H1 2109   5.692   2.857   2.352
  715TIP3    H2 2110   5.694   2.727   2.274
  716TIP3   OH2 2111   2.137   3.278   3.860
  716TIP3    H1 2112   2.109   3.317   3.777
  716TIP3    H2 2113   2.122   3.184   3.849
  717TIP3   OH2 2114   4.143   0.384   5.532
  717TIP3    H1 2115   4.164   0.353   5.620
  717TIP3    H2 2116   4.050   0.408   5.537
  718TIP3   OH2 2117   3.710   0.983   2.684
  718TIP3    H1 2118   3.675   0.894   2.689
  718TIP3    H2 2119   3.791   0.974   2.634
  719TIP3   OH2 2120   4.991   4.461   0.810
  719TIP3    H1 2121   5.058   4.417   0.758
  719TIP3    H2 2122   5.031   4.545   0.835
  720TIP3   OH2 2123   4.821   6.092   0.280
  720TIP3    H1 2124   4.784   6.028   0.220
  720TIP3    H2 2125   4.838   6.169   0.225
  721TIP3   OH2 2126   5.071   4.377   2.339
  721TIP3    H1 2127   5.047   4.284   2.348
  721TIP3    H2 2128   5.043   4.400   2.250
  722TIP3   OH2 2129   0.085   3.262   2.502
  722TIP3    H1 2130   0.178   3.244   2.515
  722TIP3    H2 2131   0.056   3.197   2.439
  723TIP3   OH2 2132   4.486   5.218   4.448
  723TIP3    H1 2133   4.437   5.154   4.395
  723TIP3    H2 2134   4.549   5.256   4.386
  724TIP3   OH2 2135   5.887   5.060   1.045
  724TIP3    H1 2136   5.944   5.123   1.088
  724TIP3    H2 2137   5.808   5.057   1.099
  725TIP3   OH2 2138   4.075   3.234   0.914
  725TIP3    H1 2139   4.106   3.209   0.826
  725TIP3    H2 2140   4.085   3.329   0.916
  726TIP3   OH2 2141   7.007   3.146   3.251
  726TIP3    H1 2142   7.040   3.233   3.229
  726TIP3    H2 2143   7.000   3.146   3.347
  727TIP3   OH2 2144   3.865   1.032   4.014
  727TIP3    H1 2145   3.855   1.073   4.100
  727TIP3    H2 2146   3.856   1.105   3.952
  728TIP3   OH2 2147   1.931   1.501   5.545
  728TIP3    H1 2148   1.972   1.562   5.484
  728TIP3    H2 2149   2.000   1.478   5.607
  729TIP3   OH2 2150   4.382   6.644   5.500
  729TIP3    H1 2151   4.349   6.731   5.481
  729TIP3    H2 2152   4.374   6.596   5.418
  730TIP3   OH2 2153   5.319   5.659   3.281
  730TIP3    H1 2154   5.242   5.622   3.326
  730TIP3    H2 2155   5.373   5.694   3.352
  731TIP3   OH2 2156   3.534   6.637   3.704
  731TIP3    H1 2157   3.479   6.615   3.629
  731TIP3    H2 2158   3.475   6.635   3.779
  732TIP3   OH2 2159   2.317   2.137   2.633
  732TIP3    H1 2160   2.353   2.222   2.608
  732TIP3    H2 2161   2.292   2.096   2.550
  733TIP3   OH2 2162   5.268   4.922   3.109
  733TIP3    H1 2163   5.274   4.964   3.194
  733TIP3    H2 2164   5.288   4.992   3.046
  734TIP3   OH2 2165   6.366   0.671   4.544
  734TIP3    H1 2166   6.460   0.657   4.549
  734TIP3    H2 2167   6.357   0.757   4.502
  735TIP3   OH2 2168   2.878   2.493   1.268
  735TIP3    H1 2169   2.810   2.554   1.242
  735TIP3    H2 2170   2.955   2.548   1.284
  736TIP3   OH2 2171   5.024   0.221   5.828
  736TIP3    H1 2172   4.991   0.177   5.906
  736TIP3    H2 2173   5.052   0.307   5.860
  737TIP3   OH2 2174   4.227   5.568   2.220
  737TIP3    H1 2175   4.281   5.497   2.185
  737TIP3    H2 2176   4.221   5.548   2.314
  738TIP3   OH2 2177   1.367   3.896   2.046
  738TIP3    H1 2178   1.429   3.851   1.990
  738TIP3    H2 2179   1.403   3.886   2.134
  739TIP3   OH2 2180   4.638   3.213   4.319
  739TIP3    H1 2181   4.697   3.288   4.324
  739TIP3    H2 2182   4.643   3.173   4.406
  740TIP3   OH2 2183   0.588   3.209   0.613
  740TIP3    H1 2184   0.590   3.167   0.699
  740TIP3    H2 2185   0.548   3.145   0.555
  741TIP3   OH2 2186   6.524   3.244   4.013
  741TIP3    H1 2187   6.593   3.199   4.063
  741TIP3    H2 2188   6.571   3.299   3.951
  742TIP3   OH2 2189   0.455   4.186   4.209
  742TIP3    H1 2190   0.473   4.277   4.185
  742TIP3    H2 2191   0.473   4.136   4.129
  743TIP3   OH2 2192   0.554   1.418   1.444
  743TIP3    H1 2193   0.543   1.345   1.505
  743TIP3    H2 2194   0.596   1.378   1.367
  744TIP3   OH2 2195   2.679   0.811   0.164
  744TIP3    H1 2196   2.587   0.825   0.141
  744TIP3    H2 2197   2.714   0.898   0.181
  745TIP3   OH2 2198   1.111   3.530   1.428
  745TIP3    H1 2199   1.198   3.537   1.390
  745TIP3    H2 2200   1.099   3.436   1.444
  746TIP3   OH2 2201   5.850   3.438   3.975
  746TIP3    H1 2202   5.800   3.378   4.030
  746TIP3    H2 2203   5.898   3.494   4.037
  747TIP3   OH2 2204   0.753   6.252   4.859
  747TIP3    H1 2205   0.699   6.186   4.903
  747TIP3    H2 2206   0.838   6.210   4.849
  748TIP3   OH2 2207   0.141   0.007   1.256
  748TIP3    H1 2208   0.111  -0.055   1.322
  748TIP3    H2 2209   0.072   0.073   1.252
  749TIP3   OH2 2210   0.090   1.493   0.044
  749TIP3    H1 2211   0.028   1.557   0.081
  749TIP3    H2 2212   0.090   1.421   0.107
  750TIP3   OH2 2213   3.967   5.671   4.307
  750TIP3    H1 2214   3.942   5.609   4.239
  750TIP3    H2 2215   3.938   5.630   4.389
  751TIP3   OH2 2216   4.788   5.760   1.182
  751TIP3    H1 2217   4.882   5.751   1.193
  751TIP3    H2 2218   4.776   5.768   1.087
  752TIP3   OH2 2219   5.651   1.245   3.353
  752TIP3    H1 2220   5.589   1.298   3.304
  752TIP3    H2 2221   5.731   1.246   3.300
  753TIP3   OH2 2222   4.897   5.553   2.042
  753TIP3    H1 2223   4.839   5.628   2.058
  753TIP3    H2 2224   4.904   5.510   2.128
  754TIP3   OH2 2225   2.067   5.409   2.965
  754TIP3    H1 2226   2.024   5.325   2.950
  754TIP3    H2 2227   2.154   5.387   2.998
  755TIP3   OH2 2228   1.265   2.784   4.481
  755TIP3    H1 2229   1.197   2.753   4.421
  755TIP3    H2 2230   1.312   2.705   4.507
  756TIP3   OH2 2231   1.905   6.454   1.469
  756TIP3    H1 2232   1.984   6.408   1.496
  756TIP3    H2 2233   1.895   6.435   1.376
  757TIP3   OH2 2234   1.963   2.640   0.810
  757TIP3    H1 2235   2.053   2.610   0.795
  757TIP3    H2 2236   1.937   2.595   0.890
  758TIP3   OH2 2237   5.142   0.141   0.493
  758TIP3    H1 2238   5.129   0.233   0.472
  758TIP3    H2 2239   5.053   0.106   0.505
  759TIP3   OH2 2240   5.989   0.845   4.835
  759TIP3    H1 2241   5.945   0.912   4.887
  759TIP3    H2 2242   5.949   0.763   4.863
  760TIP3   OH2 2243   5.194   0.149   4.818
  760TIP3    H1 2244   5.249   0.225   4.838
  760TIP3    H2 2245   5.138   0.179   4.747
  761TIP3   OH2 2246   1.789   3.437   0.707
  761TIP3    H1 2247   1.825   3.349   0.718
  761TIP3    H2 2248   1.815   3.463   0.619
  762TIP3   OH2 2249   4.928   4.261   0.472
  762TIP3    H1 2250   4.989   4.318   0.520
  762TIP3    H2 2251   4.862   4.236   0.536
  763TIP3   OH2 2252   1.447   4.477   3.209
  763TIP3    H1 2253   1.532   4.436   3.192
  763TIP3    H2 2254   1.469   4.561   3.248
  764TIP3   OH2 2255   0.404   0.276   1.746
  764TIP3    H1 2256   0.427   0.368   1.745
  764TIP3    H2 2257   0.330   0.270   1.807
  765TIP3   OH2 2258   5.950   1.438   2.674
  765TIP3    H1 2259   5.973   1.462   2.763
  765TIP3    H2 2260   6.034   1.421   2.631
  766TIP3   OH2 2261   0.285   3.718   1.767
  766TIP3    H1 2262   0.224   3.716   1.840
  766TIP3    H2 2263   0.265   3.799   1.720
  767TIP3   OH2 2264   1.000   2.002   0.041
  767TIP3    H1 2265   1.037   2.003   0.129
  767TIP3    H2 2266   0.916   2.047   0.049
  768TIP3   OH2 2267   2.246   1.848   1.040
  768TIP3    H1 2268   2.210   1.885   0.959
  768TIP3    H2 2269   2.256   1.923   1.098
  769TIP3   OH2 2270   4.325   2.979   0.688
  769TIP3    H1 2271   4.339   2.953   0.779
  769TIP3    H2 2272   4.407   2.954   0.644
  770TIP3   OH2 2273   3.953   6.632   5.605
  770TIP3    H1 2274   3.953   6.722   5.635
  770TIP3    H2 2275   3.861   6.613   5.586
  771TIP3   OH2 2276   4.532   3.339   0.256
  771TIP3    H1 2277   4.497   3.295   0.179
  771TIP3    H2 2278   4.570   3.420   0.222
  772TIP3   OH2 2279   6.150   3.447   4.080
  772TIP3    H1 2280   6.201   3.469   4.001
  772TIP3    H2 2281   6.126   3.356   4.069
  773TIP3   OH2 2282   4.119   4.594   2.648
  773TIP3    H1 2283   4.033   4.630   2.669
  773TIP3    H2 2284   4.151   4.651   2.578
  774TIP3   OH2 2285   5.541   0.122   2.744
  774TIP3    H1 2286   5.531   0.216   2.753
  774TIP3    H2 2287   5.545   0.107   2.650
  775TIP3   OH2 2288   3.568   2.748   4.782
  775TIP3    H1 2289   3.472   2.757   4.778
  775TIP3    H2 2290   3.599   2.836   4.803
  776TIP3   OH2 2291   5.767   0.779   0.248
  776TIP3    H1 2292   5.824   0.770   0.171
  776TIP3    H2 2293   5.705   0.848   0.225
  777TIP3   OH2 2294   3.423   5.980   4.027
  777TIP3    H1 2295   3.396   5.893   4.056
  777TIP3    H2 2296   3.504   5.998   4.075
  778TIP3   OH2 2297   1.040   6.781   5.228
  778TIP3    H1 2298   0.980   6.710   5.250
  778TIP3    H2 2299   1.026   6.846   5.296
  779TIP3   OH2 2300   6.060   1.517   2.921
  779TIP3    H1 2301   6.132   1.455   2.933
  779TIP3    H2 2302   6.101   1.603   2.930
  780TIP3   OH2 2303   6.717   4.407   1.469
  780TIP3    H1 2304   6.813   4.405   1.465
  780TIP3    H2 2305   6.692   4.469   1.401
  781TIP3   OH2 2306   2.802   5.446   4.191
  781TIP3    H1 2307   2.799   5.441   4.287
  781TIP3    H2 2308   2.793   5.355   4.163
  782TIP3   OH2 2309   6.789   5.841   1.828
  782TIP3    H1 2310   6.835   5.757   1.820
  782TIP3    H2 2311   6.762   5.844   1.920
  783TIP3   OH2 2312   5.947   6.642   4.391
  783TIP3    H1 2313   5.933   6.710   4.457
  783TIP3    H2 2314   5.966   6.563   4.441
  784TIP3   OH2 2315   1.606   3.970   2.948
  784TIP3    H1 2316   1.690   3.989   2.989
  784TIP3    H2 2317   1.581   3.884   2.980
  785TIP3   OH2 2318   0.451   2.335   1.950
  785TIP3    H1 2319   0.527   2.278   1.933
  785TIP3    H2 2320   0.441   2.332   2.046
  786TIP3   OH2 2321   3.070   3.319   2.472
  786TIP3    H1 2322   3.103   3.400   2.434
  786TIP3    H2 2323   3.130   3.251   2.440
  787TIP3   OH2 2324   5.014   3.852   4.428
  787TIP3    H1 2325   4.980   3.795   4.497
  787TIP3    H2 2326   4.938   3.903   4.399
  788TIP3   OH2 2327   5.262   0.698   5.783
  788TIP3    H1 2328   5.166   0.702   5.776
  788TIP3    H2 2329   5.280   0.729   5.872
  789TIP3   OH2 2330   3.857   4.287   1.039
  789TIP3    H1 2331   3.878   4.247   1.124
  789TIP3    H2 2332   3.846   4.380   1.059
  790TIP3   OH2 2333   0.442   1.532   5.525
  790TIP3    H1 2334   0.476   1.619   5.545
  790TIP3    H2 2335   0.418   1.536   5.433
  791TIP3   OH2 2336   4.282   6.234   0.339
  791TIP3    H1 2337   4.212   6.299   0.328
  791TIP3    H2 2338   4.237   6.150   0.338
  792TIP3   OH2 2339   2.696   6.235   5.453
  792TIP3    H1 2340   2.670   6.178   5.526
  792TIP3    H2 2341   2.700   6.177   5.377
  793TIP3   OH2 2342   5.436   3.204   1.582
  793TIP3    H1 2343   5.348   3.241   1.582
  793TIP3    H2 2344   5.494   3.278   1.598
  794TIP3   OH2 2345   1.250   1.064   0.485
  794TIP3    H1 2346   1.210   1.073   0.399
  794TIP3    H2 2347   1.201   1.124   0.541
  795TIP3   OH2 2348   5.981   1.977   1.471
  795TIP3    H1 2349   5.946   2.035   1.403
  795TIP3    H2 2350   5.921   1.902   1.471
  796TIP3   OH2 2351   2.414   0.163   2.360
  796TIP3    H1 2352   2.387   0.247   2.398
  796TIP3    H2 2353   2.432   0.108   2.435
  797TIP3   OH2 2354   7.090   1.509   3.430
  797TIP3    H1 2355   7.146   1.460   3.490
  797TIP3    H2 2356   7.016   1.450   3.413
  798TIP3   OH2 2357   3.041   5.210   0.376
  798TIP3    H1 2358   3.015   5.119   0.383
  798TIP3    H2 2359   2.962   5.256   0.346
  799TIP3   OH2 2360   0.563   6.748   5.480
  799TIP3    H1 2361   0.567   6.732   5.574
  799TIP3    H2 2362   0.594   6.667   5.441
  800TIP3   OH2 2363   1.278   4.509   2.862
  800TIP3    H1 2364   1.184   4.517   2.871
  800TIP3    H2 2365   1.291   4.427   2.813
  801TIP3   OH2 2366   7.093   4.619   4.509
  801TIP3    H1 2367   7.059   4.707   4.528
  801TIP3    H2 2368   7.078   4.608   4.415
  802TIP3   OH2 2369   0.150   0.717   1.134
  802TIP3    H1 2370   0.177   0.627   1.114
  802TIP3    H2 2371   0.099   0.744   1.058
  803TIP3   OH2 2372   6.983   6.702   5.023
  803TIP3    H1 2373   6.952   6.671   4.938
  803TIP3    H2 2374   6.969   6.628   5.082
  804TIP3   OH2 2375   5.240   1.194   0.507
  804TIP3    H1 2376   5.149   1.217   0.527
  804TIP3    H2 2377   5.283   1.192   0.593
  805TIP3   OH2 2378   3.918   6.381   3.191
  805TIP3    H1 2379   3.962   6.431   3.123
  805TIP3    H2 2380   3.860   6.444   3.233
  806TIP3   OH2 2381   3.090   2.963   3.082
  806TIP3    H1 2382   3.148   3.030   3.046
  806TIP3    H2 2383   3.043   3.007   3.152
  807TIP3   OH2 2384   4.916   2.915   3.892
  807TIP3    H1 2385   4.878   2.829   3.875
  807TIP3    H2 2386   4.983   2.900   3.960
  808TIP3   OH2 2387   5.842   6.335   5.579
  808TIP3    H1 2388   5.867   6.268   5.516
  808TIP3    H2 2389   5.835   6.416   5.528
  809TIP3   OH2 2390   1.273   0.309   2.318
  809TIP3    H1 2391   1.193   0.356   2.340
  809TIP3    H2 2392   1.278   0.312   2.223
  810TIP3   OH2 2393   2.336   3.821   0.109
  810TIP3    H1 2394   2.378   3.810   0.024
  810TIP3    H2 2395   2.324   3.731   0.141
  811TIP3   OH2 2396   1.996   4.160   5.139
  811TIP3    H1 2397   2.067   4.153   5.202
  811TIP3    H2 2398   2.022   4.102   5.068
  812TIP3   OH2 2399   6.296   1.709   0.557
  812TIP3    H1 2400   6.317   1.773   0.624
  812TIP3    H2 2401   6.338   1.628   0.585
  813TIP3   OH2 2402   1.491   5.020   4.694
  813TIP3    H1 2403   1.433   5.095   4.705
  813TIP3    H2 2404   1.526   5.029   4.605
  814TIP3   OH2 2405   6.136   1.052   2.817
  814TIP3    H1 2406   6.113   1.023   2.729
  814TIP3    H2 2407   6.051   1.070   2.858
  815TIP3   OH2 2408   3.196   2.037   0.523
  815TIP3    H1 2409   3.205   1.943   0.542
  815TIP3    H2 2410   3.234   2.048   0.436
  816TIP3   OH2 2411   0.611   2.478   2.353
  816TIP3    H1 2412   0.659   2.397   2.369
  816TIP3    H2 2413   0.560   2.493   2.433
  817TIP3   OH2 2414   4.971   0.681   2.829
  817TIP3    H1 2415   4.907   0.611   2.828
  817TIP3    H2 2416   5.042   0.649   2.884
  818TIP3   OH2 2417   2.436   4.869   5.173
  818TIP3    H1 2418   2.344   4.894   5.165
  818TIP3    H2 2419   2.441   4.783   5.132
  819TIP3   OH2 2420   6.061   4.886   5.898
  819TIP3    H1 2421   6.129   4.850   5.842
  819TIP3    H2 2422   5.979   4.858   5.856
  820TIP3   OH2 2423   6.491   1.024   3.116
  820TIP3    H1 2424   6.514   0.974   3.037
  820TIP3    H2 2425   6.396   1.033   3.112
  821TIP3   OH2 2426   7.090   4.312   4.446
  821TIP3    H1 2427   7.058   4.378   4.383
  821TIP3    H2 2428   7.020   4.304   4.510
  822TIP3   OH2 2429   1.598   3.392   1.233
  822TIP3    H1 2430   1.523   3.451   1.245
  822TIP3    H2 2431   1.588   3.360   1.143
  823TIP3   OH2 2432   1.316   5.393   4.255
  823TIP3    H1 2433   1.386   5.446   4.292
  823TIP3    H2 2434   1.361   5.318   4.216
  824TIP3   OH2 2435   6.173   5.376   2.710
  824TIP3    H1 2436   6.139   5.300   2.757
  824TIP3    H2 2437   6.212   5.339   2.631
  825TIP3   OH2 2438   2.240   0.932   4.112
  825TIP3    H1 2439   2.289   0.981   4.179
  825TIP3    H2 2440   2.305   0.915   4.044
  826TIP3   OH2 2441   3.941   6.057   3.883
  826TIP3    H1 2442   3.906   5.972   3.911
  826TIP3    H2 2443   3.892   6.121   3.934
  827TIP3   OH2 2444   4.329   3.659   0.303
  827TIP3    H1 2445   4.266   3.729   0.317
  827TIP3    H2 2446   4.317   3.633   0.212
  828TIP3   OH2 2447   5.713   2.488   1.776
  828TIP3    H1 2448   5.784   2.492   1.712
  828TIP3    H2 2449   5.756   2.497   1.861
  829TIP3   OH2 2450   3.283   1.014   5.110
  829TIP3    H1 2451   3.208   1.012   5.170
  829TIP3    H2 2452   3.253   1.066   5.036
  830TIP3   OH2 2453   2.891   4.382   5.093
  830TIP3    H1 2454   2.857   4.357   5.007
  830TIP3    H2 2455   2.986   4.371   5.087
  831TIP3   OH2 2456   4.108   5.042   5.667
  831TIP3    H1 2457   4.060   5.118   5.699
  831TIP3    H2 2458   4.079   5.031   5.577
  832TIP3   OH2 2459   6.027   1.116   5.682
  832TIP3    H1 2460   5.992   1.161   5.605
  832TIP3    H2 2461   5.958   1.055   5.707
  833TIP3   OH2 2462   6.035   5.756   4.778
  833TIP3    H1 2463   6.051   5.735   4.870
  833TIP3    H2 2464   6.067   5.679   4.731
  834TIP3   OH2 2465  -0.018   3.479   2.219
  834TIP3    H1 2466  -0.002   3.387   2.237
  834TIP3    H2 2467  -0.053   3.481   2.130
  835TIP3   OH2 2468   6.930   6.163   4.489
  835TIP3    H1 2469   6.871   6.147   4.415
  835TIP3    H2 2470   6.977   6.080   4.500
  836TIP3   OH2 2471   2.502   0.424   2.664
  836TIP3    H1 2472   2.441   0.460   2.728
  836TIP3    H2 2473   2.449   0.411   2.585
  837TIP3   OH2 2474   5.370   6.482   2.793
  837TIP3    H1 2475   5.340   6.400   2.833
  837TIP3    H2 2476   5.390   6.459   2.702
  838TIP3   OH2 2477   2.422   6.360   1.473
  838TIP3    H1 2478   2.476   6.310   1.533
  838TIP3    H2 2479   2.386   6.295   1.413
  839TIP3   OH2 2480   5.059   2.684   2.165
  839TIP3    H1 2481   4.993   2.618   2.145
  839TIP3    H2 2482   5.027   2.727   2.244
  840TIP3   OH2 2483   4.736   5.029   2.977
  840TIP3    H1 2484   4.705   5.049   2.888
  840TIP3    H2 2485   4.770   4.940   2.971
  841TIP3   OH2 2486   5.376   1.596   4.649
  841TIP3    H1 2487   5.469   1.606   4.629
  841TIP3    H2 2488   5.372   1.519   4.706
  842TIP3   OH2 2489   0.332   6.516   4.304
  842TIP3    H1 2490   0.409   6.484   4.257
  842TIP3    H2 2491   0.315   6.602   4.266
  843TIP3   OH2 2492   2.732   0.075   2.439
  843TIP3    H1 2493   2.640   0.090   2.459
  843TIP3    H2 2494   2.767   0.032   2.517
  844TIP3   OH2 2495   2.007   6.565   0.377
  844TIP3    H1 2496   1.982   6.522   0.459
  844TIP3    H2 2497   1.926   6.604   0.344
  845TIP3   OH2 2498   4.403   3.258   1.197
  845TIP3    H1 2499   4.423   3.231   1.108
  845TIP3    H2 2500   4.341   3.330   1.188
  846TIP3   OH2 2501   6.614   6.680   2.914
  846TIP3    H1 2502   6.609   6.758   2.970
  846TIP3    H2 2503   6.545   6.693   2.849
  847TIP3   OH2 2504   4.074   4.301   3.529
  847TIP3    H1 2505   4.075   4.278   3.437
  847TIP3    H2 2506   4.076   4.397   3.530
  848TIP3   OH2 2507   5.602   5.951   3.005
  848TIP3    H1 2508   5.673   5.962   3.067
  848TIP3    H2 2509   5.542   6.023   3.024
  849TIP3   OH2 2510   2.743   1.763   4.300
  849TIP3    H1 2511   2.769   1.689   4.355
  849TIP3    H2 2512   2.657   1.788   4.335
  850TIP3   OH2 2513   5.450   0.792   2.105
  850TIP3    H1 2514   5.475   0.770   2.195
  850TIP3    H2 2515   5.458   0.709   2.057
  851TIP3   OH2 2516   1.706   4.720   0.529
  851TIP3    H1 2517   1.622   4.724   0.576
  851TIP3    H2 2518   1.771   4.707   0.598
  852TIP3   OH2 2519   4.841   0.429   1.744
  852TIP3    H1 2520   4.777   0.459   1.809
  852TIP3    H2 2521   4.925   0.462   1.776
  853TIP3   OH2 2522   6.278   5.504   0.488
  853TIP3    H1 2523   6.251   5.525   0.399
  853TIP3    H2 2524   6.244   5.416   0.503
  854TIP3   OH2 2525   0.324   3.092   2.895
  854TIP3    H1 2526   0.358   3.043   2.820
  854TIP3    H2 2527   0.319   3.182   2.864
  855TIP3   OH2 2528   2.188  -0.010   2.449
  855TIP3    H1 2529   2.198   0.027   2.361
  855TIP3    H2 2530   2.215   0.060   2.508
  856TIP3   OH2 2531   6.707   0.790   0.706
  856TIP3    H1 2532   6.711   0.789   0.802
  856TIP3    H2 2533   6.796   0.767   0.678
  857TIP3   OH2 2534   5.587   6.308   2.665
  857TIP3    H1 2535   5.664   6.324   2.720
  857TIP3    H2 2536   5.520   6.278   2.726
  858TIP3   OH2 2537   5.970   1.120   4.030
  858TIP3    H1 2538   5.981   1.089   3.941
  858TIP3    H2 2539   5.876   1.135   4.039
  859TIP3   OH2 2540   2.924   4.299   0.746
  859TIP3    H1 2541   2.919   4.204   0.731
  859TIP3    H2 2542   2.935   4.307   0.841
  860TIP3   OH2 2543   4.795   2.694   4.385
  860TIP3    H1 2544   4.787   2.633   4.459
  860TIP3    H2 2545   4.707   2.729   4.373
  861TIP3   OH2 2546   1.912   3.379   1.878
  861TIP3    H1 2547   1.973   3.327   1.930
  861TIP3    H2 2548   1.924   3.348   1.789
  862TIP3   OH2 2549   5.676   3.058   2.516
  862TIP3    H1 2550   5.748   3.045   2.578
  862TIP3    H2 2551   5.653   3.151   2.526
  863TIP3   OH2 2552   4.356   5.031   4.296
  863TIP3    H1 2553   4.277   5.042   4.243
  863TIP3    H2 2554   4.419   4.991   4.236
  864TIP3   OH2 2555   0.851   0.976   0.569
  864TIP3    H1 2556   0.787   1.046   0.586
  864TIP3    H2 2557   0.929   1.003   0.617
  865TIP3   OH2 2558   1.696   0.593   4.115
  865TIP3    H1 2559   1.765   0.540   4.074
  865TIP3    H2 2560   1.672   0.543   4.194
  866TIP3   OH2 2561   2.864   3.686   0.706
  866TIP3    H1 2562   2.903   3.738   0.635
  866TIP3    H2 2563   2.788   3.737   0.733
  867TIP3   OH2 2564   4.292   5.496   1.908
  867TIP3    H1 2565   4.362   5.537   1.859
  867TIP3    H2 2566   4.223   5.563   1.912
  868TIP3   OH2 2567   3.047   5.255   2.597
  868TIP3    H1 2568   3.037   5.328   2.658
  868TIP3    H2 2569   3.037   5.177   2.651
  869TIP3   OH2 2570   6.439   1.887   1.473
  869TIP3    H1 2571   6.374   1.847   1.415
  869TIP3    H2 2572   6.493   1.939   1.414
  870TIP3   OH2 2573   4.485   6.738   1.235
  870TIP3    H1 2574   4.544   6.811   1.256
  870TIP3    H2 2575   4.544   6.664   1.221
  871TIP3   OH2 2576   2.497   6.418   2.705
  871TIP3    H1 2577   2.548   6.448   2.781
  871TIP3    H2 2578   2.436   6.354   2.742
  872TIP3   OH2 2579   3.321   5.335   2.266
  872TIP3    H1 2580   3.234   5.373   2.283
  872TIP3    H2 2581   3.351   5.306   2.352
  873TIP3   OH2 2582   7.240   6.806   1.246
  873TIP3    H1 2583   7.158   6.786   1.200
  873TIP3    H2 2584   7.217   6.879   1.304
  874TIP3   OH2 2585   4.604   2.104   2.161
  874TIP3    H1 2586   4.679   2.094   2.220
  874TIP3    H2 2587   4.528   2.086   2.216
  875TIP3   OH2 2588   5.783   2.957   4.146
  875TIP3    H1 2589   5.734   2.884   4.110
  875TIP3    H2 2590   5.874   2.928   4.144
  876TIP3   OH2 2591   6.708   0.549   2.109
  876TIP3    H1 2592   6.688   0.498   2.187
  876TIP3    H2 2593   6.719   0.484   2.040
  877TIP3   OH2 2594   1.547   2.638   1.827
  877TIP3    H1 2595   1.494   2.716   1.846
  877TIP3    H2 2596   1.637   2.672   1.823
  878TIP3   OH2 2597   5.107   1.643   4.057
  878TIP3    H1 2598   5.185   1.589   4.063
  878TIP3    H2 2599   5.040   1.583   4.022
  879TIP3   OH2 2600   5.275   4.358   0.943
  879TIP3    H1 2601   5.337   4.285   0.944
  879TIP3    H2 2602   5.318   4.424   0.888
  880TIP3   OH2 2603   3.659   1.197   5.561
  880TIP3    H1 2604   3.643   1.135   5.631
  880TIP3    H2 2605   3.637   1.282   5.599
  881TIP3   OH2 2606   4.981   3.391   2.982
  881TIP3    H1 2607   4.898   3.390   2.934
  881TIP3    H2 2608   4.954   3.393   3.074
  882TIP3   OH2 2609   3.381   4.456   2.605
  882TIP3    H1 2610   3.293   4.418   2.602
  882TIP3    H2 2611   3.438   4.386   2.573
  883TIP3   OH2 2612   6.818   0.207   4.677
  883TIP3    H1 2613   6.837   0.130   4.731
  883TIP3    H2 2614   6.902   0.229   4.636
  884TIP3   OH2 2615   5.351   3.898   0.117
  884TIP3    H1 2616   5.285   3.954   0.077
  884TIP3    H2 2617   5.435   3.935   0.090
  885TIP3   OH2 2618   7.226   0.257   4.707
  885TIP3    H1 2619   7.213   0.167   4.737
  885TIP3    H2 2620   7.138   0.293   4.700
  886TIP3   OH2 2621   2.192   2.750   2.783
  886TIP3    H1 2622   2.267   2.692   2.790
  886TIP3    H2 2623   2.170   2.750   2.690
  887TIP3   OH2 2624   3.418   1.710   2.573
  887TIP3    H1 2625   3.467   1.784   2.609
  887TIP3    H2 2626   3.468   1.633   2.601
  888TIP3   OH2 2627   0.454   3.859   0.592
  888TIP3    H1 2628   0.453   3.909   0.510
  888TIP3    H2 2629   0.528   3.894   0.641
  889TIP3   OH2 2630   2.560   2.168   0.185
  889TIP3    H1 2631   2.609   2.239   0.226
  889TIP3    H2 2632   2.509   2.210   0.116
  890TIP3   OH2 2633   0.934   3.845   0.289
  890TIP3    H1 2634   0.858   3.815   0.238
  890TIP3    H2 2635   1.003   3.858   0.223
  891TIP3   OH2 2636   4.653   6.623   2.148
  891TIP3    H1 2637   4.666   6.643   2.241
  891TIP3    H2 2638   4.672   6.706   2.103
  892TIP3   OH2 2639   7.135   5.026   1.258
  892TIP3    H1 2640   7.231   5.020   1.252
  892TIP3    H2 2641   7.116   5.002   1.348
  893TIP3   OH2 2642   0.270   3.561   2.979
  893TIP3    H1 2643   0.241   3.648   2.954
  893TIP3    H2 2644   0.257   3.557   3.074
  894TIP3   OH2 2645   1.263   3.548   3.150
  894TIP3    H1 2646   1.176   3.532   3.113
  894TIP3    H2 2647   1.304   3.462   3.153
  895TIP3   OH2 2648   0.622   1.610   1.623
  895TIP3    H1 2649   0.550   1.669   1.604
  895TIP3    H2 2650   0.593   1.525   1.589
  896TIP3   OH2 2651   0.497   4.344   2.177
  896TIP3    H1 2652   0.490   4.250   2.194
  896TIP3    H2 2653   0.533   4.381   2.258
  897TIP3   OH2 2654   6.479   2.579   4.573
  897TIP3    H1 2655   6.421   2.649   4.603
  897TIP3    H2 2656   6.562   2.623   4.555
  898TIP3   OH2 2657   0.096   1.620   0.928
  898TIP3    H1 2658   0.033   1.593   0.862
  898TIP3    H2 2659   0.070   1.574   1.007
  899TIP3   OH2 2660   6.416   6.331   5.832
  899TIP3    H1 2661   6.322   6.328   5.852
  899TIP3    H2 2662   6.459   6.336   5.917
  900TIP3   OH2 2663   0.475   2.393   0.468
  900TIP3    H1 2664   0.440   2.481   0.460
  900TIP3    H2 2665   0.519   2.376   0.384
  901TIP3   OH2 2666   5.393   1.028   3.224
  901TIP3    H1 2667   5.462   1.076   3.179
  901TIP3    H2 2668   5.431   0.942   3.242
  902TIP3   OH2 2669   1.096   0.425   5.570
  902TIP3    H1 2670   1.077   0.365   5.498
  902TIP3    H2 2671   1.117   0.368   5.644
  903TIP3   OH2 2672   3.968   5.450   5.338
  903TIP3    H1 2673   3.909   5.378   5.314
  903TIP3    H2 2674   3.934   5.482   5.422
  904TIP3   OH2 2675   2.999   1.145   1.028
  904TIP3    H1 2676   2.954   1.072   1.070
  904TIP3    H2 2677   3.046   1.189   1.099
  905TIP3   OH2 2678   3.121   6.112   0.972
  905TIP3    H1 2679   3.073   6.083   1.050
  905TIP3    H2 2680   3.175   6.184   1.003
  906TIP3   OH2 2681   1.617   2.411   5.066
  906TIP3    H1 2682   1.626   2.394   4.972
  906TIP3    H2 2683   1.576   2.333   5.102
  907TIP3   OH2 2684   3.928   2.198   0.895
  907TIP3    H1 2685   3.937   2.237   0.808
  907TIP3    H2 2686   3.853   2.140   0.888
  908TIP3   OH2 2687   5.410   4.681   3.642
  908TIP3    H1 2688   5.369   4.753   3.595
  908TIP3    H2 2689   5.338   4.637   3.687
  909TIP3   OH2 2690   5.621   3.370   2.863
  909TIP3    H1 2691   5.601   3.439   2.926
  909TIP3    H2 2692   5.716   3.361   2.867
  910TIP3   OH2 2693   4.608   3.010   3.530
  910TIP3    H1 2694   4.585   3.099   3.504
  910TIP3    H2 2695   4.575   3.002   3.619
  911TIP3   OH2 2696   0.526   3.779   2.092
  911TIP3    H1 2697   0.564   3.706   2.044
  911TIP3    H2 2698   0.435   3.755   2.105
  912TIP3   OH2 2699   1.938   0.309   4.325
  912TIP3    H1 2700   1.944   0.260   4.243
  912TIP3    H2 2701   1.976   0.251   4.391
  913TIP3   OH2 2702   5.386   2.359   3.715
  913TIP3    H1 2703   5.332   2.377   3.792
  913TIP3    H2 2704   5.438   2.438   3.703
  914TIP3   OH2 2705   4.370   2.137   1.539
  914TIP3    H1 2706   4.341   2.223   1.570
  914TIP3    H2 2707   4.427   2.156   1.465
  915TIP3   OH2 2708   0.243   1.880   3.364
  915TIP3    H1 2709   0.181   1.822   3.410
  915TIP3    H2 2710   0.308   1.902   3.431
  916TIP3   OH2 2711   3.104   1.245   0.779
  916TIP3    H1 2712   3.183   1.299   0.772
  916TIP3    H2 2713   3.119   1.191   0.856
  917TIP3   OH2 2714   4.298   2.215   4.147
  917TIP3    H1 2715   4.251   2.156   4.207
  917TIP3    H2 2716   4.366   2.160   4.109
  918TIP3   OH2 2717   4.566   3.667   5.780
  918TIP3    H1 2718   4.505   3.600   5.749
  918TIP3    H2 2719   4.620   3.687   5.704
  919TIP3   OH2 2720   3.076   4.228   2.922
  919TIP3    H1 2721   3.115   4.174   2.854
  919TIP3    H2 2722   3.130   4.306   2.925
  920TIP3   OH2 2723   1.232   3.616   4.958
  920TIP3    H1 2724   1.284   3.618   5.038
  920TIP3    H2 2725   1.292   3.587   4.890
  921TIP3   OH2 2726   6.845   6.240   3.404
  921TIP3    H1 2727   6.915   6.299   3.379
  921TIP3    H2 2728   6.848   6.170   3.339
  922TIP3   OH2 2729   2.960   3.592   0.953
  922TIP3    H1 2730   3.040   3.645   0.954
  922TIP3    H2 2731   2.916   3.618   0.872
  923TIP3   OH2 2732   2.259   4.918   3.695
  923TIP3    H1 2733   2.182   4.975   3.702
  923TIP3    H2 2734   2.230   4.846   3.638
  924TIP3   OH2 2735   5.637   1.053   0.895
  924TIP3    H1 2736   5.699   1.103   0.948
  924TIP3    H2 2737   5.594   0.994   0.957
  925TIP3   OH2 2738   1.046   4.304   4.940
  925TIP3    H1 2739   1.034   4.396   4.917
  925TIP3    H2 2740   1.136   4.297   4.971
  926TIP3   OH2 2741   0.971   1.421   5.451
  926TIP3    H1 2742   0.897   1.369   5.418
  926TIP3    H2 2743   0.938   1.511   5.454
  927TIP3   OH2 2744   0.497   1.942   0.126
  927TIP3    H1 2745   0.592   1.953   0.124
  927TIP3    H2 2746   0.483   1.852   0.156
  928TIP3   OH2 2747   1.933   1.780   1.928
  928TIP3    H1 2748   1.919   1.865   1.969
  928TIP3    H2 2749   1.846   1.753   1.899
  929TIP3   OH2 2750   5.605   2.439   4.053
  929TIP3    H1 2751   5.589   2.348   4.027
  929TIP3    H2 2752   5.537   2.489   4.009
  930TIP3   OH2 2753   5.932   5.038   2.099
  930TIP3    H1 2754   5.848   5.013   2.138
  930TIP3    H2 2755   5.916   5.037   2.005
  931TIP3   OH2 2756   5.764   2.013   3.913
  931TIP3    H1 2757   5.688   2.033   3.967
  931TIP3    H2 2758   5.831   2.074   3.943
  932TIP3   OH2 2759   4.719   1.941   2.573
  932TIP3    H1 2760   4.780   1.877   2.534
  932TIP3    H2 2761   4.750   1.952   2.663
  933TIP3   OH2 2762   3.911   6.345   2.042
  933TIP3    H1 2763   3.821   6.334   2.013
  933TIP3    H2 2764   3.912   6.309   2.131
  934TIP3   OH2 2765   0.403   1.159   1.779
  934TIP3    H1 2766   0.369   1.201   1.858
  934TIP3    H2 2767   0.484   1.207   1.760
  935TIP3   OH2 2768   0.927   1.177   0.111
  935TIP3    H1 2769   0.888   1.095   0.082
  935TIP3    H2 2770   0.959   1.158   0.200
  936TIP3   OH2 2771   6.080   4.397   4.643
  936TIP3    H1 2772   6.158   4.376   4.694
  936TIP3    H2 2773   6.025   4.319   4.651
  937TIP3   OH2 2774   4.085   4.845   2.052
  937TIP3    H1 2775   4.128   4.910   2.107
  937TIP3    H2 2776   4.064   4.773   2.112
  938TIP3   OH2 2777   1.746   2.506   4.452
  938TIP3    H1 2778   1.819   2.552   4.493
  938TIP3    H2 2779   1.690   2.575   4.417
  939TIP3   OH2 2780   1.326   2.790   0.798
  939TIP3    H1 2781   1.401   2.810   0.854
  939TIP3    H2 2782   1.353   2.820   0.711
  940TIP3   OH2 2783   6.541   1.300   0.813
  940TIP3    H1 2784   6.450   1.327   0.812
  940TIP3    H2 2785   6.590   1.382   0.816
  941TIP3   OH2 2786   4.786   0.047   4.560
  941TIP3    H1 2787   4.761   0.138   4.577
  941TIP3    H2 2788   4.721  -0.004   4.607
  942TIP3   OH2 2789   6.244   4.742   0.022
  942TIP3    H1 2790   6.284   4.826   0.043
  942TIP3    H2 2791   6.212   4.708   0.105
  943TIP3   OH2 2792   1.481   1.776   3.681
  943TIP3    H1 2793   1.438   1.826   3.611
  943TIP3    H2 2794   1.424   1.700   3.695
  944TIP3   OH2 2795   5.502   6.166   3.166
  944TIP3    H1 2796   5.462   6.240   3.211
  944TIP3    H2 2797   5.557   6.124   3.232
  945TIP3   OH2 2798   5.328   5.468   0.062
  945TIP3    H1 2799   5.242   5.428   0.054
  945TIP3    H2 2800   5.389   5.396   0.043
  946TIP3   OH2 2801   6.025   1.655   1.653
  946TIP3    H1 2802   5.952   1.672   1.712
  946TIP3    H2 2803   5.995   1.584   1.597
  947TIP3   OH2 2804   4.158   0.348   5.104
  947TIP3    H1 2805   4.097   0.414   5.137
  947TIP3    H2 2806   4.108   0.297   5.041
  948TIP3   OH2 2807   4.734   1.308   4.496
  948TIP3    H1 2808   4.669   1.336   4.562
  948TIP3    H2 2809   4.818   1.329   4.536
  949TIP3   OH2 2810   0.863   0.391   2.840
  949TIP3    H1 2811   0.770   0.414   2.843
  949TIP3    H2 2812   0.864   0.296   2.837
  950TIP3   OH2 2813   1.876   6.724   4.467
  950TIP3    H1 2814   1.934   6.648   4.470
  950TIP3    H2 2815   1.793   6.693   4.504
  951TIP3   OH2 2816   2.916   3.445   4.219
  951TIP3    H1 2817   2.865   3.446   4.300
  951TIP3    H2 2818   3.006   3.459   4.246
  952TIP3   OH2 2819   4.204   5.568   5.259
  952TIP3    H1 2820   4.126   5.528   5.296
  952TIP3    H2 2821   4.229   5.510   5.187
  953TIP3   OH2 2822   6.060   2.917   4.199
  953TIP3    H1 2823   6.079   2.837   4.150
  953TIP3    H2 2824   6.118   2.913   4.275
  954TIP3   OH2 2825   2.850   4.917   5.593
  954TIP3    H1 2826   2.772   4.952   5.637
  954TIP3    H2 2827   2.894   4.865   5.660
  955TIP3   OH2 2828   4.300   0.979   3.676
  955TIP3    H1 2829   4.332   1.001   3.763
  955TIP3    H2 2830   4.225   1.037   3.663
  956TIP3   OH2 2831   5.368   2.511   1.364
  956TIP3    H1 2832   5.328   2.439   1.412
  956TIP3    H2 2833   5.295   2.565   1.335
  957TIP3   OH2 2834   0.177   1.066   0.321
  957TIP3    H1 2835   0.109   0.998   0.318
  957TIP3    H2 2836   0.249   1.025   0.368
  958TIP3   OH2 2837   5.147   4.120   3.668
  958TIP3    H1 2838   5.212   4.153   3.606
  958TIP3    H2 2839   5.138   4.190   3.733
  959TIP3   OH2 2840   2.147   5.103   4.728
  959TIP3    H1 2841   2.117   5.188   4.760
  959TIP3    H2 2842   2.237   5.096   4.759
  960TIP3   OH2 2843   3.570   4.888   4.822
  960TIP3    H1 2844   3.637   4.860   4.760
  960TIP3    H2 2845   3.562   4.983   4.808
  961TIP3   OH2 2846   6.265   1.549   4.476
  961TIP3    H1 2847   6.355   1.582   4.466
  961TIP3    H2 2848   6.210   1.624   4.452
  962TIP3   OH2 2849   5.547   4.556   5.798
  962TIP3    H1 2850   5.565   4.614   5.724
  962TIP3    H2 2851   5.582   4.602   5.874
  963TIP3   OH2 2852   6.720   1.660   0.575
  963TIP3    H1 2853   6.772   1.700   0.645
  963TIP3    H2 2854   6.715   1.728   0.508
  964TIP3   OH2 2855   4.877   3.325   5.056
  964TIP3    H1 2856   4.841   3.395   5.110
  964TIP3    H2 2857   4.802   3.290   5.008
  965TIP3   OH2 2858   5.861   3.815   5.697
  965TIP3    H1 2859   5.779   3.765   5.706
  965TIP3    H2 2860   5.838   3.903   5.727
  966TIP3   OH2 2861   5.870   5.402   4.134
  966TIP3    H1 2862   5.952   5.382   4.179
  966TIP3    H2 2863   5.849   5.492   4.161
  967TIP3   OH2 2864   2.522   4.738   3.320
  967TIP3    H1 2865   2.514   4.784   3.404
  967TIP3    H2 2866   2.592   4.675   3.334
  968TIP3   OH2 2867   3.435   3.971   3.332
  968TIP3    H1 2868   3.418   3.935   3.245
  968TIP3    H2 2869   3.352   3.962   3.379
  969TIP3   OH2 2870   6.524   2.676   5.240
  969TIP3    H1 2871   6.476   2.629   5.172
  969TIP3    H2 2872   6.466   2.747   5.265
  970TIP3   OH2 2873   5.687   5.205   4.000
  970TIP3    H1 2874   5.731   5.263   4.061
  970TIP3    H2 2875   5.710   5.117   4.030
  971TIP3   OH2 2876   6.086   1.757   4.753
  971TIP3    H1 2877   6.104   1.664   4.759
  971TIP3    H2 2878   6.093   1.789   4.843
  972TIP3   OH2 2879   3.530   1.103   4.409
  972TIP3    H1 2880   3.475   1.026   4.392
  972TIP3    H2 2881   3.615   1.081   4.371
  973TIP3   OH2 2882   5.287   2.341   2.405
  973TIP3    H1 2883   5.242   2.421   2.378
  973TIP3    H2 2884   5.380   2.361   2.394
  974TIP3   OH2 2885   5.700   5.286   1.611
  974TIP3    H1 2886   5.685   5.340   1.688
  974TIP3    H2 2887   5.796   5.280   1.605
  975TIP3   OH2 2888   0.015   2.542   1.510
  975TIP3    H1 2889   0.050   2.514   1.426
  975TIP3    H2 2890   0.073   2.502   1.575
  976TIP3   OH2 2891   4.537   2.206   2.862
  976TIP3    H1 2892   4.465   2.218   2.924
  976TIP3    H2 2893   4.582   2.290   2.860
  977TIP3   OH2 2894   5.454   2.624   0.167
  977TIP3    H1 2895   5.393   2.551   0.157
  977TIP3    H2 2896   5.540   2.586   0.146
  978TIP3   OH2 2897   5.672   5.223   2.146
  978TIP3    H1 2898   5.718   5.169   2.211
  978TIP3    H2 2899   5.630   5.160   2.087
  979TIP3   OH2 2900   2.112   5.626   4.162
  979TIP3    H1 2901   2.164   5.547   4.175
  979TIP3    H2 2902   2.083   5.650   4.251
  980TIP3   OH2 2903   1.018   6.244   3.118
  980TIP3    H1 2904   1.024   6.201   3.203
  980TIP3    H2 2905   0.966   6.184   3.065
  981TIP3   OH2 2906   3.190   1.238   5.433
  981TIP3    H1 2907   3.151   1.179   5.369
  981TIP3    H2 2908   3.117   1.267   5.487
  982TIP3   OH2 2909   4.628   6.598   5.787
  982TIP3    H1 2910   4.694   6.653   5.830
  982TIP3    H2 2911   4.624   6.632   5.697
  983TIP3   OH2 2912   4.545   4.225   2.911
  983TIP3    H1 2913   4.598   4.244   2.833
  983TIP3    H2 2914   4.536   4.130   2.911
  984TIP3   OH2 2915   5.913   0.523   5.481
  984TIP3    H1 2916   5.879   0.597   5.431
  984TIP3    H2 2917   5.989   0.493   5.431
  985TIP3   OH2 2918   3.540   3.221   0.182
  985TIP3    H1 2919   3.581   3.222   0.096
  985TIP3    H2 2920   3.613   3.226   0.244
  986TIP3   OH2 2921   1.516   6.583   5.564
  986TIP3    H1 2922   1.609   6.603   5.570
  986TIP3    H2 2923   1.487   6.572   5.655
  987TIP3   OH2 2924   0.114   6.687   1.483
  987TIP3    H1 2925   0.195   6.714   1.526
  987TIP3    H2 2926   0.119   6.725   1.395
  988TIP3   OH2 2927   5.854   5.610   5.612
  988TIP3    H1 2928   5.838   5.690   5.562
  988TIP3    H2 2929   5.767   5.585   5.644
  989TIP3   OH2 2930   5.808   2.437   3.428
  989TIP3    H1 2931   5.777   2.347   3.432
  989TIP3    H2 2932   5.781   2.468   3.341
  990TIP3   OH2 2933   1.056   6.753   1.593
  990TIP3    H1 2934   1.062   6.766   1.688
  990TIP3    H2 2935   1.143   6.723   1.567
  991TIP3   OH2 2936   4.289   4.814   1.879
  991TIP3    H1 2937   4.273   4.754   1.806
  991TIP3    H2 2938   4.232   4.781   1.949
  992TIP3   OH2 2939   5.842   6.558   5.432
  992TIP3    H1 2940   5.814   6.591   5.347
  992TIP3    H2 2941   5.934   6.583   5.438
  993TIP3   OH2 2942   2.365   3.078   4.283
  993TIP3    H1 2943   2.368   3.073   4.188
  993TIP3    H2 2944   2.313   3.156   4.302
  994TIP3   OH2 2945   1.016   6.244   4.726
  994TIP3    H1 2946   1.074   6.204   4.791
  994TIP3    H2 2947   0.997   6.174   4.664
  995TIP3   OH2 2948   2.525   1.581   3.245
  995TIP3    H1 2949   2.573   1.643   3.191
  995TIP3    H2 2950   2.475   1.527   3.183
  996TIP3   OH2 2951   6.886   4.965   2.666
  996TIP3    H1 2952   6.800   4.926   2.650
  996TIP3    H2 2953   6.948   4.894   2.652
  997TIP3   OH2 2954   4.024   4.872   0.396
  997TIP3    H1 2955   3.986   4.953   0.363
  997TIP3    H2 2956   3.956   4.806   0.380
  998TIP3   OH2 2957   4.260   5.617   2.495
  998TIP3    H1 2958   4.339   5.600   2.547
  998TIP3    H2 2959   4.200   5.547   2.521
  999TIP3   OH2 2960   6.102   0.730   1.102
  999TIP3    H1 2961   6.076   0.821   1.116
  999TIP3    H2 2962   6.108   0.693   1.190
 1000TIP3   OH2 2963   1.869   2.820   1.315
 1000TIP3    H1 2964   1.780   2.798   1.289
 1000TIP3    H2 2965   1.859   2.876   1.392
 1001TIP3   OH2 2966   4.426   0.536   5.410
 1001TIP3    H1 2967   4.408   0.450   5.372
 1001TIP3    H2 2968   4.348   0.588   5.390
 1002TIP3   OH2 2969   6.196   6.734   4.620
 1002TIP3    H1 2970   6.195   6.639   4.609
 1002TIP3    H2 2971   6.105   6.760   4.606
 1003TIP3   OH2 2972   3.998   4.175   0.186
 1003TIP3    H1 2973   3.932   4.221   0.238
 1003TIP3    H2 2974   4.077   4.226   0.198
 1004TIP3   OH2 2975   4.675   4.948   1.291
 1004TIP3    H1 2976   4.624   5.026   1.266
 1004TIP3    H2 2977   4.609   4.880   1.306
 1005TIP3   OH2 2978   0.471   2.289   0.968
 1005TIP3    H1 2979   0.566   2.288   0.976
 1005TIP3    H2 2980   0.454   2.266   0.877
 1006TIP3   OH2 2981   3.981   5.026   4.812
 1006TIP3    H1 2982   3.942   4.960   4.754
 1006TIP3    H2 2983   4.032   4.974   4.875
 1007TIP3   OH2 2984   0.377   0.747   0.678
 1007TIP3    H1 2985   0.293   0.718   0.642
 1007TIP3    H2 2986   0.386   0.697   0.760
 1008TIP3   OH2 2987   3.113   0.502   2.938
 1008TIP3    H1 2988   3.063   0.512   2.856
 1008TIP3    H2 2989   3.150   0.589   2.953
 1009TIP3   OH2 2990   5.797   4.554   4.266
 1009TIP3    H1 2991   5.719   4.501   4.281
 1009TIP3    H2 2992   5.837   4.563   4.353
 1010TIP3   OH2 2993   0.260   6.402   3.431
 1010TIP3    H1 2994   0.331   6.439   3.483
 1010TIP3    H2 2995   0.277   6.307   3.431
 1011TIP3   OH2 2996   4.807   3.656   0.460
 1011TIP3    H1 2997   4.712   3.649   0.454
 1011TIP3    H2 2998   4.837   3.566   0.475
 1012TIP3   OH2 2999   4.323   4.074   3.410
 1012TIP3    H1 3000   4.292   3.983   3.405
 1012TIP3    H2 3001   4.249   4.126   3.380
 1013TIP3   OH2 3002   7.103   3.817   5.576
 1013TIP3    H1 3003   7.072   3.908   5.572
 1013TIP3    H2 3004   7.029   3.765   5.545
 1014TIP3   OH2 3005   5.801   0.734   5.357
 1014TIP3    H1 3006   5.741   0.784   5.412
 1014TIP3    H2 3007   5.817   0.791   5.281
 1015TIP3   OH2 3008   6.167   5.712   1.700
 1015TIP3    H1 3009   6.117   5.631   1.707
 1015TIP3    H2 3010   6.251   5.692   1.742
 1016TIP3   OH2 3011   4.203   0.327   2.072
 1016TIP3    H1 3012   4.284   0.371   2.097
 1016TIP3    H2 3013   4.139   0.397   2.064
 1017TIP3   OH2 3014   2.393   4.211   1.657
 1017TIP3    H1 3015   2.337   4.255   1.593
 1017TIP3    H2 3016   2.378   4.117   1.641
 1018TIP3   OH2 3017   1.589   5.736   1.995
 1018TIP3    H1 3018   1.536   5.687   1.932
 1018TIP3    H2 3019   1.664   5.679   2.013
 1019TIP3   OH2 3020   6.525   4.390   2.439
 1019TIP3    H1 3021   6.516   4.300   2.469
 1019TIP3    H2 3022   6.568   4.383   2.354
 1020TIP3   OH2 3023   5.719   3.847   1.167
 1020TIP3    H1 3024   5.661   3.789   1.117
 1020TIP3    H2 3025   5.800   3.798   1.175
 1021TIP3   OH2 3026   4.263   4.099   1.307
 1021TIP3    H1 3027   4.322   4.058   1.244
 1021TIP3    H2 3028   4.207   4.155   1.253
 1022TIP3   OH2 3029   5.097   0.330   2.698
 1022TIP3    H1 3030   5.101   0.299   2.789
 1022TIP3    H2 3031   5.010   0.303   2.668
 1023TIP3   OH2 3032   1.786   6.690   3.783
 1023TIP3    H1 3033   1.771   6.703   3.689
 1023TIP3    H2 3034   1.699   6.680   3.820
 1024TIP3   OH2 3035   5.059   4.119   0.280
 1024TIP3    H1 3036   4.999   4.165   0.339
 1024TIP3    H2 3037   5.027   4.028   0.279
 1025TIP3   OH2 3038   5.094   0.819   0.586
 1025TIP3    H1 3039   5.161   0.786   0.646
 1025TIP3    H2 3040   5.078   0.909   0.615
 1026TIP3   OH2 3041   6.728   6.257   4.003
 1026TIP3    H1 3042   6.822   6.239   4.003
 1026TIP3    H2 3043   6.701   6.245   4.094
 1027TIP3   OH2 3044   1.011   3.573   0.528
 1027TIP3    H1 3045   1.027   3.622   0.609
 1027TIP3    H2 3046   1.042   3.484   0.547
 1028TIP3   OH2 3047   1.839   3.046   4.446
 1028TIP3    H1 3048   1.823   3.055   4.540
 1028TIP3    H2 3049   1.918   3.098   4.430
 1029TIP3   OH2 3050   3.478   1.715   0.037
 1029TIP3    H1 3051   3.503   1.768   0.113
 1029TIP3    H2 3052   3.535   1.638   0.042
 1030TIP3   OH2 3053   0.539   3.675   1.371
 1030TIP3    H1 3054   0.554   3.724   1.451
 1030TIP3    H2 3055   0.566   3.734   1.301
 1031TIP3   OH2 3056   3.280   1.385   4.730
 1031TIP3    H1 3057   3.316   1.361   4.644
 1031TIP3    H2 3058   3.331   1.462   4.756
 1032TIP3   OH2 3059   3.770   4.403   2.115
 1032TIP3    H1 3060   3.831   4.435   2.049
 1032TIP3    H2 3061   3.691   4.382   2.066
 1033TIP3   OH2 3062   1.048   4.970   2.081
 1033TIP3    H1 3063   1.009   4.894   2.037
 1033TIP3    H2 3064   0.983   5.040   2.070
 1034TIP3   OH2 3065   5.021   5.134   0.615
 1034TIP3    H1 3066   4.984   5.191   0.548
 1034TIP3    H2 3067   5.105   5.175   0.637
 1035TIP3   OH2 3068   4.584   0.675   2.048
 1035TIP3    H1 3069   4.667   0.637   2.077
 1035TIP3    H2 3070   4.551   0.612   1.984
 1036TIP3   OH2 3071   1.080   2.223   4.582
 1036TIP3    H1 3072   1.175   2.218   4.590
 1036TIP3    H2 3073   1.046   2.180   4.660
 1037TIP3   OH2 3074   2.530   5.186   4.526
 1037TIP3    H1 3075   2.448   5.185   4.477
 1037TIP3    H2 3076   2.531   5.103   4.573
 1038TIP3   OH2 3077   0.366   4.819   4.268
 1038TIP3    H1 3078   0.381   4.894   4.325
 1038TIP3    H2 3079   0.297   4.769   4.310
 1039TIP3   OH2 3080   3.726   2.948   0.751
 1039TIP3    H1 3081   3.758   2.915   0.668
 1039TIP3    H2 3082   3.708   3.041   0.735
 1040TIP3   OH2 3083   4.569   1.188   0.575
 1040TIP3    H1 3084   4.570   1.217   0.666
 1040TIP3    H2 3085   4.500   1.241   0.534
 1041TIP3   OH2 3086   1.873   5.201   2.560
 1041TIP3    H1 3087   1.930   5.216   2.635
 1041TIP3    H2 3088   1.816   5.279   2.557
 1042TIP3   OH2 3089   6.153   2.387   1.212
 1042TIP3    H1 3090   6.220   2.326   1.243
 1042TIP3    H2 3091   6.074   2.362   1.260
 1043TIP3   OH2 3092   0.504   6.471   2.366
 1043TIP3    H1 3093   0.582   6.466   2.310
 1043TIP3    H2 3094   0.430   6.461   2.306
 1044TIP3   OH2 3095   3.815   6.575   4.231
 1044TIP3    H1 3096   3.772   6.574   4.145
 1044TIP3    H2 3097   3.878   6.647   4.225
 1045TIP3   OH2 3098   0.336   2.381   3.041
 1045TIP3    H1 3099   0.267   2.447   3.037
 1045TIP3    H2 3100   0.298   2.309   3.090
 1046TIP3   OH2 3101   2.557   5.840   5.832
 1046TIP3    H1 3102   2.575   5.901   5.904
 1046TIP3    H2 3103   2.643   5.804   5.809
 1047TIP3   OH2 3104   1.139   3.481   1.868
 1047TIP3    H1 3105   1.060   3.430   1.885
 1047TIP3    H2 3106   1.111   3.550   1.808
 1048TIP3   OH2 3107   6.251   3.028   3.165
 1048TIP3    H1 3108   6.326   2.973   3.142
 1048TIP3    H2 3109   6.289   3.105   3.207
 1049TIP3   OH2 3110   3.937   5.848   2.204
 1049TIP3    H1 3111   4.025   5.822   2.177
 1049TIP3    H2 3112   3.893   5.766   2.225
 1050TIP3   OH2 3113   2.435   1.565   1.811
 1050TIP3    H1 3114   2.486   1.493   1.848
 1050TIP3    H2 3115   2.397   1.610   1.886
 1051TIP3   OH2 3116   3.738   4.781   2.158
 1051TIP3    H1 3117   3.735   4.765   2.064
 1051TIP3    H2 3118   3.820   4.742   2.188
 1052TIP3   OH2 3119   5.352   5.298   3.298
 1052TIP3    H1 3120   5.331   5.328   3.210
 1052TIP3    H2 3121   5.296   5.221   3.311
 1053TIP3   OH2 3122   5.958   1.664   4.185
 1053TIP3    H1 3123   5.913   1.745   4.160
 1053TIP3    H2 3124   5.999   1.685   4.269
 1054TIP3   OH2 3125   3.627   4.891   1.174
 1054TIP3    H1 3126   3.673   4.832   1.233
 1054TIP3    H2 3127   3.585   4.955   1.231
 1055TIP3   OH2 3128   2.197   1.840   4.988
 1055TIP3    H1 3129   2.227   1.828   5.078
 1055TIP3    H2 3130   2.165   1.930   4.985
 1056TIP3   OH2 3131   3.327   1.410   3.510
 1056TIP3    H1 3132   3.377   1.465   3.449
 1056TIP3    H2 3133   3.252   1.464   3.535
 1057TIP3   OH2 3134   3.819   4.385   3.380
 1057TIP3    H1 3135   3.760   4.318   3.414
 1057TIP3    H2 3136   3.865   4.340   3.308
 1058TIP3   OH2 3137   3.128   1.903   5.821
 1058TIP3    H1 3138   3.142   1.865   5.734
 1058TIP3    H2 3139   3.203   1.961   5.833
 1059TIP3   OH2 3140   6.205   5.773   4.220
 1059TIP3    H1 3141   6.237   5.821   4.296
 1059TIP3    H2 3142   6.213   5.835   4.147
 1060TIP3   OH2 3143   1.839   5.887   1.027
 1060TIP3    H1 3144   1.778   5.859   1.096
 1060TIP3    H2 3145   1.814   5.836   0.950
 1061TIP3   OH2 3146   3.648   6.410   1.840
 1061TIP3    H1 3147   3.611   6.323   1.824
 1061TIP3    H2 3148   3.645   6.454   1.755
 1062TIP3   OH2 3149   3.093   5.391   1.523
 1062TIP3    H1 3150   3.144   5.408   1.602
 1062TIP3    H2 3151   3.115   5.464   1.464
 1063TIP3   OH2 3152   2.353   5.143   0.640
 1063TIP3    H1 3153   2.335   5.212   0.576
 1063TIP3    H2 3154   2.351   5.062   0.590
 1064TIP3   OH2 3155   2.704   0.766   1.232
 1064TIP3    H1 3156   2.656   0.832   1.183
 1064TIP3    H2 3157   2.635   0.708   1.266
 1065TIP3   OH2 3158   0.701   3.273   3.986
 1065TIP3    H1 3159   0.623   3.328   3.992
 1065TIP3    H2 3160   0.692   3.228   3.901
 1066TIP3   OH2 3161   1.879   3.631   2.003
 1066TIP3    H1 3162   1.972   3.647   2.020
 1066TIP3    H2 3163   1.876   3.540   1.973
 1067TIP3   OH2 3164   5.604   2.960   4.358
 1067TIP3    H1 3165   5.690   2.941   4.320
 1067TIP3    H2 3166   5.543   2.905   4.309
 1068TIP3   OH2 3167   5.606   4.603   3.926
 1068TIP3    H1 3168   5.542   4.563   3.985
 1068TIP3    H2 3169   5.561   4.606   3.841
 1069TIP3   OH2 3170   6.775   5.326   3.985
 1069TIP3    H1 3171   6.702   5.321   3.923
 1069TIP3    H2 3172   6.838   5.386   3.944
 1070TIP3   OH2 3173   3.869   1.179   3.209
 1070TIP3    H1 3174   3.906   1.093   3.229
 1070TIP3    H2 3175   3.777   1.162   3.190
 1071TIP3   OH2 3176   1.407   1.224   0.182
 1071TIP3    H1 3177   1.362   1.149   0.221
 1071TIP3    H2 3178   1.484   1.186   0.139
 1072TIP3   OH2 3179   4.490   4.988   1.941
 1072TIP3    H1 3180   4.468   5.076   1.911
 1072TIP3    H2 3181   4.406   4.942   1.942
 1073TIP3   OH2 3182   1.943   5.231   5.743
 1073TIP3    H1 3183   1.932   5.290   5.818
 1073TIP3    H2 3184   2.002   5.278   5.684
 1074TIP3   OH2 3185   5.847   6.124   0.334
 1074TIP3    H1 3186   5.820   6.063   0.266
 1074TIP3    H2 3187   5.769   6.178   0.351
 1075TIP3   OH2 3188   0.289   3.656   5.253
 1075TIP3    H1 3189   0.230   3.715   5.301
 1075TIP3    H2 3190   0.232   3.604   5.197
 1076TIP3   OH2 3191   5.586   2.383   4.946
 1076TIP3    H1 3192   5.621   2.300   4.914
 1076TIP3    H2 3193   5.662   2.429   4.983
 1077TIP3   OH2 3194   5.020   2.201   3.708
 1077TIP3    H1 3195   4.988   2.243   3.787
 1077TIP3    H2 3196   5.021   2.108   3.728
 1078TIP3   OH2 3197   3.718   3.404   4.679
 1078TIP3    H1 3198   3.732   3.490   4.718
 1078TIP3    H2 3199   3.795   3.353   4.704
 1079TIP3   OH2 3200   3.094   1.439   5.762
 1079TIP3    H1 3201   3.185   1.448   5.734
 1079TIP3    H2 3202   3.052   1.390   5.691
 1080TIP3   OH2 3203   3.635   1.217   2.608
 1080TIP3    H1 3204   3.651   1.216   2.514
 1080TIP3    H2 3205   3.690   1.148   2.643
 1081TIP3   OH2 3206   7.164   5.850   2.841
 1081TIP3    H1 3207   7.172   5.776   2.901
 1081TIP3    H2 3208   7.080   5.837   2.797
 1082TIP3   OH2 3209   0.107   5.062   5.255
 1082TIP3    H1 3210   0.077   5.153   5.264
 1082TIP3    H2 3211   0.137   5.038   5.342
 1083TIP3   OH2 3212   2.902   1.223   2.439
 1083TIP3    H1 3213   2.995   1.208   2.422
 1083TIP3    H2 3214   2.859   1.194   2.359
 1084TIP3   OH2 3215   3.178   4.459   0.960
 1084TIP3    H1 3216   3.167   4.393   1.028
 1084TIP3    H2 3217   3.098   4.454   0.908
 1085TIP3   OH2 3218   2.696   0.875   5.213
 1085TIP3    H1 3219   2.736   0.852   5.130
 1085TIP3    H2 3220   2.607   0.902   5.191
 1086TIP3   OH2 3221   4.725   5.779   1.969
 1086TIP3    H1 3222   4.679   5.727   1.903
 1086TIP3    H2 3223   4.794   5.824   1.920
 1087TIP3   OH2 3224   1.143   0.309   2.603
 1087TIP3    H1 3225   1.237   0.321   2.592
 1087TIP3    H2 3226   1.135   0.251   2.679
 1088TIP3   OH2 3227   2.403   6.557   1.927
 1088TIP3    H1 3228   2.435   6.575   1.838
 1088TIP3    H2 3229   2.320   6.512   1.914
 1089TIP3   OH2 3230   1.721   4.482   0.916
 1089TIP3    H1 3231   1.713   4.488   1.012
 1089TIP3    H2 3232   1.655   4.542   0.883
 1090TIP3   OH2 3233   6.155   5.537   5.458
 1090TIP3    H1 3234   6.235   5.506   5.502
 1090TIP3    H2 3235   6.113   5.457   5.426
 1091TIP3   OH2 3236   6.703   2.241   2.757
 1091TIP3    H1 3237   6.621   2.291   2.764
 1091TIP3    H2 3238   6.678   2.151   2.776
 1092TIP3   OH2 3239   1.946   2.754   5.462
 1092TIP3    H1 3240   2.017   2.751   5.398
 1092TIP3    H2 3241   1.982   2.715   5.541
 1093TIP3   OH2 3242   4.478   2.962   2.856
 1093TIP3    H1 3243   4.532   2.909   2.797
 1093TIP3    H2 3244   4.432   2.898   2.911
 1094TIP3   OH2 3245   3.031   4.173   3.702
 1094TIP3    H1 3246   3.062   4.144   3.788
 1094TIP3    H2 3247   2.975   4.248   3.722
 1095TIP3   OH2 3248   5.255   0.528   0.072
 1095TIP3    H1 3249   5.336   0.480   0.057
 1095TIP3    H2 3250   5.247   0.533   0.167
 1096TIP3   OH2 3251   2.235   0.346   5.352
 1096TIP3    H1 3252   2.281   0.402   5.290
 1096TIP3    H2 3253   2.250   0.257   5.320
 1097TIP3   OH2 3254   0.677   1.439   3.851
 1097TIP3    H1 3255   0.604   1.488   3.813
 1097TIP3    H2 3256   0.737   1.424   3.779
 1098TIP3   OH2 3257   0.422   0.073   3.243
 1098TIP3    H1 3258   0.340   0.044   3.205
 1098TIP3    H2 3259   0.413   0.054   3.337
 1099TIP3   OH2 3260   4.224   0.473   3.139
 1099TIP3    H1 3261   4.283   0.398   3.150
 1099TIP3    H2 3262   4.212   0.507   3.228
 1100TIP3   OH2 3263   1.735   0.345   1.688
 1100TIP3    H1 3264   1.644   0.345   1.718
 1100TIP3    H2 3265   1.764   0.254   1.699
 1101TIP3   OH2 3266   4.982   2.324   3.978
 1101TIP3    H1 3267   4.931   2.256   4.023
 1101TIP3    H2 3268   4.962   2.404   4.026
 1102TIP3   OH2 3269   2.204   0.074   3.900
 1102TIP3    H1 3270   2.216  -0.003   3.844
 1102TIP3    H2 3271   2.243   0.146   3.850
 1103TIP3   OH2 3272   2.918   3.414   0.704
 1103TIP3    H1 3273   2.905   3.508   0.691
 1103TIP3    H2 3274   2.917   3.403   0.799
 1104TIP3   OH2 3275   5.197   1.237   0.901
 1104TIP3    H1 3276   5.261   1.217   0.832
 1104TIP3    H2 3277   5.171   1.152   0.935
 1105TIP3   OH2 3278   3.231   5.353   3.214
 1105TIP3    H1 3279   3.178   5.378   3.138
 1105TIP3    H2 3280   3.238   5.433   3.266
 1106TIP3   OH2 3281   1.514   1.535   4.292
 1106TIP3    H1 3282   1.469   1.462   4.334
 1106TIP3    H2 3283   1.556   1.495   4.215
 1107TIP3   OH2 3284   7.203   4.298   1.161
 1107TIP3    H1 3285   7.160   4.221   1.124
 1107TIP3    H2 3286   7.168   4.371   1.110
 1108TIP3   OH2 3287   2.803   1.640   1.193
 1108TIP3    H1 3288   2.756   1.557   1.206
 1108TIP3    H2 3289   2.896   1.616   1.203
 1109TIP3   OH2 3290   1.416   0.332   0.113
 1109TIP3    H1 3291   1.389   0.317   0.204
 1109TIP3    H2 3292   1.499   0.379   0.119
 1110TIP3   OH2 3293   5.013   2.573   0.027
 1110TIP3    H1 3294   5.104   2.550   0.047
 1110TIP3    H2 3295   4.964   2.491   0.040
 1111TIP3   OH2 3296   3.694   0.074   2.294
 1111TIP3    H1 3297   3.690   0.002   2.231
 1111TIP3    H2 3298   3.721   0.033   2.376
 1112TIP3   OH2 3299   5.078   5.030   4.126
 1112TIP3    H1 3300   5.060   5.123   4.136
 1112TIP3    H2 3301   5.073   4.994   4.214
 1113TIP3   OH2 3302   1.602   1.939   4.673
 1113TIP3    H1 3303   1.537   1.878   4.708
 1113TIP3    H2 3304   1.567   1.965   4.588
 1114TIP3   OH2 3305   2.557   5.131   1.089
 1114TIP3    H1 3306   2.539   5.182   1.168
 1114TIP3    H2 3307   2.539   5.191   1.017
 1115TIP3   OH2 3308   3.247   4.334   1.898
 1115TIP3    H1 3309   3.185   4.273   1.858
 1115TIP3    H2 3310   3.199   4.374   1.970
 1116TIP3   OH2 3311   5.043   2.326   4.997
 1116TIP3    H1 3312   5.117   2.382   5.020
 1116TIP3    H2 3313   5.045   2.255   5.061
 1117TIP3   OH2 3314   6.707   3.247   5.923
 1117TIP3    H1 3315   6.612   3.256   5.933
 1117TIP3    H2 3316   6.720   3.231   5.830
 1118TIP3   OH2 3317   6.013   1.180   4.560
 1118TIP3    H1 3318   6.004   1.091   4.593
 1118TIP3    H2 3319   5.960   1.234   4.619
 1119TIP3   OH2 3320   7.078   3.821   1.391
 1119TIP3    H1 3321   7.054   3.748   1.449
 1119TIP3    H2 3322   7.167   3.843   1.417
 1120TIP3   OH2 3323   5.958   0.559   4.277
 1120TIP3    H1 3324   5.874   0.568   4.323
 1120TIP3    H2 3325   6.022   0.548   4.347
 1121TIP3   OH2 3326   5.854   3.500   4.857
 1121TIP3    H1 3327   5.824   3.506   4.948
 1121TIP3    H2 3328   5.790   3.552   4.808
 1122TIP3   OH2 3329   7.044   3.424   5.382
 1122TIP3    H1 3330   7.048   3.329   5.382
 1122TIP3    H2 3331   7.114   3.452   5.442
 1123TIP3   OH2 3332   3.123   6.037   1.462
 1123TIP3    H1 3333   3.202   5.982   1.460
 1123TIP3    H2 3334   3.134   6.090   1.541
 1124TIP3   OH2 3335   0.007   5.826   5.092
 1124TIP3    H1 3336   0.036   5.913   5.064
 1124TIP3    H2 3337  -0.071   5.809   5.040
 1125TIP3   OH2 3338   3.610   2.622   1.262
 1125TIP3    H1 3339   3.610   2.534   1.224
 1125TIP3    H2 3340   3.561   2.674   1.198
 1126TIP3   OH2 3341   6.200   5.509   0.217
 1126TIP3    H1 3342   6.241   5.595   0.226
 1126TIP3    H2 3343   6.106   5.528   0.214
 1127TIP3   OH2 3344   5.676   4.179   2.301
 1127TIP3    H1 3345   5.725   4.260   2.314
 1127TIP3    H2 3346   5.667   4.142   2.389
 1128TIP3   OH2 3347   4.601   2.944   1.607
 1128TIP3    H1 3348   4.584   3.021   1.661
 1128TIP3    H2 3349   4.562   2.964   1.522
 1129TIP3   OH2 3350   3.718   5.082   1.006
 1129TIP3    H1 3351   3.710   5.000   1.055
 1129TIP3    H2 3352   3.634   5.090   0.960
 1130TIP3   OH2 3353   6.293   1.089   2.116
 1130TIP3    H1 3354   6.365   1.033   2.143
 1130TIP3    H2 3355   6.322   1.178   2.139
 1131TIP3   OH2 3356   3.501   0.428   3.701
 1131TIP3    H1 3357   3.460   0.361   3.647
 1131TIP3    H2 3358   3.440   0.502   3.699
 1132TIP3   OH2 3359   2.702   6.406   0.320
 1132TIP3    H1 3360   2.688   6.357   0.239
 1132TIP3    H2 3361   2.792   6.387   0.345
 1133TIP3   OH2 3362   2.924   3.060   5.785
 1133TIP3    H1 3363   2.912   3.036   5.693
 1133TIP3    H2 3364   2.839   3.046   5.825
 1134TIP3   OH2 3365   7.115   0.927   5.663
 1134TIP3    H1 3366   7.202   0.903   5.696
 1134TIP3    H2 3367   7.083   0.847   5.621
 1135TIP3   OH2 3368   3.958   6.521   2.967
 1135TIP3    H1 3369   4.014   6.480   2.900
 1135TIP3    H2 3370   3.871   6.487   2.948
 1136TIP3   OH2 3371   7.202   3.134   0.835
 1136TIP3    H1 3372   7.127   3.083   0.804
 1136TIP3    H2 3373   7.254   3.071   0.886
 1137TIP3   OH2 3374   0.536   4.579   0.279
 1137TIP3    H1 3375   0.610   4.639   0.293
 1137TIP3    H2 3376   0.577   4.496   0.256
 1138TIP3   OH2 3377   0.049   0.659   4.200
 1138TIP3    H1 3378  -0.034   0.614   4.214
 1138TIP3    H2 3379   0.099   0.600   4.144
 1139TIP3   OH2 3380   0.260   3.727   1.290
 1139TIP3    H1 3381   0.272   3.766   1.203
 1139TIP3    H2 3382   0.349   3.710   1.320
 1140TIP3   OH2 3383   7.115   1.324   2.564
 1140TIP3    H1 3384   7.131   1.292   2.653
 1140TIP3    H2 3385   7.030   1.287   2.540
 1141TIP3   OH2 3386   6.025   6.206   5.040
 1141TIP3    H1 3387   5.956   6.147   5.008
 1141TIP3    H2 3388   6.102   6.149   5.048
 1142TIP3   OH2 3389   3.245   4.974   3.549
 1142TIP3    H1 3390   3.288   5.032   3.612
 1142TIP3    H2 3391   3.293   4.988   3.468
 1143TIP3   OH2 3392   6.862   3.680   4.413
 1143TIP3    H1 3393   6.835   3.589   4.406
 1143TIP3    H2 3394   6.914   3.684   4.493
 1144TIP3   OH2 3395   2.018   3.015   1.987
 1144TIP3    H1 3396   2.088   2.989   2.047
 1144TIP3    H2 3397   1.988   3.099   2.020
 1145TIP3   OH2 3398   2.076   6.133   4.059
 1145TIP3    H1 3399   2.011   6.197   4.089
 1145TIP3    H2 3400   2.030   6.083   3.991
 1146TIP3   OH2 3401   0.912   4.657   1.524
 1146TIP3    H1 3402   0.955   4.611   1.596
 1146TIP3    H2 3403   0.867   4.730   1.567
 1147TIP3   OH2 3404   0.330   1.783   2.758
 1147TIP3    H1 3405   0.320   1.859   2.815
 1147TIP3    H2 3406   0.381   1.815   2.683
 1148TIP3   OH2 3407   2.724   5.572   3.249
 1148TIP3    H1 3408   2.759   5.586   3.337
 1148TIP3    H2 3409   2.702   5.479   3.247
 1149TIP3   OH2 3410   3.943   5.397   1.563
 1149TIP3    H1 3411   3.955   5.430   1.652
 1149TIP3    H2 3412   4.027   5.356   1.541
 1150TIP3   OH2 3413   4.183   1.626   3.326
 1150TIP3    H1 3414   4.237   1.670   3.390
 1150TIP3    H2 3415   4.242   1.565   3.282
 1151TIP3   OH2 3416   3.012   0.613   0.894
 1151TIP3    H1 3417   2.921   0.638   0.879
 1151TIP3    H2 3418   3.057   0.696   0.909
 1152TIP3   OH2 3419   2.482   5.640   3.530
 1152TIP3    H1 3420   2.482   5.661   3.624
 1152TIP3    H2 3421   2.423   5.566   3.522
 1153TIP3   OH2 3422   6.069   0.927   1.700
 1153TIP3    H1 3423   5.998   0.977   1.660
 1153TIP3    H2 3424   6.122   0.993   1.745
 1154TIP3   OH2 3425   1.694   1.699   4.410
 1154TIP3    H1 3426   1.639   1.636   4.364
 1154TIP3    H2 3427   1.718   1.764   4.344
 1155TIP3   OH2 3428   1.036   1.258   0.352
 1155TIP3    H1 3429   1.090   1.328   0.317
 1155TIP3    H2 3430   0.992   1.297   0.428
 1156TIP3   OH2 3431   3.828   0.431   3.757
 1156TIP3    H1 3432   3.856   0.353   3.709
 1156TIP3    H2 3433   3.732   0.427   3.756
 1157TIP3   OH2 3434   1.834   2.017   2.611
 1157TIP3    H1 3435   1.815   1.939   2.664
 1157TIP3    H2 3436   1.862   1.982   2.526
 1158TIP3   OH2 3437   1.885   5.984   3.601
 1158TIP3    H1 3438   1.853   5.936   3.679
 1158TIP3    H2 3439   1.828   5.954   3.530
 1159TIP3   OH2 3440   6.381   5.196   4.133
 1159TIP3    H1 3441   6.472   5.223   4.147
 1159TIP3    H2 3442   6.336   5.276   4.106
 1160TIP3   OH2 3443   6.184   0.235   3.489
 1160TIP3    H1 3444   6.143   0.180   3.556
 1160TIP3    H2 3445   6.161   0.324   3.514
 1161TIP3   OH2 3446   0.532   5.591   5.070
 1161TIP3    H1 3447   0.473   5.541   5.126
 1161TIP3    H2 3448   0.539   5.538   4.990
 1162TIP3   OH2 3449   3.639   2.240   5.702
 1162TIP3    H1 3450   3.662   2.150   5.728
 1162TIP3    H2 3451   3.623   2.285   5.785
 1163TIP3   OH2 3452   0.789   2.539   0.339
 1163TIP3    H1 3453   0.858   2.482   0.305
 1163TIP3    H2 3454   0.833   2.621   0.361
 1164TIP3   OH2 3455   4.836   6.607   0.210
 1164TIP3    H1 3456   4.855   6.543   0.278
 1164TIP3    H2 3457   4.880   6.687   0.238
 1165TIP3   OH2 3458   7.082   2.221   0.369
 1165TIP3    H1 3459   7.122   2.292   0.319
 1165TIP3    H2 3460   7.082   2.253   0.460
 1166TIP3   OH2 3461   2.281   4.446   5.504
 1166TIP3    H1 3462   2.360   4.428   5.554
 1166TIP3    H2 3463   2.210   4.412   5.559
 1167TIP3   OH2 3464   6.552   4.260   3.132
 1167TIP3    H1 3465   6.512   4.184   3.173
 1167TIP3    H2 3466   6.551   4.241   3.039
 1168TIP3   OH2 3467   1.482   6.473   5.269
 1168TIP3    H1 3468   1.406   6.530   5.254
 1168TIP3    H2 3469   1.512   6.497   5.357
 1169TIP3   OH2 3470   1.379   4.652   0.414
 1169TIP3    H1 3471   1.385   4.730   0.468
 1169TIP3    H2 3472   1.423   4.675   0.333
 1170TIP3   OH2 3473   2.737   6.357   2.193
 1170TIP3    H1 3474   2.744   6.302   2.115
 1170TIP3    H2 3475   2.776   6.305   2.263
 1171TIP3   OH2 3476   1.777   1.117   1.560
 1171TIP3    H1 3477   1.833   1.040   1.568
 1171TIP3    H2 3478   1.785   1.143   1.468
 1172TIP3   OH2 3479   3.407   6.572   1.854
 1172TIP3    H1 3480   3.363   6.656   1.855
 1172TIP3    H2 3481   3.497   6.592   1.880
 1173TIP3   OH2 3482   4.941   3.472   0.099
 1173TIP3    H1 3483   4.913   3.504   0.014
 1173TIP3    H2 3484   4.989   3.546   0.138
 1174TIP3   OH2 3485   5.900   6.606   3.480
 1174TIP3    H1 3486   5.908   6.583   3.572
 1174TIP3    H2 3487   5.929   6.527   3.433
 1175TIP3   OH2 3488   5.364   5.419   5.068
 1175TIP3    H1 3489   5.331   5.500   5.107
 1175TIP3    H2 3490   5.401   5.446   4.984
 1176TIP3   OH2 3491   6.049   2.550   0.415
 1176TIP3    H1 3492   6.133   2.564   0.460
 1176TIP3    H2 3493   6.044   2.621   0.351
 1177TIP3   OH2 3494   6.308   0.088   5.722
 1177TIP3    H1 3495   6.287   0.074   5.814
 1177TIP3    H2 3496   6.222   0.098   5.680
 1178TIP3   OH2 3497   5.141   4.209   5.111
 1178TIP3    H1 3498   5.214   4.264   5.136
 1178TIP3    H2 3499   5.092   4.260   5.047
 1179TIP3   OH2 3500   4.165   2.429   2.605
 1179TIP3    H1 3501   4.245   2.468   2.641
 1179TIP3    H2 3502   4.194   2.382   2.527
 1180TIP3   OH2 3503   0.759   6.144   3.814
 1180TIP3    H1 3504   0.784   6.091   3.890
 1180TIP3    H2 3505   0.732   6.080   3.748
 1181TIP3   OH2 3506   5.827   3.921   4.617
 1181TIP3    H1 3507   5.834   3.828   4.640
 1181TIP3    H2 3508   5.750   3.926   4.561
 1182TIP3   OH2 3509   1.053   4.568   5.172
 1182TIP3    H1 3510   1.015   4.566   5.084
 1182TIP3    H2 3511   1.094   4.654   5.179
 1183TIP3   OH2 3512   1.493   3.095   3.469
 1183TIP3    H1 3513   1.424   3.131   3.524
 1183TIP3    H2 3514   1.510   3.163   3.404
 1184TIP3   OH2 3515   5.006   4.634   4.360
 1184TIP3    H1 3516   4.961   4.707   4.318
 1184TIP3    H2 3517   4.947   4.560   4.349
 1185TIP3   OH2 3518   1.209   0.726   1.715
 1185TIP3    H1 3519   1.125   0.736   1.670
 1185TIP3    H2 3520   1.237   0.815   1.734
 1186TIP3   OH2 3521   6.646   2.554   1.170
 1186TIP3    H1 3522   6.728   2.593   1.203
 1186TIP3    H2 3523   6.580   2.580   1.234
 1187TIP3   OH2 3524   4.067   2.244   0.499
 1187TIP3    H1 3525   3.983   2.203   0.521
 1187TIP3    H2 3526   4.070   2.322   0.555
 1188TIP3   OH2 3527   6.832   5.763   0.048
 1188TIP3    H1 3528   6.927   5.763   0.041
 1188TIP3    H2 3529   6.814   5.779   0.141
 1189TIP3   OH2 3530   1.692   0.849   1.870
 1189TIP3    H1 3531   1.731   0.776   1.821
 1189TIP3    H2 3532   1.614   0.872   1.819
 1190TIP3   OH2 3533   0.659   5.635   2.962
 1190TIP3    H1 3534   0.654   5.688   2.883
 1190TIP3    H2 3535   0.753   5.626   2.979
 1191TIP3   OH2 3536   1.105   3.967   3.394
 1191TIP3    H1 3537   1.037   4.015   3.346
 1191TIP3    H2 3538   1.179   4.027   3.397
 1192TIP3   OH2 3539   4.436   1.118   3.495
 1192TIP3    H1 3540   4.461   1.209   3.505
 1192TIP3    H2 3541   4.373   1.102   3.566
 1193TIP3   OH2 3542   3.282   5.657   5.379
 1193TIP3    H1 3543   3.281   5.724   5.447
 1193TIP3    H2 3544   3.204   5.604   5.397
 1194TIP3   OH2 3545   4.912   0.232   1.338
 1194TIP3    H1 3546   4.847   0.193   1.396
 1194TIP3    H2 3547   4.986   0.172   1.341
 1195TIP3   OH2 3548   6.274   1.238   1.647
 1195TIP3    H1 3549   6.260   1.199   1.734
 1195TIP3    H2 3550   6.269   1.332   1.662
 1196TIP3   OH2 3551   1.671   5.350   5.693
 1196TIP3    H1 3552   1.613   5.291   5.741
 1196TIP3    H2 3553   1.754   5.302   5.688
 1197TIP3   OH2 3554   2.669   2.527   1.073
 1197TIP3    H1 3555   2.642   2.522   0.981
 1197TIP3    H2 3556   2.689   2.437   1.097
 1198TIP3   OH2 3557   2.927   5.008   5.321
 1198TIP3    H1 3558   2.918   4.992   5.415
 1198TIP3    H2 3559   2.857   4.957   5.281
 1199TIP3   OH2 3560   1.606   2.953   1.850
 1199TIP3    H1 3561   1.528   2.975   1.798
 1199TIP3    H2 3562   1.571   2.919   1.932
 1200TIP3   OH2 3563   3.890   0.188   5.583
 1200TIP3    H1 3564   3.864   0.246   5.512
 1200TIP3    H2 3565   3.910   0.105   5.540
 1201TIP3   OH2 3566   0.982   4.523   0.111
 1201TIP3    H1 3567   0.977   4.473   0.029
 1201TIP3    H2 3568   0.913   4.589   0.102
 1202TIP3   OH2 3569   4.656   3.968   1.798
 1202TIP3    H1 3570   4.634   4.061   1.802
 1202TIP3    H2 3571   4.654   3.939   1.889
 1203TIP3   OH2 3572   4.152   0.021   3.001
 1203TIP3    H1 3573   4.225   0.038   2.941
 1203TIP3    H2 3574   4.140  -0.074   2.997
 1204TIP3   OH2 3575   1.892   0.722   3.192
 1204TIP3    H1 3576   1.857   0.716   3.281
 1204TIP3    H2 3577   1.893   0.816   3.173
 1205TIP3   OH2 3578   1.518   4.907   5.804
 1205TIP3    H1 3579   1.534   4.830   5.750
 1205TIP3    H2 3580   1.461   4.876   5.874
 1206TIP3   OH2 3581   1.138   6.239   2.761
 1206TIP3    H1 3582   1.160   6.328   2.790
 1206TIP3    H2 3583   1.192   6.225   2.683
 1207TIP3   OH2 3584   1.319   2.757   3.189
 1207TIP3    H1 3585   1.291   2.838   3.148
 1207TIP3    H2 3586   1.386   2.783   3.252
 1208TIP3   OH2 3587   5.755   3.370   1.544
 1208TIP3    H1 3588   5.676   3.412   1.511
 1208TIP3    H2 3589   5.816   3.373   1.470
 1209TIP3   OH2 3590   4.270   5.901   3.035
 1209TIP3    H1 3591   4.366   5.905   3.037
 1209TIP3    H2 3592   4.246   5.851   3.112
 1210TIP3   OH2 3593   2.682   2.156   1.899
 1210TIP3    H1 3594   2.654   2.164   1.990
 1210TIP3    H2 3595   2.606   2.181   1.848
 1211TIP3   OH2 3596   2.026   0.325   1.295
 1211TIP3    H1 3597   2.044   0.405   1.244
 1211TIP3    H2 3598   2.011   0.357   1.384
 1212TIP3   OH2 3599   5.404   6.397   3.724
 1212TIP3    H1 3600   5.418   6.333   3.794
 1212TIP3    H2 3601   5.477   6.459   3.733
 1213TIP3   OH2 3602   4.274   6.159   2.722
 1213TIP3    H1 3603   4.296   6.240   2.676
 1213TIP3    H2 3604   4.233   6.188   2.803
 1214TIP3   OH2 3605   0.706   0.130   5.057
 1214TIP3    H1 3606   0.628   0.181   5.081
 1214TIP3    H2 3607   0.672   0.043   5.038
 1215TIP3   OH2 3608   3.281   6.404   0.868
 1215TIP3    H1 3609   3.357   6.459   0.882
 1215TIP3    H2 3610   3.312   6.333   0.812
 1216TIP3   OH2 3611   1.858   4.371   1.281
 1216TIP3    H1 3612   1.784   4.322   1.245
 1216TIP3    H2 3613   1.878   4.328   1.364
 1217TIP3   OH2 3614   2.365   0.996   1.981
 1217TIP3    H1 3615   2.389   1.085   1.953
 1217TIP3    H2 3616   2.449   0.950   1.988
 1218TIP3   OH2 3617   2.682   3.911   3.099
 1218TIP3    H1 3618   2.621   3.891   3.170
 1218TIP3    H2 3619   2.768   3.883   3.133
 1219TIP3   OH2 3620   3.698   0.699   2.709
 1219TIP3    H1 3621   3.732   0.610   2.707
 1219TIP3    H2 3622   3.613   0.691   2.751
 1220TIP3   OH2 3623   4.489   5.581   4.856
 1220TIP3    H1 3624   4.513   5.491   4.880
 1220TIP3    H2 3625   4.415   5.571   4.796
 1221TIP3   OH2 3626   5.995   2.142   4.044
 1221TIP3    H1 3627   6.052   2.163   4.118
 1221TIP3    H2 3628   6.012   2.212   3.981
 1222TIP3   OH2 3629   4.656   2.605   1.971
 1222TIP3    H1 3630   4.597   2.566   2.036
 1222TIP3    H2 3631   4.701   2.675   2.019
 1223TIP3   OH2 3632   5.027   0.467   5.429
 1223TIP3    H1 3633   5.065   0.380   5.422
 1223TIP3    H2 3634   4.950   0.465   5.372
 1224TIP3   OH2 3635   2.322   6.244   2.810
 1224TIP3    H1 3636   2.268   6.319   2.836
 1224TIP3    H2 3637   2.299   6.176   2.874
 1225TIP3   OH2 3638   4.689   3.207   2.060
 1225TIP3    H1 3639   4.775   3.180   2.091
 1225TIP3    H2 3640   4.627   3.154   2.111
 1226TIP3   OH2 3641   5.829   1.962   2.476
 1226TIP3    H1 3642   5.751   1.988   2.523
 1226TIP3    H2 3643   5.827   1.866   2.476
 1227TIP3   OH2 3644   1.912   0.992   5.779
 1227TIP3    H1 3645   1.853   1.049   5.729
 1227TIP3    H2 3646   1.977   1.051   5.817
 1228TIP3   OH2 3647   2.497   0.021   4.501
 1228TIP3    H1 3648   2.448  -0.013   4.576
 1228TIP3    H2 3649   2.511   0.113   4.521
 1229TIP3   OH2 3650   1.840   5.423   1.184
 1229TIP3    H1 3651   1.876   5.448   1.099
 1229TIP3    H2 3652   1.891   5.346   1.210
 1230TIP3   OH2 3653   6.028   3.522   5.705
 1230TIP3    H1 3654   6.029   3.445   5.763
 1230TIP3    H2 3655   5.953   3.507   5.647
 1231TIP3   OH2 3656   5.802   1.394   3.525
 1231TIP3    H1 3657   5.713   1.362   3.510
 1231TIP3    H2 3658   5.794   1.457   3.596
 1232TIP3   OH2 3659   3.497   1.290   2.075
 1232TIP3    H1 3660   3.548   1.209   2.085
 1232TIP3    H2 3661   3.416   1.262   2.032
 1233TIP3   OH2 3662   2.106   4.615   4.177
 1233TIP3    H1 3663   2.055   4.536   4.158
 1233TIP3    H2 3664   2.086   4.635   4.268
 1234TIP3   OH2 3665   3.715   5.119   0.169
 1234TIP3    H1 3666   3.643   5.179   0.148
 1234TIP3    H2 3667   3.680   5.032   0.151
 1235TIP3   OH2 3668   6.989   6.445   1.182
 1235TIP3    H1 3669   6.929   6.371   1.196
 1235TIP3    H2 3670   6.982   6.497   1.262
 1236TIP3   OH2 3671   2.443   5.304   0.077
 1236TIP3    H1 3672   2.497   5.226   0.065
 1236TIP3    H2 3673   2.444   5.319   0.172
 1237TIP3   OH2 3674   3.812   3.539   0.831
 1237TIP3    H1 3675   3.742   3.479   0.805
 1237TIP3    H2 3676   3.859   3.558   0.750
 1238TIP3   OH2 3677   4.016   5.454   0.285
 1238TIP3    H1 3678   3.984   5.543   0.275
 1238TIP3    H2 3679   4.031   5.444   0.379
 1239TIP3   OH2 3680   2.757   2.799   2.404
 1239TIP3    H1 3681   2.777   2.868   2.468
 1239TIP3    H2 3682   2.661   2.802   2.395
 1240TIP3   OH2 3683   4.284   5.822   1.542
 1240TIP3    H1 3684   4.249   5.733   1.533
 1240TIP3    H2 3685   4.378   5.809   1.557
 1241TIP3   OH2 3686   4.768   4.304   5.268
 1241TIP3    H1 3687   4.802   4.338   5.351
 1241TIP3    H2 3688   4.761   4.381   5.211
 1242TIP3   OH2 3689   1.446   3.043   3.080
 1242TIP3    H1 3690   1.475   2.988   3.153
 1242TIP3    H2 3691   1.526   3.089   3.052
 1243TIP3   OH2 3692   5.278   2.483   3.100
 1243TIP3    H1 3693   5.212   2.552   3.094
 1243TIP3    H2 3694   5.236   2.412   3.148
 1244TIP3   OH2 3695   0.984   0.763   2.128
 1244TIP3    H1 3696   0.912   0.721   2.081
 1244TIP3    H2 3697   0.974   0.856   2.108
 1245TIP3   OH2 3698   6.442   4.792   4.724
 1245TIP3    H1 3699   6.361   4.827   4.687
 1245TIP3    H2 3700   6.503   4.866   4.722
 1246TIP3   OH2 3701   4.736   4.431   0.885
 1246TIP3    H1 3702   4.727   4.477   0.969
 1246TIP3    H2 3703   4.828   4.441   0.862
 1247TIP3   OH2 3704   4.445   6.365   1.829
 1247TIP3    H1 3705   4.461   6.300   1.761
 1247TIP3    H2 3706   4.423   6.445   1.781
 1248TIP3   OH2 3707   2.477   2.597   3.731
 1248TIP3    H1 3708   2.482   2.651   3.810
 1248TIP3    H2 3709   2.459   2.509   3.763
 1249TIP3   OH2 3710   5.825   3.167   1.722
 1249TIP3    H1 3711   5.809   3.246   1.671
 1249TIP3    H2 3712   5.838   3.197   1.812
 1250TIP3   OH2 3713   2.407   0.967   2.851
 1250TIP3    H1 3714   2.342   0.924   2.795
 1250TIP3    H2 3715   2.448   1.033   2.795
 1251TIP3   OH2 3716   3.107   1.082   4.308
 1251TIP3    H1 3717   3.175   1.028   4.268
 1251TIP3    H2 3718   3.116   1.066   4.402
 1252TIP3   OH2 3719   2.158   2.417   2.573
 1252TIP3    H1 3720   2.247   2.399   2.604
 1252TIP3    H2 3721   2.105   2.420   2.652
 1253TIP3   OH2 3722   1.594   1.763   5.342
 1253TIP3    H1 3723   1.570   1.831   5.405
 1253TIP3    H2 3724   1.593   1.682   5.393
 1254TIP3   OH2 3725   1.316   3.046   1.106
 1254TIP3    H1 3726   1.260   3.003   1.171
 1254TIP3    H2 3727   1.393   2.990   1.099
 1255TIP3   OH2 3728   3.927   5.200   2.213
 1255TIP3    H1 3729   3.981   5.240   2.145
 1255TIP3    H2 3730   3.837   5.226   2.190
 1256TIP3   OH2 3731   3.878   6.395   5.161
 1256TIP3    H1 3732   3.868   6.358   5.249
 1256TIP3    H2 3733   3.927   6.329   5.112
 1257TIP3   OH2 3734   1.777   4.029   5.526
 1257TIP3    H1 3735   1.777   3.962   5.458
 1257TIP3    H2 3736   1.714   4.095   5.496
 1258TIP3   OH2 3737   2.207   1.540   0.384
 1258TIP3    H1 3738   2.183   1.480   0.454
 1258TIP3    H2 3739   2.126   1.553   0.334
 1259TIP3   OH2 3740   1.164   5.304   3.204
 1259TIP3    H1 3741   1.163   5.370   3.134
 1259TIP3    H2 3742   1.132   5.224   3.161
 1260TIP3   OH2 3743   0.522   4.002   1.872
 1260TIP3    H1 3744   0.500   4.001   1.966
 1260TIP3    H2 3745   0.614   4.029   1.869
 1261TIP3   OH2 3746   4.869   2.082   1.933
 1261TIP3    H1 3747   4.830   2.169   1.929
 1261TIP3    H2 3748   4.860   2.048   1.844
 1262TIP3   OH2 3749   2.277   3.204   2.510
 1262TIP3    H1 3750   2.264   3.110   2.506
 1262TIP3    H2 3751   2.221   3.234   2.582
 1263TIP3   OH2 3752   5.911   5.662   1.968
 1263TIP3    H1 3753   5.843   5.618   2.019
 1263TIP3    H2 3754   5.893   5.755   1.979
 1264TIP3   OH2 3755   6.301   0.687   4.926
 1264TIP3    H1 3756   6.217   0.694   4.971
 1264TIP3    H2 3757   6.340   0.607   4.961
 1265TIP3   OH2 3758   0.223   2.820   2.892
 1265TIP3    H1 3759   0.132   2.801   2.915
 1265TIP3    H2 3760   0.228   2.916   2.895
 1266TIP3   OH2 3761   1.491   5.678   0.446
 1266TIP3    H1 3762   1.459   5.712   0.530
 1266TIP3    H2 3763   1.559   5.739   0.419
 1267TIP3   OH2 3764   4.401   0.957   3.084
 1267TIP3    H1 3765   4.443   1.032   3.126
 1267TIP3    H2 3766   4.470   0.891   3.078
 1268TIP3   OH2 3767   0.096   3.786   5.383
 1268TIP3    H1 3768   0.070   3.863   5.332
 1268TIP3    H2 3769   0.046   3.793   5.464
 1269TIP3   OH2 3770   3.824   1.436   3.126
 1269TIP3    H1 3771   3.867   1.351   3.137
 1269TIP3    H2 3772   3.868   1.475   3.051
 1270TIP3   OH2 3773   5.822   0.134   3.699
 1270TIP3    H1 3774   5.764   0.208   3.716
 1270TIP3    H2 3775   5.871   0.123   3.781
 1271TIP3   OH2 3776   1.960   5.366   0.168
 1271TIP3    H1 3777   1.872   5.395   0.192
 1271TIP3    H2 3778   2.001   5.443   0.129
 1272TIP3   OH2 3779   6.391   6.496   4.111
 1272TIP3    H1 3780   6.301   6.521   4.129
 1272TIP3    H2 3781   6.441   6.529   4.186
 1273TIP3   OH2 3782   2.733   5.496   4.748
 1273TIP3    H1 3783   2.665   5.491   4.816
 1273TIP3    H2 3784   2.813   5.468   4.793
 1274TIP3   OH2 3785   6.759   3.928   3.852
 1274TIP3    H1 3786   6.724   3.941   3.764
 1274TIP3    H2 3787   6.681   3.910   3.906
 1275TIP3   OH2 3788   1.526   0.997   5.668
 1275TIP3    H1 3789   1.456   0.932   5.666
 1275TIP3    H2 3790   1.578   0.974   5.745
 1276TIP3   OH2 3791   6.885   1.081   1.218
 1276TIP3    H1 3792   6.805   1.110   1.174
 1276TIP3    H2 3793   6.935   1.036   1.149
 1277TIP3   OH2 3794   0.221   5.455   1.602
 1277TIP3    H1 3795   0.272   5.395   1.549
 1277TIP3    H2 3796   0.263   5.540   1.591
 1278TIP3   OH2 3797   4.402   2.878   0.932
 1278TIP3    H1 3798   4.481   2.826   0.946
 1278TIP3    H2 3799   4.339   2.845   0.996
 1279TIP3   OH2 3800   1.837   2.555   3.625
 1279TIP3    H1 3801   1.912   2.497   3.607
 1279TIP3    H2 3802   1.782   2.548   3.547
 1280TIP3   OH2 3803   6.280   4.928   3.643
 1280TIP3    H1 3804   6.259   4.838   3.616
 1280TIP3    H2 3805   6.196   4.972   3.650
 1281TIP3   OH2 3806   5.238   2.433   0.141
 1281TIP3    H1 3807   5.257   2.341   0.157
 1281TIP3    H2 3808   5.170   2.455   0.205
 1282TIP3   OH2 3809   1.217   4.015   0.351
 1282TIP3    H1 3810   1.164   4.086   0.317
 1282TIP3    H2 3811   1.178   3.936   0.314
 1283TIP3   OH2 3812   1.585   6.813   5.345
 1283TIP3    H1 3813   1.524   6.739   5.352
 1283TIP3    H2 3814   1.540   6.875   5.287
 1284TIP3   OH2 3815   0.757   2.618   1.186
 1284TIP3    H1 3816   0.827   2.616   1.120
 1284TIP3    H2 3817   0.780   2.692   1.242
 1285TIP3   OH2 3818   6.554   2.051   1.127
 1285TIP3    H1 3819   6.641   2.013   1.135
 1285TIP3    H2 3820   6.564   2.141   1.160
 1286TIP3   OH2 3821   1.933   3.195   0.724
 1286TIP3    H1 3822   1.928   3.104   0.753
 1286TIP3    H2 3823   1.952   3.189   0.630
 1287TIP3   OH2 3824   0.596   5.033   5.122
 1287TIP3    H1 3825   0.593   4.994   5.210
 1287TIP3    H2 3826   0.548   4.970   5.067
 1288TIP3   OH2 3827   4.074   5.309   1.993
 1288TIP3    H1 3828   4.091   5.388   1.942
 1288TIP3    H2 3829   4.105   5.238   1.936
 1289TIP3   OH2 3830   2.277   0.641   0.755
 1289TIP3    H1 3831   2.332   0.691   0.694
 1289TIP3    H2 3832   2.339   0.593   0.810
 1290TIP3   OH2 3833   2.203   0.891   5.648
 1290TIP3    H1 3834   2.135   0.958   5.638
 1290TIP3    H2 3835   2.276   0.937   5.690
 1291TIP3   OH2 3836   4.275   2.255   0.330
 1291TIP3    H1 3837   4.347   2.213   0.377
 1291TIP3    H2 3838   4.200   2.248   0.389
 1292TIP3   OH2 3839   2.296   1.532   2.269
 1292TIP3    H1 3840   2.259   1.446   2.248
 1292TIP3    H2 3841   2.239   1.594   2.224
 1293TIP3   OH2 3842   2.939   1.385   2.978
 1293TIP3    H1 3843   3.033   1.370   2.962
 1293TIP3    H2 3844   2.929   1.480   2.972
 1294TIP3   OH2 3845   0.062   5.614   5.702
 1294TIP3    H1 3846  -0.013   5.573   5.745
 1294TIP3    H2 3847   0.107   5.662   5.772
 1295TIP3   OH2 3848   6.964   2.681   4.903
 1295TIP3    H1 3849   7.049   2.641   4.885
 1295TIP3    H2 3850   6.982   2.748   4.969
 1296TIP3   OH2 3851   5.991   5.184   2.807
 1296TIP3    H1 3852   6.034   5.140   2.881
 1296TIP3    H2 3853   5.972   5.114   2.746
 1297TIP3   OH2 3854   4.002   5.258   0.742
 1297TIP3    H1 3855   3.960   5.173   0.735
 1297TIP3    H2 3856   4.036   5.261   0.831
 1298TIP3   OH2 3857   0.495   2.728   5.354
 1298TIP3    H1 3858   0.408   2.690   5.368
 1298TIP3    H2 3859   0.517   2.707   5.264
 1299TIP3   OH2 3860   5.663   3.005   5.901
 1299TIP3    H1 3861   5.731   3.073   5.900
 1299TIP3    H2 3862   5.710   2.925   5.925
 1300TIP3   OH2 3863   1.467   6.741   4.377
 1300TIP3    H1 3864   1.538   6.764   4.318
 1300TIP3    H2 3865   1.422   6.668   4.334
 1301TIP3   OH2 3866   3.626   3.863   4.750
 1301TIP3    H1 3867   3.636   3.772   4.781
 1301TIP3    H2 3868   3.584   3.908   4.823
 1302TIP3   OH2 3869   3.396   4.673   5.758
 1302TIP3    H1 3870   3.387   4.644   5.849
 1302TIP3    H2 3871   3.461   4.613   5.720
 1303TIP3   OH2 3872   5.981   1.009   2.129
 1303TIP3    H1 3873   6.073   1.033   2.118
 1303TIP3    H2 3874   5.933   1.087   2.103
 1304TIP3   OH2 3875   6.123   6.029   0.344
 1304TIP3    H1 3876   6.145   6.022   0.437
 1304TIP3    H2 3877   6.033   6.062   0.342
 1305TIP3   OH2 3878   6.283   3.120   3.481
 1305TIP3    H1 3879   6.321   3.049   3.533
 1305TIP3    H2 3880   6.278   3.194   3.542
 1306TIP3   OH2 3881   0.860   4.474   5.361
 1306TIP3    H1 3882   0.839   4.416   5.288
 1306TIP3    H2 3883   0.899   4.551   5.321
 1307TIP3   OH2 3884   6.429   0.151   1.738
 1307TIP3    H1 3885   6.505   0.123   1.687
 1307TIP3    H2 3886   6.381   0.210   1.679
 1308TIP3   OH2 3887   6.378   1.654   2.277
 1308TIP3    H1 3888   6.429   1.663   2.197
 1308TIP3    H2 3889   6.353   1.744   2.300
 1309TIP3   OH2 3890   1.135   3.559   5.404
 1309TIP3    H1 3891   1.095   3.644   5.416
 1309TIP3    H2 3892   1.139   3.521   5.492
 1310TIP3   OH2 3893   2.063   4.930   2.788
 1310TIP3    H1 3894   2.064   4.856   2.849
 1310TIP3    H2 3895   2.103   4.895   2.708
 1311TIP3   OH2 3896   3.597   2.561   5.622
 1311TIP3    H1 3897   3.504   2.575   5.641
 1311TIP3    H2 3898   3.643   2.608   5.692
 1312TIP3   OH2 3899   6.632   2.369   1.819
 1312TIP3    H1 3900   6.539   2.384   1.832
 1312TIP3    H2 3901   6.661   2.323   1.898
 1313TIP3   OH2 3902   2.955   3.379   4.870
 1313TIP3    H1 3903   2.996   3.357   4.787
 1313TIP3    H2 3904   2.962   3.299   4.922
 1314TIP3   OH2 3905   3.548   3.524   3.905
 1314TIP3    H1 3906   3.615   3.590   3.921
 1314TIP3    H2 3907   3.540   3.521   3.810
 1315TIP3   OH2 3908   4.852   1.054   0.142
 1315TIP3    H1 3909   4.830   1.011   0.059
 1315TIP3    H2 3910   4.907   1.128   0.116
 1316TIP3   OH2 3911   2.760   5.662   5.212
 1316TIP3    H1 3912   2.746   5.569   5.229
 1316TIP3    H2 3913   2.673   5.698   5.196
 1317TIP3   OH2 3914   7.049   4.552   2.455
 1317TIP3    H1 3915   7.119   4.614   2.475
 1317TIP3    H2 3916   6.973   4.586   2.502
 1318TIP3   OH2 3917   6.312   6.475   4.659
 1318TIP3    H1 3918   6.311   6.468   4.755
 1318TIP3    H2 3919   6.238   6.421   4.630
 1319TIP3   OH2 3920   0.114   3.337   1.314
 1319TIP3    H1 3921   0.205   3.365   1.313
 1319TIP3    H2 3922   0.065   3.414   1.287
 1320TIP3   OH2 3923   2.685   1.501   0.082
 1320TIP3    H1 3924   2.601   1.535   0.052
 1320TIP3    H2 3925   2.708   1.433   0.019
 1321TIP3   OH2 3926   0.642   5.498   1.755
 1321TIP3    H1 3927   0.624   5.412   1.718
 1321TIP3    H2 3928   0.631   5.558   1.682
 1322TIP3   OH2 3929   3.860   3.789   1.293
 1322TIP3    H1 3930   3.832   3.733   1.366
 1322TIP3    H2 3931   3.932   3.841   1.328
 1323TIP3   OH2 3932   3.622   4.875   2.767
 1323TIP3    H1 3933   3.649   4.963   2.794
 1323TIP3    H2 3934   3.563   4.845   2.836
 1324TIP3   OH2 3935   1.740   3.879   1.599
 1324TIP3    H1 3936   1.816   3.911   1.551
 1324TIP3    H2 3937   1.756   3.786   1.610
 1325TIP3   OH2 3938   6.148   6.428   1.112
 1325TIP3    H1 3939   6.159   6.522   1.099
 1325TIP3    H2 3940   6.125   6.419   1.204
 1326TIP3   OH2 3941   5.454   0.447   0.974
 1326TIP3    H1 3942   5.440   0.539   0.953
 1326TIP3    H2 3943   5.547   0.440   0.994
 1327TIP3   OH2 3944   1.201   0.284   4.731
 1327TIP3    H1 3945   1.284   0.249   4.699
 1327TIP3    H2 3946   1.225   0.343   4.801
 1328TIP3   OH2 3947   6.250   2.512   3.026
 1328TIP3    H1 3948   6.317   2.450   2.997
 1328TIP3    H2 3949   6.185   2.457   3.070
 1329TIP3   OH2 3950   6.987   0.010   4.879
 1329TIP3    H1 3951   7.053   0.039   4.942
 1329TIP3    H2 3952   6.903   0.033   4.919
 1330TIP3   OH2 3953   2.361   6.113   1.858
 1330TIP3    H1 3954   2.372   6.019   1.876
 1330TIP3    H2 3955   2.323   6.148   1.939
 1331TIP3   OH2 3956   3.657   0.149   4.390
 1331TIP3    H1 3957   3.706   0.198   4.324
 1331TIP3    H2 3958   3.713   0.074   4.411
 1332TIP3   OH2 3959   4.231   4.705   1.613
 1332TIP3    H1 3960   4.318   4.666   1.605
 1332TIP3    H2 3961   4.171   4.634   1.591
 1333TIP3   OH2 3962   4.882   2.972   5.665
 1333TIP3    H1 3963   4.789   2.991   5.652
 1333TIP3    H2 3964   4.926   3.015   5.592
 1334TIP3   OH2 3965   2.890   3.800   4.397
 1334TIP3    H1 3966   2.862   3.709   4.406
 1334TIP3    H2 3967   2.968   3.806   4.453
 1335TIP3   OH2 3968   3.039   5.478   5.228
 1335TIP3    H1 3969   3.015   5.388   5.205
 1335TIP3    H2 3970   3.055   5.475   5.323
 1336TIP3   OH2 3971   1.456   3.587   2.565
 1336TIP3    H1 3972   1.421   3.585   2.476
 1336TIP3    H2 3973   1.428   3.672   2.600
 1337TIP3   OH2 3974   0.311   3.483   1.101
 1337TIP3    H1 3975   0.358   3.409   1.063
 1337TIP3    H2 3976   0.349   3.494   1.188
 1338TIP3   OH2 3977   2.456   6.072   3.458
 1338TIP3    H1 3978   2.484   6.047   3.546
 1338TIP3    H2 3979   2.451   5.990   3.410
 1339TIP3   OH2 3980   1.424   5.098   2.743
 1339TIP3    H1 3981   1.517   5.114   2.757
 1339TIP3    H2 3982   1.400   5.031   2.807
 1340TIP3   OH2 3983   0.672   1.800   3.229
 1340TIP3    H1 3984   0.719   1.883   3.220
 1340TIP3    H2 3985   0.717   1.740   3.169
 1341TIP3   OH2 3986   2.104   2.643   2.467
 1341TIP3    H1 3987   2.166   2.651   2.394
 1341TIP3    H2 3988   2.117   2.555   2.501
 1342TIP3   OH2 3989   0.125   6.147   2.524
 1342TIP3    H1 3990   0.075   6.199   2.587
 1342TIP3    H2 3991   0.067   6.139   2.448
 1343TIP3   OH2 3992   7.156   0.511   1.814
 1343TIP3    H1 3993   7.228   0.571   1.833
 1343TIP3    H2 3994   7.105   0.507   1.895
 1344TIP3   OH2 3995   5.214   4.364   1.908
 1344TIP3    H1 3996   5.289   4.339   1.855
 1344TIP3    H2 3997   5.163   4.283   1.917
 1345TIP3   OH2 3998   1.546   4.033   3.383
 1345TIP3    H1 3999   1.487   4.107   3.370
 1345TIP3    H2 4000   1.490   3.956   3.369
 1346TIP3   OH2 4001   7.071   0.468   5.426
 1346TIP3    H1 4002   7.164   0.480   5.444
 1346TIP3    H2 4003   7.059   0.505   5.338
 1347TIP3   OH2 4004   5.500   0.567   1.511
 1347TIP3    H1 4005   5.582   0.524   1.535
 1347TIP3    H2 4006   5.474   0.526   1.429
 1348TIP3   OH2 4007   3.814   4.829   4.661
 1348TIP3    H1 4008   3.753   4.860   4.594
 1348TIP3    H2 4009   3.845   4.745   4.628
 1349TIP3   OH2 4010   2.646   3.846   2.832
 1349TIP3    H1 4011   2.554   3.821   2.830
 1349TIP3    H2 4012   2.665   3.863   2.924
 1350TIP3   OH2 4013   1.584   1.315   3.483
 1350TIP3    H1 4014   1.633   1.396   3.491
 1350TIP3    H2 4015   1.493   1.340   3.501
 1351TIP3   OH2 4016   1.534   4.172   5.782
 1351TIP3    H1 4017   1.570   4.229   5.715
 1351TIP3    H2 4018   1.518   4.230   5.857
 1352TIP3   OH2 4019   4.325   0.585   1.608
 1352TIP3    H1 4020   4.252   0.524   1.596
 1352TIP3    H2 4021   4.309   0.625   1.694
 1353TIP3   OH2 4022   6.507   1.101   0.655
 1353TIP3    H1 4023   6.415   1.107   0.629
 1353TIP3    H2 4024   6.518   1.172   0.719
 1354TIP3   OH2 4025   5.542   0.837   1.699
 1354TIP3    H1 4026   5.550   0.930   1.720
 1354TIP3    H2 4027   5.497   0.799   1.774
 1355TIP3   OH2 4028   4.172   1.856   1.902
 1355TIP3    H1 4029   4.215   1.804   1.970
 1355TIP3    H2 4030   4.243   1.888   1.847
 1356TIP3   OH2 4031   3.801   5.779   2.770
 1356TIP3    H1 4032   3.774   5.688   2.783
 1356TIP3    H2 4033   3.877   5.774   2.712
 1357TIP3   OH2 4034   1.858   1.876   4.766
 1357TIP3    H1 4035   1.926   1.942   4.752
 1357TIP3    H2 4036   1.783   1.907   4.715
 1358TIP3   OH2 4037   0.185   5.000   2.195
 1358TIP3    H1 4038   0.147   5.040   2.273
 1358TIP3    H2 4039   0.263   4.954   2.226
 1359TIP3   OH2 4040   2.828   2.981   2.584
 1359TIP3    H1 4041   2.900   3.017   2.532
 1359TIP3    H2 4042   2.870   2.919   2.644
 1360TIP3   OH2 4043   2.966   1.644   2.855
 1360TIP3    H1 4044   2.934   1.616   2.769
 1360TIP3    H2 4045   3.059   1.664   2.841
 1361TIP3   OH2 4046   5.047   1.881   3.633
 1361TIP3    H1 4047   5.072   1.806   3.579
 1361TIP3    H2 4048   5.075   1.857   3.722
 1362TIP3   OH2 4049   3.754   2.865   5.086
 1362TIP3    H1 4050   3.660   2.850   5.101
 1362TIP3    H2 4051   3.771   2.948   5.130
 1363TIP3   OH2 4052   0.736   0.107   3.720
 1363TIP3    H1 4053   0.831   0.114   3.711
 1363TIP3    H2 4054   0.723   0.048   3.794
 1364TIP3   OH2 4055   0.612   4.317   4.417
 1364TIP3    H1 4056   0.527   4.347   4.386
 1364TIP3    H2 4057   0.626   4.233   4.372
 1365TIP3   OH2 4058   1.478   1.798   0.666
 1365TIP3    H1 4059   1.390   1.834   0.653
 1365TIP3    H2 4060   1.535   1.852   0.612
 1366TIP3   OH2 4061   0.047   6.378   5.210
 1366TIP3    H1 4062  -0.005   6.332   5.144
 1366TIP3    H2 4063   0.059   6.313   5.280
 1367TIP3   OH2 4064   5.195   0.120   3.922
 1367TIP3    H1 4065   5.132   0.160   3.862
 1367TIP3    H2 4066   5.200   0.182   3.995
 1368TIP3   OH2 4067   2.118   6.413   1.863
 1368TIP3    H1 4068   2.051   6.349   1.838
 1368TIP3    H2 4069   2.152   6.446   1.780
 1369TIP3   OH2 4070   1.970   4.366   0.883
 1369TIP3    H1 4071   1.988   4.345   0.792
 1369TIP3    H2 4072   1.881   4.400   0.883
 1370TIP3   OH2 4073   1.766   2.538   2.654
 1370TIP3    H1 4074   1.799   2.603   2.593
 1370TIP3    H2 4075   1.675   2.564   2.669
 1371TIP3   OH2 4076   6.138   0.732   3.617
 1371TIP3    H1 4077   6.088   0.733   3.535
 1371TIP3    H2 4078   6.135   0.822   3.649
 1372TIP3   OH2 4079   4.982   2.542   1.629
 1372TIP3    H1 4080   5.061   2.567   1.582
 1372TIP3    H2 4081   5.010   2.536   1.721
 1373TIP3   OH2 4082   6.981   1.528   4.809
 1373TIP3    H1 4083   7.071   1.548   4.784
 1373TIP3    H2 4084   6.942   1.490   4.731
 1374TIP3   OH2 4085   2.147   6.191   0.539
 1374TIP3    H1 4086   2.210   6.257   0.569
 1374TIP3    H2 4087   2.202   6.119   0.507
 1375TIP3   OH2 4088   6.733   3.341   1.247
 1375TIP3    H1 4089   6.700   3.367   1.161
 1375TIP3    H2 4090   6.803   3.403   1.266
 1376TIP3   OH2 4091   3.357   0.824   3.887
 1376TIP3    H1 4092   3.395   0.900   3.932
 1376TIP3    H2 4093   3.382   0.750   3.942
 1377TIP3   OH2 4094   2.750   6.188   2.885
 1377TIP3    H1 4095   2.678   6.130   2.859
 1377TIP3    H2 4096   2.802   6.198   2.805
 1378TIP3   OH2 4097   7.038   0.894   1.514
 1378TIP3    H1 4098   6.982   0.971   1.500
 1378TIP3    H2 4099   7.060   0.865   1.426
 1379TIP3   OH2 4100   6.404   0.137   0.583
 1379TIP3    H1 4101   6.490   0.137   0.625
 1379TIP3    H2 4102   6.366   0.052   0.606
 1380TIP3   OH2 4103   0.034   3.838   3.877
 1380TIP3    H1 4104   0.057   3.930   3.893
 1380TIP3    H2 4105   0.091   3.788   3.934
 1381TIP3   OH2 4106   4.502   3.014   3.765
 1381TIP3    H1 4107   4.517   2.945   3.829
 1381TIP3    H2 4108   4.407   3.019   3.756
 1382TIP3   OH2 4109   4.750   1.313   2.744
 1382TIP3    H1 4110   4.768   1.256   2.818
 1382TIP3    H2 4111   4.698   1.259   2.684
 1383TIP3   OH2 4112   5.566   0.132   1.993
 1383TIP3    H1 4113   5.625   0.079   1.939
 1383TIP3    H2 4114   5.549   0.211   1.942
 1384TIP3   OH2 4115   2.375   5.002   5.504
 1384TIP3    H1 4116   2.317   5.073   5.533
 1384TIP3    H2 4117   2.319   4.945   5.451
 1385TIP3   OH2 4118   1.885   4.633   2.201
 1385TIP3    H1 4119   1.955   4.635   2.266
 1385TIP3    H2 4120   1.875   4.541   2.177
 1386TIP3   OH2 4121   3.773   1.334   2.201
 1386TIP3    H1 4122   3.714   1.338   2.126
 1386TIP3    H2 4123   3.802   1.242   2.204
 1387TIP3   OH2 4124   0.651   0.989   2.895
 1387TIP3    H1 4125   0.594   1.061   2.868
 1387TIP3    H2 4126   0.710   0.976   2.821
 1388TIP3   OH2 4127   1.968   0.803   4.980
 1388TIP3    H1 4128   2.016   0.790   5.062
 1388TIP3    H2 4129   1.876   0.813   5.007
 1389TIP3   OH2 4130   2.708   2.995   1.202
 1389TIP3    H1 4131   2.751   3.079   1.188
 1389TIP3    H2 4132   2.722   2.947   1.121
 1390TIP3   OH2 4133   4.409   5.460   2.674
 1390TIP3    H1 4134   4.402   5.533   2.736
 1390TIP3    H2 4135   4.369   5.386   2.720
 1391TIP3   OH2 4136   4.786   3.471   1.967
 1391TIP3    H1 4137   4.756   3.381   1.966
 1391TIP3    H2 4138   4.830   3.483   1.883
 1392TIP3   OH2 4139   5.526   0.973   5.711
 1392TIP3    H1 4140   5.454   1.030   5.736
 1392TIP3    H2 4141   5.502   0.940   5.625
 1393TIP3   OH2 4142   2.777   5.569   3.522
 1393TIP3    H1 4143   2.812   5.525   3.599
 1393TIP3    H2 4144   2.682   5.568   3.536
 1394TIP3   OH2 4145   5.506   2.270   3.269
 1394TIP3    H1 4146   5.419   2.253   3.232
 1394TIP3    H2 4147   5.502   2.361   3.299
 1395TIP3   OH2 4148   6.710   2.278   3.508
 1395TIP3    H1 4149   6.653   2.355   3.508
 1395TIP3    H2 4150   6.656   2.208   3.544
 1396TIP3   OH2 4151   6.657   1.462   4.332
 1396TIP3    H1 4152   6.606   1.389   4.367
 1396TIP3    H2 4153   6.748   1.440   4.353
 1397TIP3   OH2 4154   6.682   1.203   1.082
 1397TIP3    H1 4155   6.615   1.193   1.150
 1397TIP3    H2 4156   6.635   1.242   1.008
 1398TIP3   OH2 4157   0.113   2.324   2.279
 1398TIP3    H1 4158   0.108   2.420   2.273
 1398TIP3    H2 4159   0.099   2.294   2.189
 1399TIP3   OH2 4160   2.851   3.397   1.442
 1399TIP3    H1 4161   2.944   3.381   1.462
 1399TIP3    H2 4162   2.810   3.311   1.453
 1400TIP3   OH2 4163   4.111   4.456   3.274
 1400TIP3    H1 4164   4.168   4.532   3.282
 1400TIP3    H2 4165   4.161   4.395   3.219
 1401TIP3   OH2 4166   5.835   3.089   3.055
 1401TIP3    H1 4167   5.795   3.056   2.975
 1401TIP3    H2 4168   5.784   3.050   3.126
 1402TIP3   OH2 4169   3.152   6.065   0.311
 1402TIP3    H1 4170   3.139   6.108   0.395
 1402TIP3    H2 4171   3.207   6.125   0.261
 1403TIP3   OH2 4172   4.575   5.066   0.025
 1403TIP3    H1 4173   4.528   5.024   0.097
 1403TIP3    H2 4174   4.567   5.005  -0.048
 1404TIP3   OH2 4175   2.266   6.776   3.496
 1404TIP3    H1 4176   2.337   6.730   3.541
 1404TIP3    H2 4177   2.186   6.740   3.534
 1405TIP3   OH2 4178   0.280   6.039   1.951
 1405TIP3    H1 4179   0.253   5.951   1.923
 1405TIP3    H2 4180   0.227   6.098   1.897
 1406TIP3   OH2 4181   6.570   1.702   1.732
 1406TIP3    H1 4182   6.661   1.698   1.703
 1406TIP3    H2 4183   6.549   1.611   1.756
 1407TIP3   OH2 4184   1.952   1.910   0.865
 1407TIP3    H1 4185   1.888   1.875   0.803
 1407TIP3    H2 4186   1.908   1.904   0.950
 1408TIP3   OH2 4187   6.608   1.716   4.952
 1408TIP3    H1 4188   6.522   1.695   4.916
 1408TIP3    H2 4189   6.669   1.700   4.880
 1409TIP3   OH2 4190   2.442   6.403   3.071
 1409TIP3    H1 4191   2.503   6.437   3.005
 1409TIP3    H2 4192   2.359   6.447   3.052
 1410TIP3   OH2 4193   3.874   5.973   1.881
 1410TIP3    H1 4194   3.930   5.896   1.874
 1410TIP3    H2 4195   3.896   6.026   1.804
 1411TIP3   OH2 4196   1.384   1.811   5.587
 1411TIP3    H1 4197   1.430   1.736   5.624
 1411TIP3    H2 4198   1.344   1.854   5.662
 1412TIP3   OH2 4199   5.564   6.142   2.020
 1412TIP3    H1 4200   5.560   6.071   2.084
 1412TIP3    H2 4201   5.566   6.222   2.074
 1413TIP3   OH2 4202   2.322   6.152   3.234
 1413TIP3    H1 4203   2.373   6.123   3.310
 1413TIP3    H2 4204   2.379   6.216   3.191
 1414TIP3   OH2 4205   3.177   2.757   4.010
 1414TIP3    H1 4206   3.215   2.749   4.098
 1414TIP3    H2 4207   3.247   2.797   3.958
 1415TIP3   OH2 4208   6.819   2.205   0.604
 1415TIP3    H1 4209   6.750   2.191   0.669
 1415TIP3    H2 4210   6.875   2.272   0.642
 1416TIP3   OH2 4211   7.169   2.743   2.974
 1416TIP3    H1 4212   7.123   2.827   2.975
 1416TIP3    H2 4213   7.141   2.701   2.892
 1417TIP3   OH2 4214   0.413   4.897   4.986
 1417TIP3    H1 4215   0.427   4.804   4.971
 1417TIP3    H2 4216   0.324   4.903   5.020
 1418TIP3   OH2 4217   4.241   0.137   3.927
 1418TIP3    H1 4218   4.159   0.169   3.889
 1418TIP3    H2 4219   4.292   0.105   3.853
 1419TIP3   OH2 4220   2.130   3.425   2.304
 1419TIP3    H1 4221   2.195   3.491   2.277
 1419TIP3    H2 4222   2.181   3.345   2.314
 1420TIP3   OH2 4223   1.132   0.018   4.605
 1420TIP3    H1 4224   1.131   0.102   4.560
 1420TIP3    H2 4225   1.106   0.038   4.695
 1421TIP3   OH2 4226   0.252   2.234   1.159
 1421TIP3    H1 4227   0.285   2.233   1.248
 1421TIP3    H2 4228   0.327   2.257   1.105
 1422TIP3   OH2 4229   7.144   4.365   5.503
 1422TIP3    H1 4230   7.124   4.386   5.594
 1422TIP3    H2 4231   7.159   4.450   5.461
 1423TIP3   OH2 4232   3.921   3.751   1.017
 1423TIP3    H1 4233   3.857   3.755   0.945
 1423TIP3    H2 4234   3.868   3.757   1.096
 1424TIP3   OH2 4235   2.475   5.542   4.123
 1424TIP3    H1 4236   2.571   5.548   4.124
 1424TIP3    H2 4237   2.455   5.479   4.054
 1425TIP3   OH2 4238   6.656   2.936   5.358
 1425TIP3    H1 4239   6.646   2.913   5.266
 1425TIP3    H2 4240   6.645   3.032   5.361
 1426TIP3   OH2 4241   1.272   6.754   0.371
 1426TIP3    H1 4242   1.295   6.832   0.421
 1426TIP3    H2 4243   1.337   6.689   0.398
 1427TIP3   OH2 4244   6.232   1.223   4.074
 1427TIP3    H1 4245   6.232   1.247   4.167
 1427TIP3    H2 4246   6.147   1.180   4.061
 1428TIP3   OH2 4247   5.805   1.545   3.887
 1428TIP3    H1 4248   5.829   1.623   3.837
 1428TIP3    H2 4249   5.888   1.513   3.922
 1429TIP3   OH2 4250   6.121   5.256   1.068
 1429TIP3    H1 4251   6.086   5.312   1.138
 1429TIP3    H2 4252   6.158   5.181   1.115
 1430TIP3   OH2 4253   1.832   1.927   1.190
 1430TIP3    H1 4254   1.824   1.832   1.190
 1430TIP3    H2 4255   1.742   1.958   1.202
 1431TIP3   OH2 4256   4.782   0.923   3.547
 1431TIP3    H1 4257   4.786   0.828   3.537
 1431TIP3    H2 4258   4.688   0.943   3.550
 1432TIP3   OH2 4259   5.680   3.603   4.275
 1432TIP3    H1 4260   5.677   3.507   4.276
 1432TIP3    H2 4261   5.762   3.624   4.231
 1433TIP3   OH2 4262   4.155   0.242   1.826
 1433TIP3    H1 4263   4.130   0.150   1.834
 1433TIP3    H2 4264   4.184   0.267   1.914
 1434TIP3   OH2 4265   5.119   3.709   3.339
 1434TIP3    H1 4266   5.172   3.788   3.323
 1434TIP3    H2 4267   5.038   3.726   3.292
 1435TIP3   OH2 4268   1.370   6.269   3.253
 1435TIP3    H1 4269   1.357   6.359   3.222
 1435TIP3    H2 4270   1.359   6.215   3.175
 1436TIP3   OH2 4271   3.813   5.094   3.128
 1436TIP3    H1 4272   3.859   5.166   3.171
 1436TIP3    H2 4273   3.868   5.071   3.054
 1437TIP3   OH2 4274   4.672   1.850   1.987
 1437TIP3    H1 4275   4.766   1.837   1.979
 1437TIP3    H2 4276   4.663   1.938   2.022
 1438TIP3   OH2 4277   4.797   6.545   0.540
 1438TIP3    H1 4278   4.881   6.571   0.500
 1438TIP3    H2 4279   4.822   6.489   0.613
 1439TIP3   OH2 4280   5.384   4.198   0.695
 1439TIP3    H1 4281   5.381   4.140   0.619
 1439TIP3    H2 4282   5.362   4.141   0.769
 1440TIP3   OH2 4283   6.057   5.674   2.513
 1440TIP3    H1 4284   6.030   5.623   2.589
 1440TIP3    H2 4285   6.020   5.761   2.527
 1441TIP3   OH2 4286   3.669   0.974   5.761
 1441TIP3    H1 4287   3.585   0.951   5.802
 1441TIP3    H2 4288   3.735   0.934   5.819
 1442TIP3   OH2 4289   2.983   6.377   0.315
 1442TIP3    H1 4290   3.045   6.395   0.244
 1442TIP3    H2 4291   3.029   6.404   0.394
 1443TIP3   OH2 4292   0.698   6.513   2.182
 1443TIP3    H1 4293   0.767   6.447   2.178
 1443TIP3    H2 4294   0.737   6.586   2.230
 1444TIP3   OH2 4295   5.093   5.326   4.157
 1444TIP3    H1 4296   5.037   5.314   4.234
 1444TIP3    H2 4297   5.160   5.388   4.186
 1445TIP3   OH2 4298   6.577   4.547   4.677
 1445TIP3    H1 4299   6.613   4.549   4.588
 1445TIP3    H2 4300   6.538   4.633   4.689
 1446TIP3   OH2 4301   5.500   6.689   1.257
 1446TIP3    H1 4302   5.557   6.759   1.289
 1446TIP3    H2 4303   5.413   6.715   1.286
 1447TIP3   OH2 4304   1.882   5.674   4.917
 1447TIP3    H1 4305   1.818   5.725   4.966
 1447TIP3    H2 4306   1.933   5.739   4.868
 1448TIP3   OH2 4307   3.387   4.411   4.958
 1448TIP3    H1 4308   3.469   4.421   4.910
 1448TIP3    H2 4309   3.414   4.385   5.046
 1449TIP3   OH2 4310   3.737   2.736   4.329
 1449TIP3    H1 4311   3.733   2.668   4.262
 1449TIP3    H2 4312   3.658   2.788   4.316
 1450TIP3   OH2 4313   1.775   2.077   5.127
 1450TIP3    H1 4314   1.780   2.132   5.049
 1450TIP3    H2 4315   1.693   2.103   5.169
 1451TIP3   OH2 4316   1.300   0.779   4.461
 1451TIP3    H1 4317   1.322   0.872   4.460
 1451TIP3    H2 4318   1.232   0.771   4.528
 1452TIP3   OH2 4319   4.961   6.615   2.686
 1452TIP3    H1 4320   4.904   6.586   2.615
 1452TIP3    H2 4321   5.038   6.650   2.641
 1453TIP3   OH2 4322   3.646   5.195   2.486
 1453TIP3    H1 4323   3.593   5.136   2.432
 1453TIP3    H2 4324   3.582   5.245   2.538
 1454TIP3   OH2 4325   6.829   4.660   3.989
 1454TIP3    H1 4326   6.867   4.573   3.975
 1454TIP3    H2 4327   6.748   4.660   3.938
 1455TIP3   OH2 4328   6.421   1.954   2.473
 1455TIP3    H1 4329   6.410   1.905   2.555
 1455TIP3    H2 4330   6.511   1.988   2.478
 1456TIP3   OH2 4331   6.321   0.925   4.797
 1456TIP3    H1 4332   6.319   0.917   4.702
 1456TIP3    H2 4333   6.310   0.836   4.829
 1457TIP3   OH2 4334   1.050   3.849   1.324
 1457TIP3    H1 4335   1.081   3.855   1.415
 1457TIP3    H2 4336   1.129   3.843   1.271
 1458TIP3   OH2 4337   2.196   2.607   5.367
 1458TIP3    H1 4338   2.201   2.604   5.463
 1458TIP3    H2 4339   2.105   2.587   5.347
 1459TIP3   OH2 4340   4.277   5.076   3.722
 1459TIP3    H1 4341   4.253   5.116   3.639
 1459TIP3    H2 4342   4.262   4.983   3.710
 1460TIP3   OH2 4343   0.130   2.066   2.960
 1460TIP3    H1 4344   0.174   2.009   3.023
 1460TIP3    H2 4345   0.201   2.105   2.910
 1461TIP3   OH2 4346   5.229   4.922   2.464
 1461TIP3    H1 4347   5.275   4.911   2.547
 1461TIP3    H2 4348   5.213   4.832   2.433
 1462TIP3   OH2 4349   6.852   3.438   1.547
 1462TIP3    H1 4350   6.922   3.393   1.593
 1462TIP3    H2 4351   6.890   3.465   1.464
 1463TIP3   OH2 4352   0.723   1.855   3.847
 1463TIP3    H1 4353   0.671   1.813   3.779
 1463TIP3    H2 4354   0.661   1.868   3.919
 1464TIP3   OH2 4355   6.484   3.253   0.684
 1464TIP3    H1 4356   6.457   3.162   0.676
 1464TIP3    H2 4357   6.579   3.250   0.691
 1465TIP3   OH2 4358   6.121   0.531   1.978
 1465TIP3    H1 4359   6.191   0.576   1.931
 1465TIP3    H2 4360   6.055   0.599   1.992
 1466TIP3   OH2 4361   3.379   2.555   2.926
 1466TIP3    H1 4362   3.385   2.640   2.968
 1466TIP3    H2 4363   3.285   2.538   2.917
 1467TIP3   OH2 4364   1.957   0.681   1.608
 1467TIP3    H1 4365   1.965   0.772   1.579
 1467TIP3    H2 4366   2.043   0.660   1.645
 1468TIP3   OH2 4367   0.579   3.492   1.618
 1468TIP3    H1 4368   0.619   3.562   1.669
 1468TIP3    H2 4369   0.509   3.459   1.674
 1469TIP3   OH2 4370   5.256   5.186   5.780
 1469TIP3    H1 4371   5.268   5.179   5.875
 1469TIP3    H2 4372   5.166   5.215   5.769
 1470TIP3   OH2 4373   3.050   0.281   1.891
 1470TIP3    H1 4374   2.971   0.289   1.943
 1470TIP3    H2 4375   3.021   0.296   1.801
 1471TIP3   OH2 4376   2.412   3.718   2.836
 1471TIP3    H1 4377   2.336   3.713   2.777
 1471TIP3    H2 4378   2.454   3.632   2.827
 1472TIP3   OH2 4379   6.967   5.476   3.832
 1472TIP3    H1 4380   7.030   5.526   3.781
 1472TIP3    H2 4381   6.899   5.539   3.854
 1473TIP3   OH2 4382   2.134   0.979   4.879
 1473TIP3    H1 4383   2.063   1.029   4.840
 1473TIP3    H2 4384   2.091   0.911   4.930
 1474TIP3   OH2 4385   3.261   0.464   1.943
 1474TIP3    H1 4386   3.246   0.386   1.995
 1474TIP3    H2 4387   3.188   0.468   1.882
 1475TIP3   OH2 4388   1.477   1.212   5.860
 1475TIP3    H1 4389   1.557   1.187   5.907
 1475TIP3    H2 4390   1.489   1.175   5.772
 1476TIP3   OH2 4391   6.839   1.560   1.618
 1476TIP3    H1 4392   6.877   1.583   1.703
 1476TIP3    H2 4393   6.796   1.476   1.632
 1477TIP3   OH2 4394   0.206   2.377   1.649
 1477TIP3    H1 4395   0.136   2.317   1.674
 1477TIP3    H2 4396   0.278   2.321   1.621
 1478TIP3   OH2 4397   1.308   0.665   2.592
 1478TIP3    H1 4398   1.327   0.573   2.611
 1478TIP3    H2 4399   1.327   0.674   2.498
 1479TIP3   OH2 4400   6.936   0.668   1.652
 1479TIP3    H1 4401   7.021   0.633   1.680
 1479TIP3    H2 4402   6.958   0.751   1.609
 1480TIP3   OH2 4403   5.427   0.897   0.603
 1480TIP3    H1 4404   5.476   0.873   0.524
 1480TIP3    H2 4405   5.365   0.825   0.616
 1481TIP3   OH2 4406   5.842   3.265   0.623
 1481TIP3    H1 4407   5.810   3.252   0.533
 1481TIP3    H2 4408   5.926   3.220   0.625
 1482TIP3   OH2 4409   0.243   5.920   2.205
 1482TIP3    H1 4410   0.167   5.954   2.252
 1482TIP3    H2 4411   0.236   5.958   2.117
 1483TIP3   OH2 4412   4.465   0.796   3.326
 1483TIP3    H1 4413   4.502   0.884   3.315
 1483TIP3    H2 4414   4.471   0.756   3.239
 1484TIP3   OH2 4415   5.432   0.360   1.831
 1484TIP3    H1 4416   5.433   0.443   1.784
 1484TIP3    H2 4417   5.341   0.330   1.826
 1485TIP3   OH2 4418   2.111   0.801   3.022
 1485TIP3    H1 4419   2.045   0.738   2.997
 1485TIP3    H2 4420   2.072   0.887   3.004
 1486TIP3   OH2 4421   4.292   5.183   3.466
 1486TIP3    H1 4422   4.199   5.195   3.451
 1486TIP3    H2 4423   4.329   5.272   3.465
 1487TIP3   OH2 4424   3.626   2.228   4.141
 1487TIP3    H1 4425   3.614   2.204   4.049
 1487TIP3    H2 4426   3.538   2.237   4.176
 1488TIP3   OH2 4427   3.656   6.814   1.565
 1488TIP3    H1 4428   3.638   6.736   1.513
 1488TIP3    H2 4429   3.701   6.782   1.642
 1489TIP3   OH2 4430   4.845   4.672   1.477
 1489TIP3    H1 4431   4.936   4.646   1.461
 1489TIP3    H2 4432   4.796   4.635   1.403
 1490TIP3   OH2 4433   6.037   3.218   3.198
 1490TIP3    H1 4434   5.970   3.182   3.140
 1490TIP3    H2 4435   6.040   3.156   3.271
 1491TIP3   OH2 4436   6.529   2.632   1.977
 1491TIP3    H1 4437   6.489   2.550   1.951
 1491TIP3    H2 4438   6.522   2.634   2.073
 1492TIP3   OH2 4439   1.598   3.145   4.402
 1492TIP3    H1 4440   1.625   3.237   4.404
 1492TIP3    H2 4441   1.678   3.096   4.419
 1493TIP3   OH2 4442   5.371   5.260   0.351
 1493TIP3    H1 4443   5.296   5.320   0.348
 1493TIP3    H2 4444   5.332   5.173   0.347
 1494TIP3   OH2 4445   7.122   6.118   1.206
 1494TIP3    H1 4446   7.137   6.108   1.112
 1494TIP3    H2 4447   7.036   6.080   1.221
 1495TIP3   OH2 4448   4.937   3.763   2.190
 1495TIP3    H1 4449   4.868   3.700   2.209
 1495TIP3    H2 4450   5.017   3.711   2.188
 1496TIP3   OH2 4451   5.525   6.763   4.251
 1496TIP3    H1 4452   5.527   6.858   4.262
 1496TIP3    H2 4453   5.470   6.733   4.324
 1497TIP3   OH2 4454   5.791   4.942   5.372
 1497TIP3    H1 4455   5.717   4.997   5.348
 1497TIP3    H2 4456   5.769   4.855   5.340
 1498TIP3   OH2 4457   0.885   4.001   5.020
 1498TIP3    H1 4458   0.872   4.048   4.937
 1498TIP3    H2 4459   0.967   3.954   5.008
 1499TIP3   OH2 4460   1.023   0.015   3.310
 1499TIP3    H1 4461   0.931   0.039   3.307
 1499TIP3    H2 4462   1.033  -0.035   3.391
 1500TIP3   OH2 4463   6.317   2.822   2.780
 1500TIP3    H1 4464   6.274   2.796   2.862
 1500TIP3    H2 4465   6.251   2.807   2.712
 1501TIP3   OH2 4466   4.053   1.495   2.942
 1501TIP3    H1 4467   4.147   1.490   2.962
 1501TIP3    H2 4468   4.046   1.456   2.855
 1502TIP3   OH2 4469   3.593   1.898   1.298
 1502TIP3    H1 4470   3.533   1.918   1.226
 1502TIP3    H2 4471   3.664   1.962   1.289
 1503TIP3   OH2 4472   3.379   2.110   0.102
 1503TIP3    H1 4473   3.340   2.044   0.158
 1503TIP3    H2 4474   3.423   2.061   0.033
 1504TIP3   OH2 4475   1.018   6.322   3.432
 1504TIP3    H1 4476   0.999   6.386   3.500
 1504TIP3    H2 4477   1.097   6.277   3.462
 1505TIP3   OH2 4478   2.768   6.193   3.431
 1505TIP3    H1 4479   2.728   6.235   3.355
 1505TIP3    H2 4480   2.738   6.102   3.426
 1506TIP3   OH2 4481   3.112   5.636   1.399
 1506TIP3    H1 4482   3.086   5.616   1.309
 1506TIP3    H2 4483   3.190   5.691   1.389
 1507TIP3   OH2 4484   6.431   2.374   0.235
 1507TIP3    H1 4485   6.390   2.303   0.285
 1507TIP3    H2 4486   6.359   2.415   0.188
 1508TIP3   OH2 4487   2.965   4.869   1.536
 1508TIP3    H1 4488   2.995   4.874   1.446
 1508TIP3    H2 4489   3.015   4.937   1.582
 1509TIP3   OH2 4490   4.626   0.451   3.329
 1509TIP3    H1 4491   4.579   0.499   3.260
 1509TIP3    H2 4492   4.674   0.383   3.282
 1510TIP3   OH2 4493   2.147   1.325   1.139
 1510TIP3    H1 4494   2.225   1.274   1.115
 1510TIP3    H2 4495   2.176   1.417   1.134
 1511TIP3   OH2 4496   0.751   3.939   2.154
 1511TIP3    H1 4497   0.670   3.888   2.159
 1511TIP3    H2 4498   0.784   3.940   2.244
 1512TIP3   OH2 4499   5.736   6.591   5.177
 1512TIP3    H1 4500   5.762   6.544   5.098
 1512TIP3    H2 4501   5.645   6.564   5.193
 1513TIP3   OH2 4502   0.900   6.186   5.231
 1513TIP3    H1 4503   0.874   6.117   5.171
 1513TIP3    H2 4504   0.818   6.218   5.268
 1514TIP3   OH2 4505   6.194   5.972   3.992
 1514TIP3    H1 4506   6.231   5.900   3.941
 1514TIP3    H2 4507   6.247   6.048   3.967
 1515TIP3   OH2 4508   5.658   1.316   5.830
 1515TIP3    H1 4509   5.610   1.398   5.824
 1515TIP3    H2 4510   5.663   1.284   5.739
 1516TIP3   OH2 4511   6.684   2.498   2.595
 1516TIP3    H1 4512   6.751   2.468   2.657
 1516TIP3    H2 4513   6.602   2.490   2.644
 1517TIP3   OH2 4514   5.137   4.413   5.799
 1517TIP3    H1 4515   5.048   4.380   5.791
 1517TIP3    H2 4516   5.154   4.414   5.893
 1518TIP3   OH2 4517   2.464   6.497   2.200
 1518TIP3    H1 4518   2.449   6.545   2.119
 1518TIP3    H2 4519   2.548   6.453   2.188
 1519TIP3   OH2 4520   3.201   5.742   3.644
 1519TIP3    H1 4521   3.171   5.661   3.603
 1519TIP3    H2 4522   3.256   5.784   3.577
 1520TIP3   OH2 4523   1.532   6.668   3.625
 1520TIP3    H1 4524   1.506   6.725   3.552
 1520TIP3    H2 4525   1.469   6.687   3.694
 1521TIP3   OH2 4526   2.080   0.706   3.900
 1521TIP3    H1 4527   2.038   0.792   3.900
 1521TIP3    H2 4528   2.068   0.673   3.989
 1522TIP3   OH2 4529   5.935   2.660   4.286
 1522TIP3    H1 4530   5.924   2.745   4.328
 1522TIP3    H2 4531   5.882   2.600   4.339
 1523TIP3   OH2 4532   2.189   2.509   3.247
 1523TIP3    H1 4533   2.227   2.473   3.167
 1523TIP3    H2 4534   2.094   2.503   3.232
 1524TIP3   OH2 4535   2.336   2.018   4.399
 1524TIP3    H1 4536   2.352   2.085   4.333
 1524TIP3    H2 4537   2.241   2.009   4.402
 1525TIP3   OH2 4538   6.243   0.154   1.381
 1525TIP3    H1 4539   6.290   0.105   1.448
 1525TIP3    H2 4540   6.170   0.097   1.357
 1526TIP3   OH2 4541   1.026   3.028   0.524
 1526TIP3    H1 4542   1.068   3.015   0.609
 1526TIP3    H2 4543   1.090   2.998   0.460
 1527TIP3   OH2 4544   3.613   0.286   5.155
 1527TIP3    H1 4545   3.586   0.257   5.068
 1527TIP3    H2 4546   3.558   0.363   5.173
 1528TIP3   OH2 4547   6.698   0.019   4.447
 1528TIP3    H1 4548   6.625  -0.033   4.482
 1528TIP3    H2 4549   6.708   0.091   4.509
 1529TIP3   OH2 4550   1.344   4.400   0.030
 1529TIP3    H1 4551   1.266   4.345   0.036
 1529TIP3    H2 4552   1.331   4.453  -0.049
 1530TIP3   OH2 4553   2.581   4.352   2.224
 1530TIP3    H1 4554   2.651   4.416   2.235
 1530TIP3    H2 4555   2.616   4.289   2.160
 1531TIP3   OH2 4556   6.835   3.762   2.906
 1531TIP3    H1 4557   6.876   3.740   2.822
 1531TIP3    H2 4558   6.905   3.753   2.970
 1532TIP3   OH2 4559   0.990   5.984   3.318
 1532TIP3    H1 4560   0.898   6.011   3.312
 1532TIP3    H2 4561   0.998   5.913   3.255
 1533TIP3   OH2 4562   2.244   2.209   1.962
 1533TIP3    H1 4563   2.225   2.252   2.046
 1533TIP3    H2 4564   2.158   2.179   1.931
 1534TIP3   OH2 4565  -0.004   5.265   4.734
 1534TIP3    H1 4566   0.057   5.329   4.772
 1534TIP3    H2 4567  -0.046   5.310   4.661
 1535TIP3   OH2 4568   0.549   2.539   0.220
 1535TIP3    H1 4569   0.574   2.515   0.131
 1535TIP3    H2 4570   0.630   2.536   0.270
 1536TIP3   OH2 4571   0.106   1.297   2.356
 1536TIP3    H1 4572   0.053   1.306   2.435
 1536TIP3    H2 4573   0.075   1.217   2.315
 1537TIP3   OH2 4574   6.207   1.588   4.063
 1537TIP3    H1 4575   6.125   1.541   4.050
 1537TIP3    H2 4576   6.214   1.600   4.157
 1538TIP3   OH2 4577   3.347   6.190   2.699
 1538TIP3    H1 4578   3.379   6.270   2.658
 1538TIP3    H2 4579   3.403   6.178   2.775
 1539TIP3   OH2 4580   2.272   3.506   0.543
 1539TIP3    H1 4581   2.229   3.502   0.629
 1539TIP3    H2 4582   2.237   3.586   0.503
 1540TIP3   OH2 4583   0.634   2.946   3.555
 1540TIP3    H1 4584   0.696   2.944   3.482
 1540TIP3    H2 4585   0.562   3.000   3.524
 1541TIP3   OH2 4586   3.529   3.698   2.401
 1541TIP3    H1 4587   3.490   3.745   2.474
 1541TIP3    H2 4588   3.588   3.762   2.361
 1542TIP3   OH2 4589   6.621   0.086   1.561
 1542TIP3    H1 4590   6.705   0.046   1.540
 1542TIP3    H2 4591   6.557   0.037   1.509
 1543TIP3   OH2 4592   1.098   5.294   0.053
 1543TIP3    H1 4593   1.121   5.220  -0.002
 1543TIP3    H2 4594   1.098   5.369  -0.007
 1544TIP3   OH2 4595   1.029   0.843   1.115
 1544TIP3    H1 4596   1.057   0.838   1.206
 1544TIP3    H2 4597   0.934   0.839   1.118
 1545TIP3   OH2 4598   0.469   5.283   3.942
 1545TIP3    H1 4599   0.398   5.272   4.006
 1545TIP3    H2 4600   0.432   5.252   3.860
 1546TIP3   OH2 4601   4.670   2.450   4.122
 1546TIP3    H1 4602   4.755   2.483   4.094
 1546TIP3    H2 4603   4.686   2.362   4.154
 1547TIP3   OH2 4604   5.678   3.397   5.665
 1547TIP3    H1 4605   5.623   3.323   5.689
 1547TIP3    H2 4606   5.624   3.474   5.683
 1548TIP3   OH2 4607   3.087   5.722   0.685
 1548TIP3    H1 4608   3.169   5.710   0.734
 1548TIP3    H2 4609   3.111   5.708   0.594
 1549TIP3   OH2 4610   5.611   1.443   4.945
 1549TIP3    H1 4611   5.521   1.473   4.933
 1549TIP3    H2 4612   5.636   1.408   4.860
 1550TIP3   OH2 4613   6.579   1.285   2.603
 1550TIP3    H1 4614   6.543   1.359   2.554
 1550TIP3    H2 4615   6.505   1.249   2.652
 1551TIP3   OH2 4616   3.829   6.135   1.287
 1551TIP3    H1 4617   3.819   6.040   1.275
 1551TIP3    H2 4618   3.768   6.174   1.225
 1552TIP3   OH2 4619   5.465   6.190   2.911
 1552TIP3    H1 4620   5.487   6.199   3.004
 1552TIP3    H2 4621   5.375   6.159   2.910
 1553TIP3   OH2 4622   1.850   5.761   1.756
 1553TIP3    H1 4623   1.827   5.683   1.805
 1553TIP3    H2 4624   1.938   5.783   1.786
 1554TIP3   OH2 4625   1.957   4.917   2.429
 1554TIP3    H1 4626   1.908   4.887   2.505
 1554TIP3    H2 4627   2.015   4.985   2.463
 1555TIP3   OH2 4628   4.704   0.275   5.845
 1555TIP3    H1 4629   4.676   0.218   5.916
 1555TIP3    H2 4630   4.799   0.263   5.840
 1556TIP3   OH2 4631   5.260   6.394   0.914
 1556TIP3    H1 4632   5.215   6.309   0.914
 1556TIP3    H2 4633   5.214   6.445   0.848
 1557TIP3   OH2 4634   4.850   0.702   0.512
 1557TIP3    H1 4635   4.851   0.723   0.606
 1557TIP3    H2 4636   4.923   0.752   0.476
 1558TIP3   OH2 4637   3.041   0.232   5.458
 1558TIP3    H1 4638   3.057   0.259   5.548
 1558TIP3    H2 4639   2.991   0.150   5.465
 1559TIP3   OH2 4640   5.688   0.788   3.366
 1559TIP3    H1 4641   5.622   0.777   3.434
 1559TIP3    H2 4642   5.748   0.853   3.402
 1560TIP3   OH2 4643   5.633   3.995   2.015
 1560TIP3    H1 4644   5.550   3.950   2.027
 1560TIP3    H2 4645   5.699   3.926   2.019
 1561TIP3   OH2 4646   5.145   2.717   4.358
 1561TIP3    H1 4647   5.169   2.626   4.346
 1561TIP3    H2 4648   5.217   2.755   4.408
 1562TIP3   OH2 4649   1.774   2.801   2.808
 1562TIP3    H1 4650   1.716   2.754   2.748
 1562TIP3    H2 4651   1.718   2.824   2.882
 1563TIP3   OH2 4652   6.636   4.966   2.267
 1563TIP3    H1 4653   6.603   4.877   2.256
 1563TIP3    H2 4654   6.603   4.993   2.353
 1564TIP3   OH2 4655   3.618   6.189   5.552
 1564TIP3    H1 4656   3.606   6.226   5.465
 1564TIP3    H2 4657   3.707   6.153   5.551
 1565TIP3   OH2 4658   2.241   3.482   4.005
 1565TIP3    H1 4659   2.197   3.406   3.968
 1565TIP3    H2 4660   2.197   3.557   3.965
 1566TIP3   OH2 4661   5.090   5.774   5.700
 1566TIP3    H1 4662   5.061   5.734   5.618
 1566TIP3    H2 4663   5.139   5.704   5.744
 1567TIP3   OH2 4664   2.241   2.267   0.612
 1567TIP3    H1 4665   2.310   2.226   0.663
 1567TIP3    H2 4666   2.164   2.265   0.669
 1568TIP3   OH2 4667   2.862   5.538   2.756
 1568TIP3    H1 4668   2.913   5.583   2.823
 1568TIP3    H2 4669   2.840   5.607   2.693
 1569TIP3   OH2 4670   1.273   2.213   2.759
 1569TIP3    H1 4671   1.202   2.223   2.696
 1569TIP3    H2 4672   1.295   2.303   2.785
 1570TIP3   OH2 4673   2.625   1.166   1.250
 1570TIP3    H1 4674   2.693   1.197   1.310
 1570TIP3    H2 4675   2.649   1.204   1.166
 1571TIP3   OH2 4676   6.750   6.392   1.617
 1571TIP3    H1 4677   6.779   6.481   1.595
 1571TIP3    H2 4678   6.821   6.356   1.670
 1572TIP3   OH2 4679   1.427   2.459   5.452
 1572TIP3    H1 4680   1.464   2.441   5.366
 1572TIP3    H2 4681   1.337   2.426   5.446
 1573TIP3   OH2 4682   0.228   4.316   0.265
 1573TIP3    H1 4683   0.207   4.403   0.299
 1573TIP3    H2 4684   0.143   4.273   0.255
 1574TIP3   OH2 4685   5.513   3.798   4.218
 1574TIP3    H1 4686   5.590   3.741   4.222
 1574TIP3    H2 4687   5.441   3.744   4.251
 1575TIP3   OH2 4688   3.315   5.253   4.613
 1575TIP3    H1 4689   3.318   5.162   4.583
 1575TIP3    H2 4690   3.242   5.291   4.566
 1576TIP3   OH2 4691   1.475   5.153   4.213
 1576TIP3    H1 4692   1.452   5.181   4.124
 1576TIP3    H2 4693   1.564   5.118   4.204
 1577TIP3   OH2 4694   5.431   4.689   3.152
 1577TIP3    H1 4695   5.446   4.652   3.239
 1577TIP3    H2 4696   5.409   4.781   3.168
 1578TIP3   OH2 4697   5.977   5.823   0.534
 1578TIP3    H1 4698   6.009   5.913   0.530
 1578TIP3    H2 4699   6.030   5.782   0.602
 1579TIP3   OH2 4700   4.813   2.324   4.854
 1579TIP3    H1 4701   4.866   2.322   4.933
 1579TIP3    H2 4702   4.851   2.394   4.801
 1580TIP3   OH2 4703   0.312   4.869   1.631
 1580TIP3    H1 4704   0.304   4.779   1.599
 1580TIP3    H2 4705   0.378   4.865   1.700
 1581TIP3   OH2 4706   0.371   2.147   4.361
 1581TIP3    H1 4707   0.423   2.096   4.424
 1581TIP3    H2 4708   0.435   2.208   4.322
 1582TIP3   OH2 4709   0.707   1.360   0.107
 1582TIP3    H1 4710   0.717   1.428   0.173
 1582TIP3    H2 4711   0.781   1.301   0.121
 1583TIP3   OH2 4712   1.395   4.679   1.694
 1583TIP3    H1 4713   1.340   4.642   1.764
 1583TIP3    H2 4714   1.482   4.686   1.734
 1584TIP3   OH2 4715   4.746   5.188   3.889
 1584TIP3    H1 4716   4.815   5.196   3.824
 1584TIP3    H2 4717   4.676   5.139   3.845
 1585TIP3   OH2 4718   1.838   4.095   3.031
 1585TIP3    H1 4719   1.928   4.063   3.033
 1585TIP3    H2 4720   1.803   4.074   3.118
 1586TIP3   OH2 4721   5.221   6.085   2.837
 1586TIP3    H1 4722   5.166   6.097   2.760
 1586TIP3    H2 4723   5.164   6.044   2.902
 1587TIP3   OH2 4724   1.138   2.062   3.547
 1587TIP3    H1 4725   1.126   2.094   3.636
 1587TIP3    H2 4726   1.067   1.998   3.534
 1588TIP3   OH2 4727   5.809   5.299   5.328
 1588TIP3    H1 4728   5.729   5.349   5.318
 1588TIP3    H2 4729   5.812   5.275   5.421
 1589TIP3   OH2 4730   4.134   3.848   5.177
 1589TIP3    H1 4731   4.112   3.902   5.101
 1589TIP3    H2 4732   4.177   3.771   5.140
 1590TIP3   OH2 4733   0.170   0.051   3.123
 1590TIP3    H1 4734   0.111   0.118   3.158
 1590TIP3    H2 4735   0.126   0.019   3.044
 1591TIP3   OH2 4736   5.730   0.048   1.787
 1591TIP3    H1 4737   5.817   0.078   1.814
 1591TIP3    H2 4738   5.693   0.123   1.740
 1592TIP3   OH2 4739   7.241   3.453   1.718
 1592TIP3    H1 4740   7.187   3.375   1.709
 1592TIP3    H2 4741   7.178   3.524   1.729
 1593TIP3   OH2 4742   3.903   2.637   3.143
 1593TIP3    H1 4743   3.869   2.553   3.111
 1593TIP3    H2 4744   3.849   2.703   3.100
 1594TIP3   OH2 4745   6.570   2.248   4.123
 1594TIP3    H1 4746   6.618   2.202   4.193
 1594TIP3    H2 4747   6.519   2.314   4.169
 1595TIP3   OH2 4748   3.198   0.673   2.646
 1595TIP3    H1 4749   3.201   0.759   2.606
 1595TIP3    H2 4750   3.184   0.612   2.573
 1596TIP3   OH2 4751   1.245   3.559   3.565
 1596TIP3    H1 4752   1.153   3.565   3.589
 1596TIP3    H2 4753   1.254   3.619   3.491
 1597TIP3   OH2 4754   6.793   6.238   0.133
 1597TIP3    H1 4755   6.719   6.283   0.093
 1597TIP3    H2 4756   6.869   6.267   0.082
 1598TIP3   OH2 4757   5.617   0.407   0.732
 1598TIP3    H1 4758   5.663   0.490   0.720
 1598TIP3    H2 4759   5.549   0.426   0.797
 1599TIP3   OH2 4760   1.036   5.457   2.464
 1599TIP3    H1 4761   0.957   5.460   2.411
 1599TIP3    H2 4762   1.059   5.364   2.467
 1600TIP3   OH2 4763   6.540   3.709   1.208
 1600TIP3    H1 4764   6.575   3.748   1.128
 1600TIP3    H2 4765   6.590   3.752   1.278
 1601TIP3   OH2 4766   2.279   1.163   4.584
 1601TIP3    H1 4767   2.192   1.179   4.620
 1601TIP3    H2 4768   2.280   1.213   4.502
 1602TIP3   OH2 4769   6.046   0.459   0.656
 1602TIP3    H1 4770   5.964   0.410   0.649
 1602TIP3    H2 4771   6.037   0.530   0.592
 1603TIP3   OH2 4772   2.198   5.779   0.209
 1603TIP3    H1 4773   2.216   5.862   0.164
 1603TIP3    H2 4774   2.273   5.766   0.266
 1604TIP3   OH2 4775   5.086   2.798   5.775
 1604TIP3    H1 4776   5.159   2.857   5.757
 1604TIP3    H2 4777   5.013   2.833   5.723
 1605TIP3   OH2 4778   1.013   5.451   4.270
 1605TIP3    H1 4779   1.082   5.503   4.310
 1605TIP3    H2 4780   0.974   5.403   4.343
 1606TIP3   OH2 4781   3.312   4.953   4.575
 1606TIP3    H1 4782   3.265   4.975   4.494
 1606TIP3    H2 4783   3.249   4.902   4.626
 1607TIP3   OH2 4784   2.031   5.836   5.668
 1607TIP3    H1 4785   2.107   5.805   5.619
 1607TIP3    H2 4786   2.016   5.769   5.734
 1608TIP3   OH2 4787   5.039   3.141   5.831
 1608TIP3    H1 4788   5.025   3.084   5.755
 1608TIP3    H2 4789   4.956   3.140   5.878
 1609TIP3   OH2 4790   5.250   2.565   1.645
 1609TIP3    H1 4791   5.259   2.609   1.730
 1609TIP3    H2 4792   5.326   2.593   1.595
 1610TIP3   OH2 4793   4.783   2.752   0.232
 1610TIP3    H1 4794   4.766   2.732   0.324
 1610TIP3    H2 4795   4.709   2.714   0.185
 1611TIP3   OH2 4796   4.164   1.164   1.865
 1611TIP3    H1 4797   4.149   1.178   1.771
 1611TIP3    H2 4798   4.084   1.122   1.896
 1612TIP3   OH2 4799   3.251   5.411   0.656
 1612TIP3    H1 4800   3.234   5.436   0.747
 1612TIP3    H2 4801   3.346   5.418   0.646
 1613TIP3   OH2 4802   0.504   2.101   3.212
 1613TIP3    H1 4803   0.579   2.102   3.272
 1613TIP3    H2 4804   0.524   2.031   3.150
 1614TIP3   OH2 4805   3.692   5.916   4.139
 1614TIP3    H1 4806   3.647   5.857   4.199
 1614TIP3    H2 4807   3.713   5.861   4.063
 1615TIP3   OH2 4808   0.593   6.762   2.062
 1615TIP3    H1 4809   0.576   6.701   2.135
 1615TIP3    H2 4810   0.532   6.834   2.076
 1616TIP3   OH2 4811   4.272   6.186   1.629
 1616TIP3    H1 4812   4.359   6.178   1.590
 1616TIP3    H2 4813   4.229   6.103   1.610
 1617TIP3   OH2 4814   2.698   0.502   4.604
 1617TIP3    H1 4815   2.634   0.564   4.639
 1617TIP3    H2 4816   2.679   0.498   4.510
 1618TIP3   OH2 4817   2.753   2.325   4.438
 1618TIP3    H1 4818   2.675   2.340   4.385
 1618TIP3    H2 4819   2.802   2.407   4.431
 1619TIP3   OH2 4820   1.674   3.732   3.900
 1619TIP3    H1 4821   1.705   3.819   3.875
 1619TIP3    H2 4822   1.687   3.679   3.822
 1620TIP3   OH2 4823   1.802   4.092   0.472
 1620TIP3    H1 4824   1.801   4.003   0.508
 1620TIP3    H2 4825   1.785   4.080   0.379
 1621TIP3   OH2 4826   5.735   4.045   2.600
 1621TIP3    H1 4827   5.815   4.014   2.641
 1621TIP3    H2 4828   5.666   3.989   2.636
 1622TIP3   OH2 4829   6.491   4.267   0.673
 1622TIP3    H1 4830   6.542   4.329   0.621
 1622TIP3    H2 4831   6.400   4.289   0.655
 1623TIP3   OH2 4832   5.466   2.813   3.353
 1623TIP3    H1 4833   5.413   2.778   3.426
 1623TIP3    H2 4834   5.406   2.871   3.306
 1624TIP3   OH2 4835   0.607   0.896   4.288
 1624TIP3    H1 4836   0.693   0.931   4.266
 1624TIP3    H2 4837   0.624   0.832   4.356
 1625TIP3   OH2 4838   6.930   4.705   2.993
 1625TIP3    H1 4839   6.910   4.673   3.081
 1625TIP3    H2 4840   7.019   4.740   2.999
 1626TIP3   OH2 4841   6.227   4.198   3.443
 1626TIP3    H1 4842   6.211   4.107   3.420
 1626TIP3    H2 4843   6.173   4.248   3.382
 1627TIP3   OH2 4844   2.031   0.512   1.111
 1627TIP3    H1 4845   2.019   0.600   1.147
 1627TIP3    H2 4846   1.965   0.506   1.042
 1628TIP3   OH2 4847   4.838   1.387   1.575
 1628TIP3    H1 4848   4.858   1.476   1.544
 1628TIP3    H2 4849   4.779   1.351   1.508
 1629TIP3   OH2 4850   0.004   5.822   2.027
 1629TIP3    H1 4851   0.090   5.793   1.997
 1629TIP3    H2 4852   0.001   5.798   2.119
 1630TIP3   OH2 4853   2.276   6.636   0.444
 1630TIP3    H1 4854   2.189   6.609   0.413
 1630TIP3    H2 4855   2.304   6.565   0.502
 1631TIP3   OH2 4856   6.311   5.316   1.569
 1631TIP3    H1 4857   6.257   5.278   1.500
 1631TIP3    H2 4858   6.260   5.304   1.649
 1632TIP3   OH2 4859   0.868   4.445   0.419
 1632TIP3    H1 4860   0.951   4.480   0.388
 1632TIP3    H2 4861   0.891   4.365   0.466
 1633TIP3   OH2 4862   3.716   6.735   2.768
 1633TIP3    H1 4863   3.698   6.776   2.852
 1633TIP3    H2 4864   3.665   6.654   2.769
 1634TIP3   OH2 4865   1.358   3.053   4.514
 1634TIP3    H1 4866   1.347   2.960   4.494
 1634TIP3    H2 4867   1.433   3.080   4.461
 1635TIP3   OH2 4868   5.752   6.337   3.748
 1635TIP3    H1 4869   5.749   6.423   3.789
 1635TIP3    H2 4870   5.837   6.301   3.774
 1636TIP3   OH2 4871   1.046   0.166   2.060
 1636TIP3    H1 4872   0.959   0.134   2.034
 1636TIP3    H2 4873   1.060   0.128   2.147
 1637TIP3   OH2 4874   2.820   3.300   2.333
 1637TIP3    H1 4875   2.829   3.229   2.269
 1637TIP3    H2 4876   2.900   3.297   2.385
 1638TIP3   OH2 4877   3.979   4.128   5.202
 1638TIP3    H1 4878   3.949   4.212   5.170
 1638TIP3    H2 4879   3.933   4.063   5.149
 1639TIP3   OH2 4880   2.220   2.783   4.503
 1639TIP3    H1 4881   2.217   2.869   4.545
 1639TIP3    H2 4882   2.309   2.778   4.467
 1640TIP3   OH2 4883   1.337   6.479   3.525
 1640TIP3    H1 4884   1.413   6.538   3.522
 1640TIP3    H2 4885   1.293   6.494   3.441
 1641TIP3   OH2 4886   6.219   1.330   4.313
 1641TIP3    H1 4887   6.203   1.401   4.376
 1641TIP3    H2 4888   6.156   1.262   4.338
 1642TIP3   OH2 4889   1.465   2.048   4.404
 1642TIP3    H1 4890   1.427   1.963   4.381
 1642TIP3    H2 4891   1.477   2.093   4.321
 1643TIP3   OH2 4892   0.597   1.424   0.666
 1643TIP3    H1 4893   0.530   1.480   0.626
 1643TIP3    H2 4894   0.680   1.457   0.632
 1644TIP3   OH2 4895   5.159   6.261   3.071
 1644TIP3    H1 4896   5.176   6.322   3.143
 1644TIP3    H2 4897   5.176   6.313   2.992
 1645TIP3   OH2 4898   6.972   4.082   1.330
 1645TIP3    H1 4899   7.008   4.002   1.369
 1645TIP3    H2 4900   6.953   4.058   1.239
 1646TIP3   OH2 4901   4.984   4.227   4.361
 1646TIP3    H1 4902   5.046   4.259   4.295
 1646TIP3    H2 4903   5.025   4.247   4.445
 1647TIP3   OH2 4904   2.145   6.521   1.147
 1647TIP3    H1 4905   2.159   6.434   1.109
 1647TIP3    H2 4906   2.061   6.513   1.193
 1648TIP3   OH2 4907   5.393   3.066   2.525
 1648TIP3    H1 4908   5.433   3.104   2.603
 1648TIP3    H2 4909   5.465   3.026   2.478
 1649TIP3   OH2 4910   7.027   1.197   1.975
 1649TIP3    H1 4911   7.025   1.260   1.903
 1649TIP3    H2 4912   7.031   1.251   2.054
 1650TIP3   OH2 4913   3.413   5.859   0.607
 1650TIP3    H1 4914   3.388   5.865   0.514
 1650TIP3    H2 4915   3.471   5.933   0.621
 1651TIP3   OH2 4916   5.100   2.902   4.116
 1651TIP3    H1 4917   5.097   2.891   4.211
 1651TIP3    H2 4918   5.096   2.997   4.103
 1652TIP3   OH2 4919   6.377   4.392   0.026
 1652TIP3    H1 4920   6.310   4.331   0.058
 1652TIP3    H2 4921   6.408   4.436   0.105
 1653TIP3   OH2 4922   4.062   4.097   1.095
 1653TIP3    H1 4923   4.013   4.130   1.020
 1653TIP3    H2 4924   3.996   4.082   1.163
 1654TIP3   OH2 4925   1.540   6.503   5.837
 1654TIP3    H1 4926   1.524   6.409   5.837
 1654TIP3    H2 4927   1.635   6.511   5.841
 1655TIP3   OH2 4928   2.965   5.477   0.106
 1655TIP3    H1 4929   2.892   5.421   0.132
 1655TIP3    H2 4930   2.971   5.542   0.176
 1656TIP3   OH2 4931   0.287   6.429   2.137
 1656TIP3    H1 4932   0.248   6.452   2.222
 1656TIP3    H2 4933   0.318   6.513   2.102
 1657TIP3   OH2 4934   1.189   0.908   3.730
 1657TIP3    H1 4935   1.206   0.995   3.694
 1657TIP3    H2 4936   1.129   0.867   3.668
 1658TIP3   OH2 4937   4.923   1.974   4.861
 1658TIP3    H1 4938   5.010   2.008   4.883
 1658TIP3    H2 4939   4.864   2.017   4.923
 1659TIP3   OH2 4940   4.450   1.876   0.744
 1659TIP3    H1 4941   4.397   1.925   0.806
 1659TIP3    H2 4942   4.386   1.826   0.692
 1660TIP3   OH2 4943   2.028   0.934   1.531
 1660TIP3    H1 4944   2.042   0.982   1.450
 1660TIP3    H2 4945   2.102   0.959   1.587
 1661TIP3   OH2 4946   2.635   1.664   4.714
 1661TIP3    H1 4947   2.720   1.708   4.715
 1661TIP3    H2 4948   2.634   1.614   4.633
 1662TIP3   OH2 4949   4.511   5.285   4.929
 1662TIP3    H1 4950   4.487   5.252   4.842
 1662TIP3    H2 4951   4.589   5.235   4.953
 1663TIP3   OH2 4952   6.590   6.088   4.511
 1663TIP3    H1 4953   6.573   6.097   4.604
 1663TIP3    H2 4954   6.670   6.036   4.506
 1664TIP3   OH2 4955   3.853   4.047   2.577
 1664TIP3    H1 4956   3.813   3.967   2.610
 1664TIP3    H2 4957   3.943   4.022   2.558
 1665TIP3   OH2 4958   4.753   6.004   3.839
 1665TIP3    H1 4959   4.842   5.973   3.823
 1665TIP3    H2 4960   4.754   6.095   3.808
 1666TIP3   OH2 4961   6.708   2.345   1.547
 1666TIP3    H1 4962   6.704   2.344   1.643
 1666TIP3    H2 4963   6.773   2.412   1.526
 1667TIP3   OH2 4964   4.661   2.699   5.682
 1667TIP3    H1 4965   4.618   2.770   5.634
 1667TIP3    H2 4966   4.649   2.723   5.774
 1668TIP3   OH2 4967   3.686   0.389   0.364
 1668TIP3    H1 4968   3.689   0.396   0.268
 1668TIP3    H2 4969   3.719   0.473   0.395
 1669TIP3   OH2 4970   1.914   2.548   1.650
 1669TIP3    H1 4971   1.867   2.623   1.687
 1669TIP3    H2 4972   1.906   2.559   1.555
 1670TIP3   OH2 4973   2.382   1.795   3.666
 1670TIP3    H1 4974   2.379   1.851   3.743
 1670TIP3    H2 4975   2.376   1.855   3.592
 1671TIP3   OH2 4976   1.368   5.212   0.004
 1671TIP3    H1 4977   1.347   5.197   0.096
 1671TIP3    H2 4978   1.378   5.307  -0.004
 1672TIP3   OH2 4979   0.067   6.478   1.137
 1672TIP3    H1 4980  -0.029   6.475   1.130
 1672TIP3    H2 4981   0.098   6.460   1.049
 1673TIP3   OH2 4982   1.293   5.402   1.999
 1673TIP3    H1 4983   1.316   5.311   2.019
 1673TIP3    H2 4984   1.298   5.447   2.083
 1674TIP3   OH2 4985   7.086   2.091   2.665
 1674TIP3    H1 4986   7.122   2.155   2.727
 1674TIP3    H2 4987   7.152   2.021   2.663
 1675TIP3   OH2 4988   6.730   0.754   5.460
 1675TIP3    H1 4989   6.699   0.712   5.541
 1675TIP3    H2 4990   6.698   0.844   5.466
 1676TIP3   OH2 4991   3.168   5.559   0.908
 1676TIP3    H1 4992   3.151   5.585   0.999
 1676TIP3    H2 4993   3.087   5.518   0.879
 1677TIP3   OH2 4994   3.231   2.082   2.968
 1677TIP3    H1 4995   3.182   2.137   2.906
 1677TIP3    H2 4996   3.272   2.143   3.029
 1678TIP3   OH2 4997   3.101   1.534   3.583
 1678TIP3    H1 4998   3.113   1.611   3.639
 1678TIP3    H2 4999   3.031   1.485   3.626
 1679TIP3   OH2 5000   1.262   6.503   2.574
 1679TIP3    H1 5001   1.355   6.494   2.553
 1679TIP3    H2 5002   1.256   6.478   2.666
 1680TIP3   OH2 5003   1.610   1.484   4.035
 1680TIP3    H1 5004   1.628   1.391   4.019
 1680TIP3    H2 5005   1.696   1.521   4.055
 1681TIP3   OH2 5006   5.974   0.857   3.403
 1681TIP3    H1 5007   6.032   0.814   3.341
 1681TIP3    H2 5008   5.994   0.950   3.395
 1682TIP3   OH2 5009   0.228   1.106   1.573
 1682TIP3    H1 5010   0.174   1.032   1.600
 1682TIP3    H2 5011   0.260   1.144   1.655
 1683TIP3   OH2 5012   0.060   3.204   5.556
 1683TIP3    H1 5013   0.061   3.300   5.562
 1683TIP3    H2 5014   0.122   3.184   5.486
 1684TIP3   OH2 5015   4.705   6.117   2.436
 1684TIP3    H1 5016   4.772   6.185   2.442
 1684TIP3    H2 5017   4.726   6.069   2.356
 1685TIP3   OH2 5018   0.574   3.014   4.188
 1685TIP3    H1 5019   0.524   3.094   4.171
 1685TIP3    H2 5020   0.528   2.972   4.260
 1686TIP3   OH2 5021   5.037   0.103   3.250
 1686TIP3    H1 5022   5.078   0.052   3.180
 1686TIP3    H2 5023   5.094   0.178   3.263
 1687TIP3   OH2 5024   7.117   3.368   3.383
 1687TIP3    H1 5025   7.091   3.296   3.439
 1687TIP3    H2 5026   7.211   3.378   3.398
 1688TIP3   OH2 5027   3.755   4.122   3.143
 1688TIP3    H1 5028   3.736   4.030   3.128
 1688TIP3    H2 5029   3.670   4.162   3.162
 1689TIP3   OH2 5030   2.261   4.208   0.734
 1689TIP3    H1 5031   2.332   4.179   0.677
 1689TIP3    H2 5032   2.289   4.181   0.822
 1690TIP3   OH2 5033   0.304   1.641   1.539
 1690TIP3    H1 5034   0.319   1.733   1.518
 1690TIP3    H2 5035   0.300   1.638   1.634
 1691TIP3   OH2 5036   6.303   3.184   4.608
 1691TIP3    H1 5037   6.275   3.170   4.517
 1691TIP3    H2 5038   6.251   3.120   4.658
 1692TIP3   OH2 5039   4.926   1.159   5.256
 1692TIP3    H1 5040   4.888   1.096   5.318
 1692TIP3    H2 5041   4.981   1.215   5.310
 1693TIP3   OH2 5042   4.403   1.405   1.784
 1693TIP3    H1 5043   4.332   1.408   1.847
 1693TIP3    H2 5044   4.442   1.492   1.786
 1694TIP3   OH2 5045   0.630   6.348   1.956
 1694TIP3    H1 5046   0.677   6.407   2.015
 1694TIP3    H2 5047   0.698   6.293   1.918
 1695TIP3   OH2 5048   2.789   4.522   2.221
 1695TIP3    H1 5049   2.766   4.603   2.177
 1695TIP3    H2 5050   2.826   4.550   2.305
 1696TIP3   OH2 5051   0.747   3.327   2.867
 1696TIP3    H1 5052   0.732   3.320   2.773
 1696TIP3    H2 5053   0.842   3.326   2.876
 1697TIP3   OH2 5054   0.161   0.091   5.389
 1697TIP3    H1 5055   0.084   0.146   5.405
 1697TIP3    H2 5056   0.210   0.094   5.470
 1698TIP3   OH2 5057   1.903   1.291   5.302
 1698TIP3    H1 5058   1.851   1.331   5.233
 1698TIP3    H2 5059   1.934   1.209   5.264
 1699TIP3   OH2 5060   0.669   0.563   2.352
 1699TIP3    H1 5061   0.759   0.547   2.325
 1699TIP3    H2 5062   0.676   0.609   2.435
 1700TIP3   OH2 5063   3.176   2.725   0.832
 1700TIP3    H1 5064   3.195   2.788   0.762
 1700TIP3    H2 5065   3.161   2.780   0.910
 1701TIP3   OH2 5066   4.444   3.158   0.938
 1701TIP3    H1 5067   4.426   3.065   0.931
 1701TIP3    H2 5068   4.396   3.198   0.865
 1702TIP3   OH2 5069   4.095   1.132   0.944
 1702TIP3    H1 5070   4.066   1.221   0.965
 1702TIP3    H2 5071   4.093   1.129   0.848
 1703TIP3   OH2 5072   1.141   0.124   0.024
 1703TIP3    H1 5073   1.147   0.169   0.108
 1703TIP3    H2 5074   1.054   0.147  -0.009
 1704TIP3   OH2 5075   5.036   5.350   4.438
 1704TIP3    H1 5076   5.030   5.299   4.519
 1704TIP3    H2 5077   4.963   5.411   4.442
 1705TIP3   OH2 5078   6.955   4.786   4.214
 1705TIP3    H1 5079   6.939   4.755   4.125
 1705TIP3    H2 5080   6.868   4.800   4.251
 1706TIP3   OH2 5081   5.465   6.096   1.750
 1706TIP3    H1 5082   5.487   6.146   1.829
 1706TIP3    H2 5083   5.548   6.056   1.723
 1707TIP3   OH2 5084   0.657   1.357   5.540
 1707TIP3    H1 5085   0.576   1.407   5.530
 1707TIP3    H2 5086   0.677   1.362   5.633
 1708TIP3   OH2 5087   0.672   4.178   3.086
 1708TIP3    H1 5088   0.656   4.256   3.139
 1708TIP3    H2 5089   0.588   4.131   3.087
 1709TIP3   OH2 5090   6.676   3.753   5.100
 1709TIP3    H1 5091   6.732   3.703   5.040
 1709TIP3    H2 5092   6.614   3.798   5.043
 1710TIP3   OH2 5093   6.448   1.311   2.235
 1710TIP3    H1 5094   6.454   1.404   2.258
 1710TIP3    H2 5095   6.421   1.268   2.317
 1711TIP3   OH2 5096   7.184   2.228   1.678
 1711TIP3    H1 5097   7.136   2.192   1.752
 1711TIP3    H2 5098   7.130   2.209   1.602
 1712TIP3   OH2 5099   2.717   1.890   0.715
 1712TIP3    H1 5100   2.799   1.898   0.667
 1712TIP3    H2 5101   2.743   1.894   0.807
 1713TIP3   OH2 5102   1.840   4.461   4.608
 1713TIP3    H1 5103   1.815   4.372   4.631
 1713TIP3    H2 5104   1.905   4.485   4.675
 1714TIP3   OH2 5105   3.204   4.118   0.163
 1714TIP3    H1 5106   3.275   4.056   0.180
 1714TIP3    H2 5107   3.156   4.124   0.246
 1715TIP3   OH2 5108   3.347   0.627   4.094
 1715TIP3    H1 5109   3.316   0.675   4.171
 1715TIP3    H2 5110   3.423   0.578   4.125
 1716TIP3   OH2 5111   0.870   1.963   4.514
 1716TIP3    H1 5112   0.919   1.991   4.436
 1716TIP3    H2 5113   0.891   2.029   4.580
 1717TIP3   OH2 5114   6.253   0.987   5.060
 1717TIP3    H1 5115   6.289   0.991   4.971
 1717TIP3    H2 5116   6.204   0.905   5.062
 1718TIP3   OH2 5117   5.082   4.568   1.408
 1718TIP3    H1 5118   5.086   4.509   1.333
 1718TIP3    H2 5119   5.172   4.596   1.422
 1719TIP3   OH2 5120   7.215   1.096   1.799
 1719TIP3    H1 5121   7.149   1.162   1.781
 1719TIP3    H2 5122   7.227   1.098   1.894
 1720TIP3   OH2 5123   5.077   4.278   0.020
 1720TIP3    H1 5124   5.075   4.242   0.108
 1720TIP3    H2 5125   4.998   4.245  -0.022
 1721TIP3   OH2 5126   7.047   6.400   3.308
 1721TIP3    H1 5127   7.025   6.415   3.216
 1721TIP3    H2 5128   7.112   6.468   3.328
 1722TIP3   OH2 5129   6.284   6.032   4.932
 1722TIP3    H1 5130   6.269   5.942   4.961
 1722TIP3    H2 5131   6.260   6.031   4.839
 1723TIP3   OH2 5132   3.973   3.899   0.648
 1723TIP3    H1 5133   3.944   3.985   0.679
 1723TIP3    H2 5134   4.000   3.853   0.727
 1724TIP3   OH2 5135   7.084   5.182   0.547
 1724TIP3    H1 5136   7.141   5.215   0.477
 1724TIP3    H2 5137   6.995   5.194   0.513
 1725TIP3   OH2 5138   6.329   1.135   2.439
 1725TIP3    H1 5139   6.354   1.139   2.531
 1725TIP3    H2 5140   6.270   1.060   2.434
 1726TIP3   OH2 5141   4.086   0.718   1.441
 1726TIP3    H1 5142   4.049   0.663   1.372
 1726TIP3    H2 5143   4.071   0.808   1.411
 1727TIP3   OH2 5144   5.576   6.267   1.264
 1727TIP3    H1 5145   5.554   6.229   1.179
 1727TIP3    H2 5146   5.529   6.212   1.327
 1728TIP3   OH2 5147   2.935   1.529   2.613
 1728TIP3    H1 5148   2.956   1.442   2.648
 1728TIP3    H2 5149   2.997   1.542   2.542
 1729TIP3   OH2 5150   5.955   0.781   1.943
 1729TIP3    H1 5151   5.988   0.845   1.880
 1729TIP3    H2 5152   5.926   0.833   2.018
 1730TIP3   OH2 5153   5.243   6.691   2.204
 1730TIP3    H1 5154   5.159   6.726   2.235
 1730TIP3    H2 5155   5.266   6.625   2.269
 1731TIP3   OH2 5156   3.957   1.178   1.665
 1731TIP3    H1 5157   3.991   1.195   1.577
 1731TIP3    H2 5158   3.933   1.085   1.665
 1732TIP3   OH2 5159   5.968   6.178   5.380
 1732TIP3    H1 5160   6.035   6.246   5.373
 1732TIP3    H2 5161   6.010   6.098   5.348
 1733TIP3   OH2 5162   5.011   1.116   4.397
 1733TIP3    H1 5163   4.939   1.055   4.379
 1733TIP3    H2 5164   5.030   1.157   4.312
 1734TIP3   OH2 5165   1.727   2.844   5.326
 1734TIP3    H1 5166   1.693   2.763   5.288
 1734TIP3    H2 5167   1.809   2.817   5.369
 1735TIP3   OH2 5168   3.230   0.219   2.123
 1735TIP3    H1 5169   3.181   0.212   2.205
 1735TIP3    H2 5170   3.163   0.227   2.055
 1736TIP3   OH2 5171   2.142   3.329   0.826
 1736TIP3    H1 5172   2.186   3.280   0.895
 1736TIP3    H2 5173   2.076   3.269   0.792
 1737TIP3   OH2 5174   2.032   0.835   4.267
 1737TIP3    H1 5175   1.966   0.903   4.254
 1737TIP3    H2 5176   2.100   0.855   4.202
 1738TIP3   OH2 5177   3.845   5.991   2.960
 1738TIP3    H1 5178   3.865   5.965   2.870
 1738TIP3    H2 5179   3.801   5.915   2.998
 1739TIP3   OH2 5180   3.853   1.672   2.142
 1739TIP3    H1 5181   3.805   1.709   2.217
 1739TIP3    H2 5182   3.807   1.706   2.065
 1740TIP3   OH2 5183   0.649   0.819   4.010
 1740TIP3    H1 5184   0.626   0.741   4.061
 1740TIP3    H2 5185   0.654   0.889   4.075
 1741TIP3   OH2 5186   4.062   4.984   2.308
 1741TIP3    H1 5187   4.007   5.052   2.269
 1741TIP3    H2 5188   4.000   4.915   2.335
 1742TIP3   OH2 5189   2.506   1.860   4.089
 1742TIP3    H1 5190   2.481   1.816   4.171
 1742TIP3    H2 5191   2.555   1.937   4.118
 1743TIP3   OH2 5192   0.426   1.452   1.987
 1743TIP3    H1 5193   0.393   1.397   2.058
 1743TIP3    H2 5194   0.521   1.454   2.000
 1744TIP3   OH2 5195   5.410   2.929   3.753
 1744TIP3    H1 5196   5.341   2.996   3.761
 1744TIP3    H2 5197   5.492   2.978   3.761
 1745TIP3   OH2 5198   5.370   2.262   0.969
 1745TIP3    H1 5199   5.445   2.312   1.002
 1745TIP3    H2 5200   5.338   2.213   1.044
 1746TIP3   OH2 5201   6.947   0.596   3.950
 1746TIP3    H1 5202   6.956   0.500   3.953
 1746TIP3    H2 5203   6.870   0.610   3.894
 1747TIP3   OH2 5204   6.173   6.331   0.663
 1747TIP3    H1 5205   6.109   6.329   0.592
 1747TIP3    H2 5206   6.199   6.423   0.669
 1748TIP3   OH2 5207   0.428   6.646   1.860
 1748TIP3    H1 5208   0.491   6.663   1.930
 1748TIP3    H2 5209   0.348   6.691   1.888
 1749TIP3   OH2 5210   2.536   4.355   0.380
 1749TIP3    H1 5211   2.618   4.346   0.332
 1749TIP3    H2 5212   2.510   4.265   0.402
 1750TIP3   OH2 5213   4.900   0.966   2.705
 1750TIP3    H1 5214   4.882   0.909   2.631
 1750TIP3    H2 5215   4.917   1.052   2.666
 1751TIP3   OH2 5216   0.296   0.149   5.639
 1751TIP3    H1 5217   0.331   0.232   5.672
 1751TIP3    H2 5218   0.372   0.091   5.636
 1752TIP3   OH2 5219   6.128   5.505   4.668
 1752TIP3    H1 5220   6.183   5.434   4.634
 1752TIP3    H2 5221   6.056   5.511   4.605
 1753TIP3   OH2 5222   7.124   6.560   4.506
 1753TIP3    H1 5223   7.142   6.606   4.423
 1753TIP3    H2 5224   7.210   6.532   4.537
 1754TIP3   OH2 5225   4.533   4.472   3.728
 1754TIP3    H1 5226   4.488   4.521   3.797
 1754TIP3    H2 5227   4.463   4.440   3.672
 1755TIP3   OH2 5228   4.002   6.046   5.158
 1755TIP3    H1 5229   4.022   5.955   5.181
 1755TIP3    H2 5230   3.931   6.071   5.216
 1756TIP3   OH2 5231   4.793   2.164   4.522
 1756TIP3    H1 5232   4.862   2.100   4.540
 1756TIP3    H2 5233   4.715   2.125   4.562
 1757TIP3   OH2 5234   1.976   6.787   1.393
 1757TIP3    H1 5235   1.960   6.694   1.379
 1757TIP3    H2 5236   1.908   6.814   1.454
 1758TIP3   OH2 5237   0.884   5.384   5.624
 1758TIP3    H1 5238   0.939   5.310   5.649
 1758TIP3    H2 5239   0.939   5.435   5.564
 1759TIP3   OH2 5240   2.050   1.693   2.751
 1759TIP3    H1 5241   2.053   1.602   2.721
 1759TIP3    H2 5242   2.141   1.722   2.749
 1760TIP3   OH2 5243   5.528   4.610   5.091
 1760TIP3    H1 5244   5.617   4.630   5.121
 1760TIP3    H2 5245   5.539   4.575   5.003
 1761TIP3   OH2 5246   4.788   0.180   0.734
 1761TIP3    H1 5247   4.781   0.090   0.702
 1761TIP3    H2 5248   4.698   0.211   0.741
 1762TIP3   OH2 5249   2.665   5.470   1.545
 1762TIP3    H1 5250   2.716   5.449   1.623
 1762TIP3    H2 5251   2.717   5.538   1.501
 1763TIP3   OH2 5252   6.787   5.148   0.637
 1763TIP3    H1 5253   6.759   5.077   0.694
 1763TIP3    H2 5254   6.711   5.206   0.632
 1764TIP3   OH2 5255   7.027   2.569   4.560
 1764TIP3    H1 5256   6.985   2.651   4.586
 1764TIP3    H2 5257   7.114   2.594   4.531
 1765TIP3   OH2 5258   4.457   6.374   3.785
 1765TIP3    H1 5259   4.542   6.331   3.795
 1765TIP3    H2 5260   4.404   6.312   3.735
 1766TIP3   OH2 5261   0.017   5.215   3.579
 1766TIP3    H1 5262   0.082   5.282   3.557
 1766TIP3    H2 5263   0.068   5.141   3.610
 1767TIP3   OH2 5264   3.491   3.951   2.978
 1767TIP3    H1 5265   3.446   3.896   2.914
 1767TIP3    H2 5266   3.570   3.902   3.001
 1768TIP3   OH2 5267   2.973   5.200   5.150
 1768TIP3    H1 5268   2.955   5.135   5.218
 1768TIP3    H2 5269   3.054   5.170   5.110
 1769TIP3   OH2 5270   6.344   4.127   3.862
 1769TIP3    H1 5271   6.319   4.187   3.792
 1769TIP3    H2 5272   6.262   4.088   3.891
 1770TIP3   OH2 5273   0.568   3.211   0.235
 1770TIP3    H1 5274   0.529   3.141   0.288
 1770TIP3    H2 5275   0.660   3.213   0.263
 1771TIP3   OH2 5276   1.138   2.002   0.284
 1771TIP3    H1 5277   1.228   1.970   0.280
 1771TIP3    H2 5278   1.138   2.063   0.358
 1772TIP3   OH2 5279   6.808   5.444   5.646
 1772TIP3    H1 5280   6.891   5.397   5.655
 1772TIP3    H2 5281   6.804   5.501   5.723
 1773TIP3   OH2 5282   6.222   3.705   3.872
 1773TIP3    H1 5283   6.316   3.690   3.864
 1773TIP3    H2 5284   6.205   3.702   3.966
 1774TIP3   OH2 5285   6.900   4.131   4.063
 1774TIP3    H1 5286   6.975   4.115   4.121
 1774TIP3    H2 5287   6.875   4.044   4.032
 1775TIP3   OH2 5288   1.588   2.205   5.264
 1775TIP3    H1 5289   1.633   2.248   5.337
 1775TIP3    H2 5290   1.528   2.143   5.305
 1776TIP3   OH2 5291   3.521   5.216   5.717
 1776TIP3    H1 5292   3.495   5.145   5.659
 1776TIP3    H2 5293   3.439   5.246   5.756
 1777TIP3   OH2 5294   1.771   1.911   4.264
 1777TIP3    H1 5295   1.814   1.886   4.182
 1777TIP3    H2 5296   1.716   1.986   4.240
 1778TIP3   OH2 5297   3.306   2.395   3.895
 1778TIP3    H1 5298   3.354   2.368   3.816
 1778TIP3    H2 5299   3.356   2.470   3.928
 1779TIP3   OH2 5300   4.177   3.841   1.078
 1779TIP3    H1 5301   4.128   3.923   1.066
 1779TIP3    H2 5302   4.112   3.773   1.066
 1780TIP3   OH2 5303   3.504   1.613   4.939
 1780TIP3    H1 5304   3.567   1.578   5.002
 1780TIP3    H2 5305   3.511   1.554   4.863
 1781TIP3   OH2 5306   2.280   3.491   4.622
 1781TIP3    H1 5307   2.333   3.496   4.702
 1781TIP3    H2 5308   2.196   3.529   4.647
 1782TIP3   OH2 5309   1.439   6.387   0.655
 1782TIP3    H1 5310   1.403   6.358   0.739
 1782TIP3    H2 5311   1.397   6.472   0.639
 1783TIP3   OH2 5312   5.022   0.031   2.585
 1783TIP3    H1 5313   5.108   0.014   2.547
 1783TIP3    H2 5314   4.965  -0.036   2.547
 1784TIP3   OH2 5315   7.104   4.944   1.521
 1784TIP3    H1 5316   7.165   4.978   1.587
 1784TIP3    H2 5317   7.019   4.978   1.547
 1785TIP3   OH2 5318   6.099   0.574   3.087
 1785TIP3    H1 5319   6.101   0.529   3.172
 1785TIP3    H2 5320   6.143   0.513   3.027
 1786TIP3   OH2 5321   2.563   4.697   4.507
 1786TIP3    H1 5322   2.642   4.735   4.545
 1786TIP3    H2 5323   2.504   4.684   4.582
 1787TIP3   OH2 5324   6.510   6.601   5.346
 1787TIP3    H1 5325   6.568   6.677   5.349
 1787TIP3    H2 5326   6.526   6.555   5.428
 1788TIP3   OH2 5327   1.807   5.561   1.994
 1788TIP3    H1 5328   1.818   5.578   2.087
 1788TIP3    H2 5329   1.876   5.499   1.972
 1789TIP3   OH2 5330   1.626   2.600   5.249
 1789TIP3    H1 5331   1.625   2.536   5.177
 1789TIP3    H2 5332   1.546   2.652   5.235
 1790TIP3   OH2 5333   5.227   5.012   5.051
 1790TIP3    H1 5334   5.300   5.035   4.993
 1790TIP3    H2 5335   5.244   4.921   5.076
 1791TIP3   OH2 5336   6.023   5.738   3.548
 1791TIP3    H1 5337   6.008   5.644   3.539
 1791TIP3    H2 5338   5.947   5.769   3.599
 1792TIP3   OH2 5339   0.516   0.250   4.787
 1792TIP3    H1 5340   0.530   0.334   4.744
 1792TIP3    H2 5341   0.424   0.252   4.815
 1793TIP3   OH2 5342   1.158   0.539   0.234
 1793TIP3    H1 5343   1.238   0.551   0.284
 1793TIP3    H2 5344   1.099   0.491   0.293
 1794TIP3   OH2 5345   3.449   3.555   4.416
 1794TIP3    H1 5346   3.521   3.617   4.409
 1794TIP3    H2 5347   3.388   3.596   4.477
 1795TIP3   OH2 5348   6.996   0.576   4.272
 1795TIP3    H1 5349   6.970   0.523   4.197
 1795TIP3    H2 5350   6.940   0.654   4.267
 1796TIP3   OH2 5351   4.134   2.009   4.589
 1796TIP3    H1 5352   4.059   2.057   4.625
 1796TIP3    H2 5353   4.141   1.931   4.644
 1797TIP3   OH2 5354   6.430   2.257   0.953
 1797TIP3    H1 5355   6.395   2.346   0.960
 1797TIP3    H2 5356   6.397   2.212   1.031
 1798TIP3   OH2 5357   6.634   4.978   4.734
 1798TIP3    H1 5358   6.653   4.994   4.826
 1798TIP3    H2 5359   6.703   4.917   4.705
 1799TIP3   OH2 5360   4.635   6.005   3.409
 1799TIP3    H1 5361   4.730   6.013   3.400
 1799TIP3    H2 5362   4.611   5.935   3.348
 1800TIP3   OH2 5363   6.317   1.219   2.702
 1800TIP3    H1 5364   6.243   1.164   2.729
 1800TIP3    H2 5365   6.279   1.305   2.686
 1801TIP3   OH2 5366   4.841   1.983   3.483
 1801TIP3    H1 5367   4.897   1.951   3.554
 1801TIP3    H2 5368   4.778   2.041   3.527
 1802TIP3   OH2 5369   2.383   5.347   0.335
 1802TIP3    H1 5370   2.292   5.373   0.350
 1802TIP3    H2 5371   2.434   5.411   0.386
 1803TIP3   OH2 5372   1.209   0.983   0.215
 1803TIP3    H1 5373   1.119   0.949   0.221
 1803TIP3    H2 5374   1.261   0.907   0.189
 1804TIP3   OH2 5375   2.607   0.009   1.931
 1804TIP3    H1 5376   2.542  -0.029   1.871
 1804TIP3    H2 5377   2.609   0.102   1.909
 1805TIP3   OH2 5378   5.113   5.164   2.412
 1805TIP3    H1 5379   5.118   5.069   2.402
 1805TIP3    H2 5380   5.094   5.177   2.505
 1806TIP3   OH2 5381   4.346   4.748   5.080
 1806TIP3    H1 5382   4.381   4.675   5.028
 1806TIP3    H2 5383   4.419   4.774   5.137
 1807TIP3   OH2 5384   2.071   3.030   4.993
 1807TIP3    H1 5385   2.075   2.950   4.942
 1807TIP3    H2 5386   1.996   3.078   4.957
 1808TIP3   OH2 5387   5.997   4.124   0.910
 1808TIP3    H1 5388   6.062   4.165   0.852
 1808TIP3    H2 5389   5.942   4.073   0.851
 1809TIP3   OH2 5390   4.589   1.893   5.811
 1809TIP3    H1 5391   4.649   1.829   5.849
 1809TIP3    H2 5392   4.565   1.950   5.884
 1810TIP3   OH2 5393   2.210   4.018   1.884
 1810TIP3    H1 5394   2.119   3.988   1.887
 1810TIP3    H2 5395   2.227   4.034   1.792
 1811TIP3   OH2 5396   1.094   5.498   5.498
 1811TIP3    H1 5397   1.120   5.577   5.546
 1811TIP3    H2 5398   1.161   5.487   5.431
 1812TIP3   OH2 5399   6.152   6.371   5.355
 1812TIP3    H1 5400   6.187   6.460   5.361
 1812TIP3    H2 5401   6.162   6.348   5.263
 1813TIP3   OH2 5402   6.442   1.645   0.278
 1813TIP3    H1 5403   6.496   1.660   0.356
 1813TIP3    H2 5404   6.451   1.551   0.261
 1814TIP3   OH2 5405   6.995   3.574   1.764
 1814TIP3    H1 5406   6.903   3.547   1.771
 1814TIP3    H2 5407   6.990   3.668   1.744
 1815TIP3   OH2 5408   0.785   6.653   1.617
 1815TIP3    H1 5409   0.862   6.703   1.590
 1815TIP3    H2 5410   0.811   6.561   1.608
 1816TIP3   OH2 5411   1.505   3.466   1.655
 1816TIP3    H1 5412   1.464   3.386   1.691
 1816TIP3    H2 5413   1.488   3.533   1.722
 1817TIP3   OH2 5414   4.255   3.847   5.433
 1817TIP3    H1 5415   4.292   3.759   5.435
 1817TIP3    H2 5416   4.221   3.858   5.344
 1818TIP3   OH2 5417   7.180   5.256   3.999
 1818TIP3    H1 5418   7.164   5.233   3.908
 1818TIP3    H2 5419   7.119   5.202   4.049
 1819TIP3   OH2 5420   5.421   2.903   4.065
 1819TIP3    H1 5421   5.416   2.823   4.117
 1819TIP3    H2 5422   5.430   2.872   3.975
 1820TIP3   OH2 5423   5.679   3.415   3.712
 1820TIP3    H1 5424   5.710   3.396   3.801
 1820TIP3    H2 5425   5.702   3.337   3.662
 1821TIP3   OH2 5426   6.487   4.368   1.159
 1821TIP3    H1 5427   6.408   4.324   1.191
 1821TIP3    H2 5428   6.559   4.320   1.199
 1822TIP3   OH2 5429   5.602   1.279   4.402
 1822TIP3    H1 5430   5.645   1.345   4.348
 1822TIP3    H2 5431   5.642   1.288   4.488
 1823TIP3   OH2 5432   4.477   6.350   0.668
 1823TIP3    H1 5433   4.403   6.410   0.659
 1823TIP3    H2 5434   4.437   6.264   0.683
 1824TIP3   OH2 5435   3.199   3.577   4.264
 1824TIP3    H1 5436   3.257   3.647   4.294
 1824TIP3    H2 5437   3.179   3.526   4.343
 1825TIP3   OH2 5438   0.145   1.785   4.774
 1825TIP3    H1 5439   0.205   1.755   4.842
 1825TIP3    H2 5440   0.104   1.705   4.741
 1826TIP3   OH2 5441   2.387   3.052   1.730
 1826TIP3    H1 5442   2.391   3.049   1.634
 1826TIP3    H2 5443   2.410   2.964   1.757
 1827TIP3   OH2 5444   5.409   3.750   1.339
 1827TIP3    H1 5445   5.437   3.839   1.359
 1827TIP3    H2 5446   5.388   3.711   1.424
 1828TIP3   OH2 5447   3.220   0.949   2.603
 1828TIP3    H1 5448   3.168   1.005   2.546
 1828TIP3    H2 5449   3.286   1.008   2.641
 1829TIP3   OH2 5450   6.548   3.571   5.345
 1829TIP3    H1 5451   6.550   3.666   5.347
 1829TIP3    H2 5452   6.567   3.545   5.436
 1830TIP3   OH2 5453   4.985   6.513   2.238
 1830TIP3    H1 5454   5.002   6.511   2.144
 1830TIP3    H2 5455   5.013   6.601   2.265
 1831TIP3   OH2 5456   3.118   4.572   4.100
 1831TIP3    H1 5457   3.185   4.595   4.036
 1831TIP3    H2 5458   3.056   4.645   4.098
 1832TIP3   OH2 5459   3.938   0.210   3.014
 1832TIP3    H1 5460   3.963   0.287   3.065
 1832TIP3    H2 5461   4.021   0.173   2.983
 1833TIP3   OH2 5462   3.539   5.589   3.820
 1833TIP3    H1 5463   3.456   5.544   3.808
 1833TIP3    H2 5464   3.564   5.569   3.910
 1834TIP3   OH2 5465   6.904   4.206   2.438
 1834TIP3    H1 5466   6.994   4.192   2.466
 1834TIP3    H2 5467   6.865   4.119   2.439
 1835TIP3   OH2 5468   2.766   1.992   3.248
 1835TIP3    H1 5469   2.837   2.040   3.204
 1835TIP3    H2 5470   2.688   2.044   3.230
 1836TIP3   OH2 5471   1.945   4.255   3.346
 1836TIP3    H1 5472   1.973   4.305   3.269
 1836TIP3    H2 5473   1.850   4.262   3.346
 1837TIP3   OH2 5474   4.925   4.139   1.464
 1837TIP3    H1 5475   4.834   4.168   1.473
 1837TIP3    H2 5476   4.921   4.043   1.469
 1838TIP3   OH2 5477   5.321   5.467   1.390
 1838TIP3    H1 5478   5.370   5.438   1.467
 1838TIP3    H2 5479   5.288   5.386   1.351
 1839TIP3   OH2 5480   1.380   5.749   1.608
 1839TIP3    H1 5481   1.409   5.674   1.555
 1839TIP3    H2 5482   1.409   5.727   1.696
 1840TIP3   OH2 5483   1.897   6.412   2.728
 1840TIP3    H1 5484   1.827   6.461   2.771
 1840TIP3    H2 5485   1.905   6.452   2.641
 1841TIP3   OH2 5486   6.661   3.061   2.137
 1841TIP3    H1 5487   6.630   3.029   2.222
 1841TIP3    H2 5488   6.626   2.999   2.073
 1842TIP3   OH2 5489   5.608   5.377   3.818
 1842TIP3    H1 5490   5.625   5.300   3.872
 1842TIP3    H2 5491   5.629   5.349   3.729
 1843TIP3   OH2 5492   2.835   4.678   0.650
 1843TIP3    H1 5493   2.839   4.773   0.661
 1843TIP3    H2 5494   2.859   4.664   0.559
 1844TIP3   OH2 5495   0.353   6.497   0.301
 1844TIP3    H1 5496   0.310   6.419   0.266
 1844TIP3    H2 5497   0.289   6.533   0.363
 1845TIP3   OH2 5498   4.593   2.394   4.416
 1845TIP3    H1 5499   4.579   2.325   4.481
 1845TIP3    H2 5500   4.626   2.348   4.339
 1846TIP3   OH2 5501   3.893   2.011   1.694
 1846TIP3    H1 5502   3.941   1.976   1.769
 1846TIP3    H2 5503   3.880   1.936   1.636
 1847TIP3   OH2 5504   6.707   1.868   0.378
 1847TIP3    H1 5505   6.637   1.932   0.366
 1847TIP3    H2 5506   6.755   1.870   0.295
 1848TIP3   OH2 5507   6.862   6.804   1.786
 1848TIP3    H1 5508   6.835   6.748   1.713
 1848TIP3    H2 5509   6.888   6.742   1.854
 1849TIP3   OH2 5510   4.389   4.023   1.888
 1849TIP3    H1 5511   4.394   3.938   1.845
 1849TIP3    H2 5512   4.440   4.082   1.831
 1850TIP3   OH2 5513   0.432   5.707   2.518
 1850TIP3    H1 5514   0.347   5.664   2.532
 1850TIP3    H2 5515   0.431   5.732   2.426
 1851TIP3   OH2 5516   1.846   4.389   2.067
 1851TIP3    H1 5517   1.937   4.359   2.056
 1851TIP3    H2 5518   1.797   4.308   2.084
 1852TIP3   OH2 5519   3.946   3.134   3.317
 1852TIP3    H1 5520   4.026   3.130   3.263
 1852TIP3    H2 5521   3.917   3.043   3.323
 1853TIP3   OH2 5522   6.170   1.125   0.905
 1853TIP3    H1 5523   6.140   1.190   0.842
 1853TIP3    H2 5524   6.176   1.043   0.855
 1854TIP3   OH2 5525   5.417   3.536   1.162
 1854TIP3    H1 5526   5.406   3.605   1.228
 1854TIP3    H2 5527   5.341   3.480   1.173
 1855TIP3   OH2 5528   1.950   4.341   4.299
 1855TIP3    H1 5529   1.932   4.263   4.352
 1855TIP3    H2 5530   2.002   4.398   4.355
 1856TIP3   OH2 5531   6.279   0.370   1.644
 1856TIP3    H1 5532   6.302   0.421   1.721
 1856TIP3    H2 5533   6.202   0.320   1.671
 1857TIP3   OH2 5534   5.983   6.764   5.124
 1857TIP3    H1 5535   6.014   6.719   5.203
 1857TIP3    H2 5536   5.888   6.774   5.137
 1858TIP3   OH2 5537   4.017   0.091   4.177
 1858TIP3    H1 5538   3.960   0.143   4.233
 1858TIP3    H2 5539   4.057   0.154   4.117
 1859TIP3   OH2 5540   5.333   5.611   1.760
 1859TIP3    H1 5541   5.368   5.675   1.822
 1859TIP3    H2 5542   5.323   5.531   1.812
 1860TIP3   OH2 5543   5.063   0.413   3.268
 1860TIP3    H1 5544   5.036   0.377   3.352
 1860TIP3    H2 5545   5.113   0.491   3.290
 1861TIP3   OH2 5546   6.955   2.332   1.256
 1861TIP3    H1 5547   6.991   2.275   1.324
 1861TIP3    H2 5548   7.032   2.374   1.217
 1862TIP3   OH2 5549   4.520   0.545   4.243
 1862TIP3    H1 5550   4.438   0.497   4.258
 1862TIP3    H2 5551   4.525   0.554   4.148
 1863TIP3   OH2 5552   6.681   4.977   1.296
 1863TIP3    H1 5553   6.730   4.999   1.217
 1863TIP3    H2 5554   6.741   4.997   1.368
 1864TIP3   OH2 5555   0.184   4.425   2.059
 1864TIP3    H1 5556   0.169   4.514   2.029
 1864TIP3    H2 5557   0.233   4.435   2.141
 1865TIP3   OH2 5558   4.613   5.698   0.218
 1865TIP3    H1 5559   4.584   5.628   0.159
 1865TIP3    H2 5560   4.552   5.771   0.200
 1866TIP3   OH2 5561   5.905   3.304   5.149
 1866TIP3    H1 5562   5.869   3.389   5.124
 1866TIP3    H2 5563   5.989   3.325   5.190
 1867TIP3   OH2 5564   4.708   4.492   5.559
 1867TIP3    H1 5565   4.688   4.411   5.606
 1867TIP3    H2 5566   4.796   4.478   5.524
 1868TIP3   OH2 5567   0.564   1.089   5.540
 1868TIP3    H1 5568   0.571   1.184   5.546
 1868TIP3    H2 5569   0.538   1.072   5.450
 1869TIP3   OH2 5570   1.975   4.965   0.319
 1869TIP3    H1 5571   1.880   4.959   0.306
 1869TIP3    H2 5572   1.985   5.017   0.399
 1870TIP3   OH2 5573   2.304   0.887   4.634
 1870TIP3    H1 5574   2.253   0.889   4.715
 1870TIP3    H2 5575   2.277   0.964   4.586
 1871TIP3   OH2 5576   1.454   3.075   4.167
 1871TIP3    H1 5577   1.483   2.988   4.141
 1871TIP3    H2 5578   1.502   3.093   4.248
 1872TIP3   OH2 5579   0.342   0.231   0.627
 1872TIP3    H1 5580   0.412   0.176   0.661
 1872TIP3    H2 5581   0.370   0.320   0.646
 1873TIP3   OH2 5582   6.198   4.457   2.603
 1873TIP3    H1 5583   6.249   4.521   2.553
 1873TIP3    H2 5584   6.126   4.433   2.544
 1874TIP3   OH2 5585   2.013   2.300   2.335
 1874TIP3    H1 5586   2.054   2.315   2.420
 1874TIP3    H2 5587   2.053   2.365   2.277
 1875TIP3   OH2 5588   2.633   1.831   1.814
 1875TIP3    H1 5589   2.673   1.841   1.728
 1875TIP3    H2 5590   2.702   1.857   1.875
 1876TIP3   OH2 5591   0.725   5.127   1.360
 1876TIP3    H1 5592   0.722   5.192   1.289
 1876TIP3    H2 5593   0.710   5.178   1.440
 1877TIP3   OH2 5594   1.683   4.776   3.362
 1877TIP3    H1 5595   1.738   4.748   3.289
 1877TIP3    H2 5596   1.605   4.812   3.320
 1878TIP3   OH2 5597   6.546   4.334   2.108
 1878TIP3    H1 5598   6.628   4.360   2.151
 1878TIP3    H2 5599   6.545   4.238   2.116
 1879TIP3   OH2 5600   1.045   2.587   5.051
 1879TIP3    H1 5601   1.134   2.596   5.084
 1879TIP3    H2 5602   1.055   2.563   4.959
 1880TIP3   OH2 5603   2.918   2.549   4.311
 1880TIP3    H1 5604   2.893   2.615   4.376
 1880TIP3    H2 5605   3.003   2.516   4.341
 1881TIP3   OH2 5606   6.356   5.245   0.257
 1881TIP3    H1 5607   6.316   5.200   0.331
 1881TIP3    H2 5608   6.301   5.322   0.244
 1882TIP3   OH2 5609   4.242   6.580   2.875
 1882TIP3    H1 5610   4.294   6.518   2.926
 1882TIP3    H2 5611   4.207   6.529   2.802
 1883TIP3   OH2 5612   5.575   2.545   3.617
 1883TIP3    H1 5613   5.665   2.513   3.615
 1883TIP3    H2 5614   5.549   2.550   3.525
 1884TIP3   OH2 5615   3.429   1.990   1.050
 1884TIP3    H1 5616   3.393   2.009   0.964
 1884TIP3    H2 5617   3.375   1.917   1.082
 1885TIP3   OH2 5618   4.365   3.037   1.499
 1885TIP3    H1 5619   4.285   3.089   1.490
 1885TIP3    H2 5620   4.338   2.948   1.475
 1886TIP3   OH2 5621   1.405   0.377   2.602
 1886TIP3    H1 5622   1.427   0.320   2.676
 1886TIP3    H2 5623   1.475   0.360   2.538
 1887TIP3   OH2 5624   6.745   0.353   1.497
 1887TIP3    H1 5625   6.701   0.273   1.527
 1887TIP3    H2 5626   6.833   0.347   1.533
 1888TIP3   OH2 5627   3.455   6.478   4.367
 1888TIP3    H1 5628   3.545   6.487   4.399
 1888TIP3    H2 5629   3.451   6.389   4.332
 1889TIP3   OH2 5630   5.769   3.204   3.535
 1889TIP3    H1 5631   5.799   3.117   3.508
 1889TIP3    H2 5632   5.705   3.229   3.468
 1890TIP3   OH2 5633   4.950   0.651   4.994
 1890TIP3    H1 5634   4.862   0.612   4.998
 1890TIP3    H2 5635   4.935   0.745   5.007
 1891TIP3   OH2 5636   3.812   6.262   2.505
 1891TIP3    H1 5637   3.782   6.259   2.414
 1891TIP3    H2 5638   3.783   6.179   2.543
 1892TIP3   OH2 5639   5.565   2.738   1.166
 1892TIP3    H1 5640   5.646   2.762   1.120
 1892TIP3    H2 5641   5.593   2.725   1.257
 1893TIP3   OH2 5642   4.728   6.386   0.758
 1893TIP3    H1 5643   4.767   6.304   0.727
 1893TIP3    H2 5644   4.637   6.381   0.728
 1894TIP3   OH2 5645   4.789   5.482   4.876
 1894TIP3    H1 5646   4.736   5.417   4.829
 1894TIP3    H2 5647   4.789   5.451   4.967
 1895TIP3   OH2 5648   3.990   0.498   2.029
 1895TIP3    H1 5649   4.035   0.583   2.032
 1895TIP3    H2 5650   3.900   0.518   2.055
 1896TIP3   OH2 5651   3.491   4.671   3.673
 1896TIP3    H1 5652   3.426   4.678   3.603
 1896TIP3    H2 5653   3.568   4.716   3.638
 1897TIP3   OH2 5654   4.889   0.900   2.106
 1897TIP3    H1 5655   4.856   0.843   2.175
 1897TIP3    H2 5656   4.972   0.861   2.080
 1898TIP3   OH2 5657   5.341   4.196  -0.002
 1898TIP3    H1 5658   5.266   4.255  -0.005
 1898TIP3    H2 5659   5.363   4.180  -0.093
 1899TIP3   OH2 5660   3.195   3.028   4.355
 1899TIP3    H1 5661   3.184   2.935   4.334
 1899TIP3    H2 5662   3.131   3.044   4.425
 1900TIP3   OH2 5663   5.423   3.374   5.395
 1900TIP3    H1 5664   5.507   3.407   5.427
 1900TIP3    H2 5665   5.360   3.443   5.416
 1901TIP3   OH2 5666   2.308   5.194   4.352
 1901TIP3    H1 5667   2.234   5.134   4.357
 1901TIP3    H2 5668   2.349   5.174   4.268
 1902TIP3   OH2 5669   2.135   6.534   2.128
 1902TIP3    H1 5670   2.168   6.456   2.085
 1902TIP3    H2 5671   2.178   6.535   2.214
 1903TIP3   OH2 5672   0.256   0.933   1.277
 1903TIP3    H1 5673   0.218   0.855   1.238
 1903TIP3    H2 5674   0.344   0.906   1.305
 1904TIP3   OH2 5675   3.414   0.128   2.857
 1904TIP3    H1 5676   3.476   0.151   2.925
 1904TIP3    H2 5677   3.330   0.164   2.887
 1905TIP3   OH2 5678   0.832   3.366   5.543
 1905TIP3    H1 5679   0.867   3.360   5.454
 1905TIP3    H2 5680   0.781   3.447   5.543
 1906TIP3   OH2 5681   5.195   1.605   5.506
 1906TIP3    H1 5682   5.119   1.558   5.473
 1906TIP3    H2 5683   5.171   1.698   5.500
 1907TIP3   OH2 5684   1.861   2.860   0.265
 1907TIP3    H1 5685   1.771   2.893   0.256
 1907TIP3    H2 5686   1.886   2.834   0.177
 1908TIP3   OH2 5687   7.133   2.083   5.781
 1908TIP3    H1 5688   7.168   2.014   5.838
 1908TIP3    H2 5689   7.201   2.150   5.780
 1909TIP3   OH2 5690   2.815   0.612  -0.006
 1909TIP3    H1 5691   2.791   0.656  -0.088
 1909TIP3    H2 5692   2.807   0.679   0.061
 1910TIP3   OH2 5693   3.397   1.122   2.708
 1910TIP3    H1 5694   3.388   1.133   2.803
 1910TIP3    H2 5695   3.491   1.132   2.692
 1911TIP3   OH2 5696   6.295   6.597   5.142
 1911TIP3    H1 5697   6.373   6.604   5.198
 1911TIP3    H2 5698   6.330   6.586   5.054
 1912TIP3   OH2 5699   1.055   0.323   4.498
 1912TIP3    H1 5700   1.091   0.332   4.586
 1912TIP3    H2 5701   1.119   0.366   4.441
 1913TIP3   OH2 5702   2.492   6.684   3.902
 1913TIP3    H1 5703   2.566   6.740   3.926
 1913TIP3    H2 5704   2.419   6.716   3.955
 1914TIP3   OH2 5705   5.314   3.375   4.835
 1914TIP3    H1 5706   5.234   3.329   4.811
 1914TIP3    H2 5707   5.344   3.332   4.915
 1915TIP3   OH2 5708   4.452   3.620   3.431
 1915TIP3    H1 5709   4.371   3.644   3.476
 1915TIP3    H2 5710   4.513   3.691   3.449
 1916TIP3   OH2 5711   5.494   3.719   2.036
 1916TIP3    H1 5712   5.561   3.687   2.095
 1916TIP3    H2 5713   5.516   3.680   1.951
 1917TIP3   OH2 5714   2.256   5.819   0.583
 1917TIP3    H1 5715   2.296   5.893   0.536
 1917TIP3    H2 5716   2.331   5.766   0.612
 1918TIP3   OH2 5717   5.608   4.177   4.796
 1918TIP3    H1 5718   5.629   4.113   4.865
 1918TIP3    H2 5719   5.562   4.126   4.729
 1919TIP3   OH2 5720   1.633   4.346   0.493
 1919TIP3    H1 5721   1.624   4.355   0.398
 1919TIP3    H2 5722   1.558   4.394   0.529
 1920TIP3   OH2 5723   2.565   6.572   1.721
 1920TIP3    H1 5724   2.526   6.498   1.675
 1920TIP3    H2 5725   2.631   6.606   1.660
 1921TIP3   OH2 5726   4.653   5.325   1.973
 1921TIP3    H1 5727   4.719   5.375   1.926
 1921TIP3    H2 5728   4.598   5.392   2.014
 1922TIP3   OH2 5729   1.005   3.926   0.631
 1922TIP3    H1 5730   0.994   3.930   0.726
 1922TIP3    H2 5731   0.915   3.916   0.597
 1923TIP3   OH2 5732   6.681   4.563   4.926
 1923TIP3    H1 5733   6.663   4.485   4.978
 1923TIP3    H2 5734   6.632   4.550   4.845
 1924TIP3   OH2 5735   3.583   1.073   0.574
 1924TIP3    H1 5736   3.523   1.142   0.546
 1924TIP3    H2 5737   3.532   1.022   0.638
 1925TIP3   OH2 5738   0.361   6.625   3.611
 1925TIP3    H1 5739   0.331   6.670   3.532
 1925TIP3    H2 5740   0.457   6.632   3.607
 1926TIP3   OH2 5741   4.855   3.892   1.328
 1926TIP3    H1 5742   4.865   3.890   1.232
 1926TIP3    H2 5743   4.772   3.936   1.343
 1927TIP3   OH2 5744   3.395   5.792   3.128
 1927TIP3    H1 5745   3.402   5.887   3.132
 1927TIP3    H2 5746   3.313   5.773   3.174
 1928TIP3   OH2 5747   4.541   1.585   4.403
 1928TIP3    H1 5748   4.502   1.502   4.376
 1928TIP3    H2 5749   4.491   1.652   4.356
 1929TIP3   OH2 5750   2.291   0.462   1.303
 1929TIP3    H1 5751   2.303   0.407   1.381
 1929TIP3    H2 5752   2.256   0.402   1.237
 1930TIP3   OH2 5753   0.763   3.444   2.521
 1930TIP3    H1 5754   0.741   3.497   2.597
 1930TIP3    H2 5755   0.764   3.505   2.447
 1931TIP3   OH2 5756   5.023   2.124   2.763
 1931TIP3    H1 5757   5.083   2.194   2.739
 1931TIP3    H2 5758   5.077   2.044   2.760
 1932TIP3   OH2 5759   3.566   4.955   0.713
 1932TIP3    H1 5760   3.523   4.963   0.798
 1932TIP3    H2 5761   3.643   4.901   0.729
 1933TIP3   OH2 5762   3.114   4.094   0.963
 1933TIP3    H1 5763   3.020   4.074   0.970
 1933TIP3    H2 5764   3.134   4.143   1.042
 1934TIP3   OH2 5765   4.476   6.423   4.328
 1934TIP3    H1 5766   4.487   6.458   4.240
 1934TIP3    H2 5767   4.505   6.493   4.386
 1935TIP3   OH2 5768   0.066   3.758   1.922
 1935TIP3    H1 5769  -0.011   3.727   1.969
 1935TIP3    H2 5770   0.036   3.770   1.832
 1936TIP3   OH2 5771   1.365   5.577   0.708
 1936TIP3    H1 5772   1.391   5.559   0.798
 1936TIP3    H2 5773   1.296   5.644   0.716
 1937TIP3   OH2 5774   3.537   4.323   1.226
 1937TIP3    H1 5775   3.583   4.365   1.153
 1937TIP3    H2 5776   3.507   4.240   1.190
 1938TIP3   OH2 5777   4.647   0.180   3.223
 1938TIP3    H1 5778   4.604   0.146   3.144
 1938TIP3    H2 5779   4.623   0.119   3.292
 1939TIP3   OH2 5780   0.409   0.284   1.016
 1939TIP3    H1 5781   0.463   0.328   0.950
 1939TIP3    H2 5782   0.470   0.233   1.068
 1940TIP3   OH2 5783   4.819   4.030   4.498
 1940TIP3    H1 5784   4.871   4.105   4.468
 1940TIP3    H2 5785   4.800   4.049   4.590
 1941TIP3   OH2 5786   6.732   3.849   0.773
 1941TIP3    H1 5787   6.753   3.774   0.828
 1941TIP3    H2 5788   6.653   3.886   0.811
 1942TIP3   OH2 5789   5.847   1.883   2.898
 1942TIP3    H1 5790   5.831   1.965   2.852
 1942TIP3    H2 5791   5.813   1.815   2.840
 1943TIP3   OH2 5792   6.779   4.122   1.066
 1943TIP3    H1 5793   6.713   4.143   1.131
 1943TIP3    H2 5794   6.736   4.138   0.982
 1944TIP3   OH2 5795   0.715   4.776   0.331
 1944TIP3    H1 5796   0.763   4.813   0.256
 1944TIP3    H2 5797   0.779   4.723   0.377
 1945TIP3   OH2 5798   3.146   0.080   3.683
 1945TIP3    H1 5799   3.208   0.050   3.750
 1945TIP3    H2 5800   3.101   0.154   3.724
 1946TIP3   OH2 5801   4.806   0.050   1.837
 1946TIP3    H1 5802   4.844   0.125   1.883
 1946TIP3    H2 5803   4.810  -0.022   1.899
 1947TIP3   OH2 5804   0.373   1.106   3.544
 1947TIP3    H1 5805   0.330   1.154   3.474
 1947TIP3    H2 5806   0.306   1.046   3.577
 1948TIP3   OH2 5807   1.629   1.996   3.838
 1948TIP3    H1 5808   1.680   2.064   3.795
 1948TIP3    H2 5809   1.608   1.933   3.769
 1949TIP3   OH2 5810   2.959   0.556   3.673
 1949TIP3    H1 5811   2.941   0.644   3.705
 1949TIP3    H2 5812   3.015   0.569   3.597
 1950TIP3   OH2 5813   3.954   4.142   2.955
 1950TIP3    H1 5814   3.905   4.134   3.037
 1950TIP3    H2 5815   3.976   4.052   2.931
 1951TIP3   OH2 5816   5.860   2.383   2.622
 1951TIP3    H1 5817   5.841   2.439   2.697
 1951TIP3    H2 5818   5.775   2.373   2.578
 1952TIP3   OH2 5819   6.553   3.467   3.655
 1952TIP3    H1 5820   6.519   3.520   3.583
 1952TIP3    H2 5821   6.643   3.446   3.630
 1953TIP3   OH2 5822   7.055   0.953   4.394
 1953TIP3    H1 5823   7.038   1.011   4.320
 1953TIP3    H2 5824   7.145   0.923   4.381
 1954TIP3   OH2 5825   0.368   0.382   5.420
 1954TIP3    H1 5826   0.336   0.396   5.509
 1954TIP3    H2 5827   0.460   0.356   5.432
 1955TIP3   OH2 5828   1.089   0.577   2.875
 1955TIP3    H1 5829   1.052   0.579   2.963
 1955TIP3    H2 5830   1.032   0.518   2.825
 1956TIP3   OH2 5831   6.550   4.696   2.238
 1956TIP3    H1 5832   6.481   4.718   2.301
 1956TIP3    H2 5833   6.625   4.670   2.291
 1957TIP3   OH2 5834   5.675   5.562   1.406
 1957TIP3    H1 5835   5.680   5.489   1.467
 1957TIP3    H2 5836   5.756   5.611   1.421
 1958TIP3   OH2 5837   1.995   4.471   4.839
 1958TIP3    H1 5838   2.077   4.433   4.870
 1958TIP3    H2 5839   2.005   4.566   4.853
 1959TIP3   OH2 5840   2.793   0.132   4.634
 1959TIP3    H1 5841   2.839   0.188   4.697
 1959TIP3    H2 5842   2.797   0.181   4.552
 1960TIP3   OH2 5843   0.853   4.228   4.154
 1960TIP3    H1 5844   0.928   4.170   4.141
 1960TIP3    H2 5845   0.795   4.208   4.080
 1961TIP3   OH2 5846   5.501   6.762   3.979
 1961TIP3    H1 5847   5.417   6.720   3.961
 1961TIP3    H2 5848   5.513   6.752   4.073
 1962TIP3   OH2 5849   6.447   6.029   2.186
 1962TIP3    H1 5850   6.465   6.122   2.185
 1962TIP3    H2 5851   6.486   5.997   2.267
 1963TIP3   OH2 5852   2.446   0.896   2.493
 1963TIP3    H1 5853   2.415   0.805   2.502
 1963TIP3    H2 5854   2.484   0.917   2.578
 1964TIP3   OH2 5855   1.209   4.896   0.213
 1964TIP3    H1 5856   1.256   4.967   0.256
 1964TIP3    H2 5857   1.277   4.830   0.194
 1965TIP3   OH2 5858   6.734   3.202   1.480
 1965TIP3    H1 5859   6.770   3.181   1.394
 1965TIP3    H2 5860   6.777   3.285   1.504
 1966TIP3   OH2 5861   2.652   5.551   5.673
 1966TIP3    H1 5862   2.696   5.466   5.666
 1966TIP3    H2 5863   2.723   5.612   5.695
 1967TIP3   OH2 5864   0.932   1.731   0.282
 1967TIP3    H1 5865   0.851   1.767   0.245
 1967TIP3    H2 5866   0.909   1.641   0.306
 1968TIP3   OH2 5867   3.935   2.600   2.434
 1968TIP3    H1 5868   3.901   2.521   2.475
 1968TIP3    H2 5869   3.884   2.608   2.353
 1969TIP3   OH2 5870   7.037   0.043   4.255
 1969TIP3    H1 5871   6.970   0.034   4.187
 1969TIP3    H2 5872   7.116   0.006   4.217
 1970TIP3   OH2 5873   1.515   2.538   0.267
 1970TIP3    H1 5874   1.606   2.509   0.264
 1970TIP3    H2 5875   1.492   2.554   0.176
 1971TIP3   OH2 5876   4.420   6.385   1.332
 1971TIP3    H1 5877   4.497   6.335   1.359
 1971TIP3    H2 5878   4.360   6.377   1.406
 1972TIP3   OH2 5879   0.963   0.919   0.304
 1972TIP3    H1 5880   0.927   0.831   0.305
 1972TIP3    H2 5881   0.902   0.971   0.356
 1973TIP3   OH2 5882   3.988   1.602   2.681
 1973TIP3    H1 5883   3.977   1.660   2.757
 1973TIP3    H2 5884   4.079   1.614   2.655
 1974TIP3   OH2 5885   2.405   1.355   4.435
 1974TIP3    H1 5886   2.439   1.405   4.361
 1974TIP3    H2 5887   2.475   1.295   4.458
 1975TIP3   OH2 5888   2.568   4.078   3.858
 1975TIP3    H1 5889   2.473   4.089   3.864
 1975TIP3    H2 5890   2.590   4.015   3.927
 1976TIP3   OH2 5891   0.341   3.366   5.691
 1976TIP3    H1 5892   0.308   3.455   5.702
 1976TIP3    H2 5893   0.407   3.372   5.623
 1977TIP3   OH2 5894   5.358   4.961   4.251
 1977TIP3    H1 5895   5.449   4.974   4.280
 1977TIP3    H2 5896   5.356   4.994   4.162
 1978TIP3   OH2 5897   1.132   5.595   1.302
 1978TIP3    H1 5898   1.175   5.679   1.314
 1978TIP3    H2 5899   1.198   5.541   1.258
 1979TIP3   OH2 5900   3.679   3.622   4.866
 1979TIP3    H1 5901   3.617   3.580   4.925
 1979TIP3    H2 5902   3.756   3.640   4.920
 1980TIP3   OH2 5903   1.099   2.855   1.207
 1980TIP3    H1 5904   1.027   2.877   1.265
 1980TIP3    H2 5905   1.066   2.782   1.154
 1981TIP3   OH2 5906   6.939   6.499   5.265
 1981TIP3    H1 5907   6.922   6.575   5.321
 1981TIP3    H2 5908   6.963   6.430   5.327
 1982TIP3   OH2 5909   0.962   6.056   2.859
 1982TIP3    H1 5910   1.013   5.981   2.828
 1982TIP3    H2 5911   1.001   6.131   2.814
 1983TIP3   OH2 5912   7.092   2.764   0.489
 1983TIP3    H1 5913   7.171   2.729   0.448
 1983TIP3    H2 5914   7.088   2.855   0.459
 1984TIP3   OH2 5915   3.758   4.078   2.065
 1984TIP3    H1 5916   3.754   4.085   1.970
 1984TIP3    H2 5917   3.774   4.167   2.096
 1985TIP3   OH2 5918   2.358   2.738   0.591
 1985TIP3    H1 5919   2.306   2.694   0.524
 1985TIP3    H2 5920   2.322   2.827   0.596
 1986TIP3   OH2 5921   0.617   4.476   1.128
 1986TIP3    H1 5922   0.624   4.522   1.044
 1986TIP3    H2 5923   0.685   4.409   1.125
 1987TIP3   OH2 5924   0.999   3.917   4.417
 1987TIP3    H1 5925   1.013   3.986   4.352
 1987TIP3    H2 5926   1.060   3.848   4.393
 1988TIP3   OH2 5927   0.863   1.001   4.456
 1988TIP3    H1 5928   0.907   1.028   4.537
 1988TIP3    H2 5929   0.819   1.080   4.425
 1989TIP3   OH2 5930   4.263   1.487   4.817
 1989TIP3    H1 5931   4.217   1.442   4.888
 1989TIP3    H2 5932   4.215   1.463   4.738
 1990TIP3   OH2 5933   6.311   3.742   5.268
 1990TIP3    H1 5934   6.341   3.652   5.280
 1990TIP3    H2 5935   6.270   3.764   5.352
 1991TIP3   OH2 5936   3.892   4.152   1.305
 1991TIP3    H1 5937   3.931   4.173   1.390
 1991TIP3    H2 5938   3.815   4.099   1.327
 1992TIP3   OH2 5939   2.961   1.677   5.779
 1992TIP3    H1 5940   3.012   1.598   5.768
 1992TIP3    H2 5941   3.020   1.739   5.823
 1993TIP3   OH2 5942   5.373   4.589   0.807
 1993TIP3    H1 5943   5.422   4.656   0.856
 1993TIP3    H2 5944   5.352   4.631   0.724
 1994TIP3   OH2 5945   4.981   4.788   3.305
 1994TIP3    H1 5946   4.978   4.737   3.386
 1994TIP3    H2 5947   5.013   4.726   3.240
 1995TIP3   OH2 5948   3.286   4.422   2.925
 1995TIP3    H1 5949   3.363   4.373   2.896
 1995TIP3    H2 5950   3.303   4.441   3.017
 1996TIP3   OH2 5951   4.942   3.188   1.795
 1996TIP3    H1 5952   4.993   3.125   1.745
 1996TIP3    H2 5953   4.902   3.244   1.728
 1997TIP3   OH2 5954   2.842   0.731   2.097
 1997TIP3    H1 5955   2.803   0.731   2.010
 1997TIP3    H2 5956   2.790   0.794   2.147
 1998TIP3   OH2 5957   0.822   4.852   4.410
 1998TIP3    H1 5958   0.797   4.936   4.448
 1998TIP3    H2 5959   0.749   4.794   4.431
 1999TIP3   OH2 5960   4.389   1.234   0.325
 1999TIP3    H1 5961   4.477   1.233   0.290
 1999TIP3    H2 5962   4.383   1.316   0.374
 2000TIP3   OH2 5963   3.395   3.238   3.517
 2000TIP3    H1 5964   3.360   3.264   3.432
 2000TIP3    H2 5965   3.321   3.199   3.563
 2001TIP3   OH2 5966   2.130   0.288   3.573
 2001TIP3    H1 5967   2.157   0.203   3.539
 2001TIP3    H2 5968   2.182   0.352   3.524
 2002TIP3   OH2 5969   2.281   3.912   1.070
 2002TIP3    H1 5970   2.334   3.989   1.090
 2002TIP3    H2 5971   2.208   3.917   1.131
 2003TIP3   OH2 5972   7.204   6.725   0.336
 2003TIP3    H1 5973   7.112   6.697   0.335
 2003TIP3    H2 5974   7.251   6.654   0.378
 2004TIP3   OH2 5975   4.477   2.046   4.027
 2004TIP3    H1 5976   4.476   2.036   3.932
 2004TIP3    H2 5977   4.522   1.968   4.059
 2005TIP3   OH2 5978   0.181   1.819   1.940
 2005TIP3    H1 5979   0.203   1.870   2.018
 2005TIP3    H2 5980   0.182   1.883   1.868
 2006TIP3   OH2 5981   2.008   0.105   4.109
 2006TIP3    H1 5982   1.994   0.014   4.134
 2006TIP3    H2 5983   2.080   0.102   4.046
 2007TIP3   OH2 5984   0.127   5.466   4.884
 2007TIP3    H1 5985   0.137   5.404   4.957
 2007TIP3    H2 5986   0.216   5.497   4.867
 2008TIP3   OH2 5987   4.991   3.799   1.546
 2008TIP3    H1 5988   4.953   3.810   1.459
 2008TIP3    H2 5989   4.916   3.786   1.604
 2009TIP3   OH2 5990   6.868   6.219   3.670
 2009TIP3    H1 5991   6.889   6.239   3.578
 2009TIP3    H2 5992   6.805   6.148   3.665
 2010TIP3   OH2 5993   6.803   0.500   0.413
 2010TIP3    H1 5994   6.715   0.513   0.378
 2010TIP3    H2 5995   6.852   0.576   0.382
 2011TIP3   OH2 5996   1.315   5.391   0.938
 2011TIP3    H1 5997   1.379   5.319   0.936
 2011TIP3    H2 5998   1.231   5.349   0.918
 2012TIP3   OH2 5999   4.162   3.704   4.638
 2012TIP3    H1 6000   4.183   3.793   4.666
 2012TIP3    H2 6001   4.067   3.704   4.625
 2013TIP3   OH2 6002   2.342   5.060   4.118
 2013TIP3    H1 6003   2.399   5.056   4.042
 2013TIP3    H2 6004   2.286   4.983   4.110
 2014TIP3   OH2 6005   2.671   0.030   5.376
 2014TIP3    H1 6006   2.756   0.012   5.416
 2014TIP3    H2 6007   2.667  -0.028   5.299
 2015TIP3   OH2 6008   2.181   4.846   5.381
 2015TIP3    H1 6009   2.153   4.772   5.327
 2015TIP3    H2 6010   2.157   4.822   5.470
 2016TIP3   OH2 6011   5.652   1.885   1.703
 2016TIP3    H1 6012   5.685   1.972   1.679
 2016TIP3    H2 6013   5.557   1.895   1.701
 2017TIP3   OH2 6014   2.327   5.311   5.492
 2017TIP3    H1 6015   2.316   5.267   5.408
 2017TIP3    H2 6016   2.241   5.349   5.510
 2018TIP3   OH2 6017   6.645   0.468   3.345
 2018TIP3    H1 6018   6.698   0.451   3.423
 2018TIP3    H2 6019   6.578   0.530   3.376
 2019TIP3   OH2 6020   3.292   3.842   3.992
 2019TIP3    H1 6021   3.262   3.752   3.997
 2019TIP3    H2 6022   3.215   3.895   4.014
 2020TIP3   OH2 6023   6.867   0.880   2.538
 2020TIP3    H1 6024   6.818   0.959   2.560
 2020TIP3    H2 6025   6.930   0.870   2.609
 2021TIP3   OH2 6026   0.175   3.335   4.128
 2021TIP3    H1 6027   0.094   3.359   4.172
 2021TIP3    H2 6028   0.155   3.340   4.035
 2022TIP3   OH2 6029   3.743   2.595   1.929
 2022TIP3    H1 6030   3.760   2.501   1.924
 2022TIP3    H2 6031   3.814   2.635   1.879
 2023TIP3   OH2 6032   3.925   1.741   1.564
 2023TIP3    H1 6033   4.010   1.736   1.519
 2023TIP3    H2 6034   3.946   1.727   1.656
 2024TIP3   OH2 6035   1.385   2.483   2.770
 2024TIP3    H1 6036   1.425   2.526   2.846
 2024TIP3    H2 6037   1.439   2.510   2.696
 2025TIP3   OH2 6038   0.639   2.183   0.298
 2025TIP3    H1 6039   0.710   2.158   0.239
 2025TIP3    H2 6040   0.650   2.124   0.373
 2026TIP3   OH2 6041   2.141   6.565   2.797
 2026TIP3    H1 6042   2.148   6.545   2.890
 2026TIP3    H2 6043   2.067   6.513   2.767
 2027TIP3   OH2 6044   4.533   4.428   0.084
 2027TIP3    H1 6045   4.553   4.342   0.122
 2027TIP3    H2 6046   4.616   4.458   0.047
 2028TIP3   OH2 6047   4.323   0.806   4.524
 2028TIP3    H1 6048   4.338   0.858   4.603
 2028TIP3    H2 6049   4.396   0.744   4.522
 2029TIP3   OH2 6050   3.415   0.448   0.936
 2029TIP3    H1 6051   3.346   0.427   0.873
 2029TIP3    H2 6052   3.371   0.450   1.021
 2030TIP3   OH2 6053   4.634   0.777   0.942
 2030TIP3    H1 6054   4.631   0.864   0.982
 2030TIP3    H2 6055   4.614   0.717   1.014
 2031TIP3   OH2 6056   5.056   6.205   3.784
 2031TIP3    H1 6057   5.150   6.188   3.771
 2031TIP3    H2 6058   5.051   6.244   3.871
 2032TIP3   OH2 6059   4.051   6.384   0.681
 2032TIP3    H1 6060   4.039   6.440   0.758
 2032TIP3    H2 6061   4.061   6.296   0.717
 2033TIP3   OH2 6062   4.905   1.259   5.835
 2033TIP3    H1 6063   4.913   1.245   5.929
 2033TIP3    H2 6064   4.823   1.216   5.810
 2034TIP3   OH2 6065   3.886   6.467   1.269
 2034TIP3    H1 6066   3.846   6.503   1.348
 2034TIP3    H2 6067   3.901   6.375   1.290
 2035TIP3   OH2 6068   5.570   0.970   4.387
 2035TIP3    H1 6069   5.524   0.886   4.379
 2035TIP3    H2 6070   5.657   0.953   4.351
 2036TIP3   OH2 6071   4.181   4.685   0.696
 2036TIP3    H1 6072   4.197   4.720   0.608
 2036TIP3    H2 6073   4.182   4.762   0.752
 2037TIP3   OH2 6074   2.774   2.635   1.952
 2037TIP3    H1 6075   2.777   2.591   1.867
 2037TIP3    H2 6076   2.865   2.659   1.970
 2038TIP3   OH2 6077   5.327   6.684   4.434
 2038TIP3    H1 6078   5.260   6.752   4.433
 2038TIP3    H2 6079   5.278   6.602   4.432
 2039TIP3   OH2 6080   0.060   6.573   3.345
 2039TIP3    H1 6081   0.080   6.661   3.377
 2039TIP3    H2 6082   0.138   6.522   3.363
 2040TIP3   OH2 6083   6.413   0.626   3.381
 2040TIP3    H1 6084   6.407   0.669   3.466
 2040TIP3    H2 6085   6.435   0.696   3.320
 2041TIP3   OH2 6086   4.648   6.681   5.188
 2041TIP3    H1 6087   4.699   6.664   5.267
 2041TIP3    H2 6088   4.704   6.738   5.135
 2042TIP3   OH2 6089   5.403   6.672   0.777
 2042TIP3    H1 6090   5.315   6.676   0.813
 2042TIP3    H2 6091   5.460   6.665   0.853
 2043TIP3   OH2 6092   0.759   3.906   2.454
 2043TIP3    H1 6093   0.674   3.892   2.494
 2043TIP3    H2 6094   0.820   3.855   2.508
 2044TIP3   OH2 6095   6.873   6.677   5.467
 2044TIP3    H1 6096   6.857   6.592   5.509
 2044TIP3    H2 6097   6.897   6.735   5.539
 2045TIP3   OH2 6098   6.215   6.171   3.301
 2045TIP3    H1 6099   6.274   6.196   3.372
 2045TIP3    H2 6100   6.184   6.084   3.324
 2046TIP3   OH2 6101   2.102   2.381   5.113
 2046TIP3    H1 6102   2.184   2.409   5.153
 2046TIP3    H2 6103   2.033   2.417   5.169
 2047TIP3   OH2 6104   6.464   3.898   4.974
 2047TIP3    H1 6105   6.418   3.829   4.926
 2047TIP3    H2 6106   6.473   3.970   4.911
 2048TIP3   OH2 6107   2.786   3.897   0.267
 2048TIP3    H1 6108   2.734   3.818   0.283
 2048TIP3    H2 6109   2.877   3.869   0.279
 2049TIP3   OH2 6110   5.132   1.428   4.816
 2049TIP3    H1 6111   5.131   1.341   4.776
 2049TIP3    H2 6112   5.045   1.464   4.798
 2050TIP3   OH2 6113   7.102   3.021   0.367
 2050TIP3    H1 6114   7.102   3.039   0.273
 2050TIP3    H2 6115   7.087   3.105   0.408
 2051TIP3   OH2 6116   1.981   0.386   1.565
 2051TIP3    H1 6117   1.889   0.363   1.566
 2051TIP3    H2 6118   1.988   0.461   1.624
 2052TIP3   OH2 6119   4.795   4.242   4.835
 2052TIP3    H1 6120   4.741   4.250   4.757
 2052TIP3    H2 6121   4.734   4.214   4.904
 2053TIP3   OH2 6122   6.520   3.157   5.137
 2053TIP3    H1 6123   6.538   3.251   5.133
 2053TIP3    H2 6124   6.433   3.150   5.175
 2054TIP3   OH2 6125   3.339   4.451   0.431
 2054TIP3    H1 6126   3.249   4.450   0.464
 2054TIP3    H2 6127   3.383   4.382   0.481
 2055TIP3   OH2 6128   1.271   1.419   2.168
 2055TIP3    H1 6129   1.306   1.350   2.111
 2055TIP3    H2 6130   1.243   1.487   2.107
 2056TIP3   OH2 6131   2.619   3.691   4.990
 2056TIP3    H1 6132   2.586   3.765   5.040
 2056TIP3    H2 6133   2.620   3.721   4.899
 2057TIP3   OH2 6134   2.632   6.535   2.916
 2057TIP3    H1 6135   2.618   6.629   2.920
 2057TIP3    H2 6136   2.727   6.525   2.914
 2058TIP3   OH2 6137   3.376   3.329   5.604
 2058TIP3    H1 6138   3.443   3.260   5.603
 2058TIP3    H2 6139   3.294   3.283   5.619
 2059TIP3   OH2 6140   3.867   1.174   2.828
 2059TIP3    H1 6141   3.962   1.184   2.826
 2059TIP3    H2 6142   3.854   1.081   2.844
 2060TIP3   OH2 6143   4.503   2.640   4.459
 2060TIP3    H1 6144   4.536   2.561   4.416
 2060TIP3    H2 6145   4.417   2.615   4.491
 2061TIP3   OH2 6146   6.118   4.573   3.264
 2061TIP3    H1 6147   6.049   4.618   3.313
 2061TIP3    H2 6148   6.088   4.482   3.258
 2062TIP3   OH2 6149   1.427   5.006   1.087
 2062TIP3    H1 6150   1.411   5.049   1.171
 2062TIP3    H2 6151   1.477   4.928   1.109
 2063TIP3   OH2 6152   1.436   4.719   2.947
 2063TIP3    H1 6153   1.418   4.746   2.857
 2063TIP3    H2 6154   1.413   4.626   2.949
 2064TIP3   OH2 6155   1.535   0.110   5.260
 2064TIP3    H1 6156   1.453   0.138   5.219
 2064TIP3    H2 6157   1.594   0.093   5.187
 2065TIP3   OH2 6158   5.300   5.263   0.617
 2065TIP3    H1 6159   5.325   5.254   0.525
 2065TIP3    H2 6160   5.270   5.354   0.624
 2066TIP3   OH2 6161   0.006   5.772   4.674
 2066TIP3    H1 6162   0.067   5.726   4.617
 2066TIP3    H2 6163  -0.038   5.704   4.724
 2067TIP3   OH2 6164   4.252   0.541   0.636
 2067TIP3    H1 6165   4.319   0.588   0.686
 2067TIP3    H2 6166   4.269   0.566   0.545
 2068TIP3   OH2 6167   3.721   0.241   1.861
 2068TIP3    H1 6168   3.772   0.272   1.936
 2068TIP3    H2 6169   3.651   0.306   1.852
 2069TIP3   OH2 6170   0.999   2.363   0.704
 2069TIP3    H1 6171   1.022   2.303   0.775
 2069TIP3    H2 6172   1.052   2.440   0.718
 2070TIP3   OH2 6173   0.694   0.983   1.460
 2070TIP3    H1 6174   0.763   1.038   1.496
 2070TIP3    H2 6175   0.624   0.986   1.524
 2071TIP3   OH2 6176   0.780   2.596   3.779
 2071TIP3    H1 6177   0.777   2.526   3.845
 2071TIP3    H2 6178   0.855   2.574   3.724
 2072TIP3   OH2 6179   3.084   0.182   2.349
 2072TIP3    H1 6180   3.074   0.200   2.443
 2072TIP3    H2 6181   3.001   0.207   2.310
 2073TIP3   OH2 6182   2.959   6.473   4.550
 2073TIP3    H1 6183   2.987   6.533   4.619
 2073TIP3    H2 6184   3.039   6.454   4.500
 2074TIP3   OH2 6185   4.578   1.480   4.654
 2074TIP3    H1 6186   4.556   1.485   4.561
 2074TIP3    H2 6187   4.506   1.524   4.698
 2075TIP3   OH2 6188   7.000   5.107   0.869
 2075TIP3    H1 6189   6.932   5.129   0.805
 2075TIP3    H2 6190   6.999   5.011   0.873
 2076TIP3   OH2 6191   5.111   4.182   3.314
 2076TIP3    H1 6192   5.138   4.144   3.397
 2076TIP3    H2 6193   5.113   4.277   3.329
 2077TIP3   OH2 6194   2.065   5.117   5.373
 2077TIP3    H1 6195   2.081   5.026   5.349
 2077TIP3    H2 6196   1.978   5.117   5.413
 2078TIP3   OH2 6197   0.614   1.755   0.731
 2078TIP3    H1 6198   0.530   1.792   0.704
 2078TIP3    H2 6199   0.593   1.667   0.761
 2079TIP3   OH2 6200   6.964   2.375   0.843
 2079TIP3    H1 6201   6.976   2.307   0.909
 2079TIP3    H2 6202   6.882   2.418   0.867
 2080TIP3   OH2 6203   2.931   0.001   3.043
 2080TIP3    H1 6204   2.881   0.071   3.002
 2080TIP3    H2 6205   2.878  -0.027   3.117
 2081TIP3   OH2 6206   3.498   0.553   2.250
 2081TIP3    H1 6207   3.509   0.471   2.202
 2081TIP3    H2 6208   3.480   0.526   2.340
 2082TIP3   OH2 6209   3.962   1.806   3.209
 2082TIP3    H1 6210   3.942   1.735   3.269
 2082TIP3    H2 6211   3.887   1.865   3.216
 2083TIP3   OH2 6212   1.279   6.181   2.543
 2083TIP3    H1 6213   1.298   6.091   2.571
 2083TIP3    H2 6214   1.345   6.199   2.476
 2084TIP3   OH2 6215   0.163   2.782   0.342
 2084TIP3    H1 6216   0.185   2.868   0.307
 2084TIP3    H2 6217   0.186   2.721   0.272
 2085TIP3   OH2 6218   1.972   0.259   1.942
 2085TIP3    H1 6219   1.941   0.271   1.852
 2085TIP3    H2 6220   1.895   0.279   1.996
 2086TIP3   OH2 6221   5.094   3.796   1.872
 2086TIP3    H1 6222   5.129   3.770   1.957
 2086TIP3    H2 6223   5.010   3.751   1.865
 2087TIP3   OH2 6224  -0.023   2.663   1.824
 2087TIP3    H1 6225   0.049   2.621   1.873
 2087TIP3    H2 6226  -0.082   2.591   1.803
 2088TIP3   OH2 6227   4.051   5.103   0.212
 2088TIP3    H1 6228   4.061   5.196   0.231
 2088TIP3    H2 6229   3.957   5.090   0.200
 2089TIP3   OH2 6230   4.283   5.825   0.876
 2089TIP3    H1 6231   4.307   5.831   0.784
 2089TIP3    H2 6232   4.321   5.743   0.906
 2090TIP3   OH2 6233   4.293   5.432   4.422
 2090TIP3    H1 6234   4.384   5.404   4.418
 2090TIP3    H2 6235   4.274   5.465   4.334
 2091TIP3   OH2 6236   4.463   4.489   5.247
 2091TIP3    H1 6237   4.491   4.561   5.304
 2091TIP3    H2 6238   4.544   4.458   5.206
 2092TIP3   OH2 6239   5.263   0.209   3.375
 2092TIP3    H1 6240   5.257   0.248   3.462
 2092TIP3    H2 6241   5.305   0.124   3.389
 2093TIP3   OH2 6242   4.859   2.109   2.333
 2093TIP3    H1 6243   4.831   2.036   2.388
 2093TIP3    H2 6244   4.932   2.073   2.282
 2094TIP3   OH2 6245   2.102   2.869   0.425
 2094TIP3    H1 6246   2.140   2.780   0.421
 2094TIP3    H2 6247   2.022   2.863   0.373
 2095TIP3   OH2 6248   6.569   5.091   5.795
 2095TIP3    H1 6249   6.601   5.039   5.870
 2095TIP3    H2 6250   6.646   5.099   5.738
 2096TIP3   OH2 6251   0.226   6.657   5.633
 2096TIP3    H1 6252   0.170   6.699   5.698
 2096TIP3    H2 6253   0.180   6.672   5.550
 2097TIP3   OH2 6254   0.034   6.633   5.282
 2097TIP3    H1 6255   0.028   6.538   5.268
 2097TIP3    H2 6256   0.111   6.660   5.233
 2098TIP3   OH2 6257   0.870   0.820   5.251
 2098TIP3    H1 6258   0.935   0.754   5.277
 2098TIP3    H2 6259   0.802   0.814   5.318
 2099TIP3   OH2 6260   5.242   2.299   1.568
 2099TIP3    H1 6261   5.239   2.378   1.622
 2099TIP3    H2 6262   5.151   2.284   1.542
 2100TIP3   OH2 6263   0.600   2.761   2.407
 2100TIP3    H1 6264   0.635   2.675   2.385
 2100TIP3    H2 6265   0.640   2.782   2.492
 2101TIP3   OH2 6266   1.539   4.970   4.423
 2101TIP3    H1 6267   1.625   4.939   4.392
 2101TIP3    H2 6268   1.516   5.040   4.363
 2102TIP3   OH2 6269   2.575   1.268   2.281
 2102TIP3    H1 6270   2.587   1.260   2.376
 2102TIP3    H2 6271   2.634   1.202   2.244
 2103TIP3   OH2 6272   1.859   3.578   1.638
 2103TIP3    H1 6273   1.840   3.534   1.721
 2103TIP3    H2 6274   1.954   3.583   1.634
 2104TIP3   OH2 6275   3.082   0.297   5.798
 2104TIP3    H1 6276   3.075   0.370   5.860
 2104TIP3    H2 6277   3.026   0.229   5.835
 2105TIP3   OH2 6278   1.950   2.356   3.933
 2105TIP3    H1 6279   1.876   2.385   3.986
 2105TIP3    H2 6280   1.979   2.435   3.887
 2106TIP3   OH2 6281   6.749   0.780   3.550
 2106TIP3    H1 6282   6.675   0.817   3.597
 2106TIP3    H2 6283   6.712   0.750   3.467
 2107TIP3   OH2 6284   2.593   1.678   0.577
 2107TIP3    H1 6285   2.629   1.762   0.605
 2107TIP3    H2 6286   2.500   1.694   0.564
 2108TIP3   OH2 6287   4.034   2.962   2.867
 2108TIP3    H1 6288   4.078   2.982   2.784
 2108TIP3    H2 6289   4.000   3.046   2.896
 2109TIP3   OH2 6290   5.838   3.529   5.371
 2109TIP3    H1 6291   5.751   3.566   5.384
 2109TIP3    H2 6292   5.892   3.603   5.344
 2110TIP3   OH2 6293   4.444   0.712   0.752
 2110TIP3    H1 6294   4.450   0.792   0.700
 2110TIP3    H2 6295   4.468   0.739   0.841
 2111TIP3   OH2 6296   1.684   1.154   5.112
 2111TIP3    H1 6297   1.719   1.111   5.190
 2111TIP3    H2 6298   1.605   1.104   5.090
 2112TIP3   OH2 6299   4.986   5.564   1.237
 2112TIP3    H1 6300   4.985   5.538   1.329
 2112TIP3    H2 6301   5.077   5.590   1.221
 2113TIP3   OH2 6302   4.510   5.579   0.853
 2113TIP3    H1 6303   4.553   5.550   0.933
 2113TIP3    H2 6304   4.452   5.507   0.829
 2114TIP3   OH2 6305   4.888   5.912   4.733
 2114TIP3    H1 6306   4.812   5.908   4.674
 2114TIP3    H2 6307   4.851   5.939   4.817
 2115TIP3   OH2 6308   1.526   3.524   4.475
 2115TIP3    H1 6309   1.578   3.455   4.517
 2115TIP3    H2 6310   1.437   3.490   4.474
 2116TIP3   OH2 6311   5.525   5.932   5.576
 2116TIP3    H1 6312   5.510   5.931   5.671
 2116TIP3    H2 6313   5.619   5.917   5.567
 2117TIP3   OH2 6314   2.749   1.869   1.030
 2117TIP3    H1 6315   2.785   1.796   1.080
 2117TIP3    H2 6316   2.658   1.845   1.014
 2118TIP3   OH2 6317   3.889   2.366   3.013
 2118TIP3    H1 6318   3.921   2.326   3.093
 2118TIP3    H2 6319   3.794   2.361   3.019
 2119TIP3   OH2 6320   5.882   1.606   0.179
 2119TIP3    H1 6321   5.946   1.603   0.251
 2119TIP3    H2 6322   5.801   1.637   0.220
 2120TIP3   OH2 6323   2.850   3.913   5.347
 2120TIP3    H1 6324   2.851   3.970   5.270
 2120TIP3    H2 6325   2.864   3.971   5.421
 2121TIP3   OH2 6326   1.935   6.116   3.086
 2121TIP3    H1 6327   1.994   6.041   3.081
 2121TIP3    H2 6328   1.946   6.162   3.003
 2122TIP3   OH2 6329   4.053   1.295   4.127
 2122TIP3    H1 6330   3.974   1.305   4.074
 2122TIP3    H2 6331   4.042   1.358   4.199
 2123TIP3   OH2 6332   0.486   6.338   3.830
 2123TIP3    H1 6333   0.528   6.327   3.744
 2123TIP3    H2 6334   0.397   6.366   3.809
 2124TIP3   OH2 6335   6.098   1.527   5.060
 2124TIP3    H1 6336   6.038   1.459   5.030
 2124TIP3    H2 6337   6.134   1.494   5.142
 2125TIP3   OH2 6338   2.291   6.519   4.296
 2125TIP3    H1 6339   2.241   6.593   4.330
 2125TIP3    H2 6340   2.370   6.559   4.259
 2126TIP3   OH2 6341   1.066   6.440   0.677
 2126TIP3    H1 6342   1.089   6.377   0.609
 2126TIP3    H2 6343   1.127   6.512   0.665
 2127TIP3   OH2 6344   5.836   2.103   5.768
 2127TIP3    H1 6345   5.845   2.152   5.686
 2127TIP3    H2 6346   5.760   2.142   5.811
 2128TIP3   OH2 6347   6.345   0.857   2.601
 2128TIP3    H1 6348   6.254   0.870   2.574
 2128TIP3    H2 6349   6.364   0.766   2.579
 2129TIP3   OH2 6350   4.700   3.688   5.554
 2129TIP3    H1 6351   4.680   3.621   5.490
 2129TIP3    H2 6352   4.641   3.760   5.532
 2130TIP3   OH2 6353   3.543   5.887   1.871
 2130TIP3    H1 6354   3.634   5.861   1.855
 2130TIP3    H2 6355   3.498   5.869   1.788
 2131TIP3   OH2 6356   0.907   6.357   2.154
 2131TIP3    H1 6357   0.961   6.413   2.209
 2131TIP3    H2 6358   0.927   6.268   2.183
 2132TIP3   OH2 6359   2.760   5.261   0.271
 2132TIP3    H1 6360   2.732   5.203   0.201
 2132TIP3    H2 6361   2.682   5.270   0.327
 2133TIP3   OH2 6362   2.943   6.519   0.738
 2133TIP3    H1 6363   2.896   6.592   0.698
 2133TIP3    H2 6364   2.973   6.466   0.665
 2134TIP3   OH2 6365   3.016   0.588   1.194
 2134TIP3    H1 6366   3.023   0.522   1.125
 2134TIP3    H2 6367   3.045   0.669   1.152
 2135TIP3   OH2 6368   0.828   5.910   5.135
 2135TIP3    H1 6369   0.823   5.856   5.057
 2135TIP3    H2 6370   0.831   5.848   5.208
 2136TIP3   OH2 6371   1.099   2.627   3.944
 2136TIP3    H1 6372   1.109   2.639   3.849
 2136TIP3    H2 6373   1.135   2.707   3.982
 2137TIP3   OH2 6374   2.844   4.400   3.737
 2137TIP3    H1 6375   2.813   4.470   3.795
 2137TIP3    H2 6376   2.904   4.444   3.676
 2138TIP3   OH2 6377   4.314   3.569   2.739
 2138TIP3    H1 6378   4.350   3.518   2.667
 2138TIP3    H2 6379   4.368   3.545   2.814
 2139TIP3   OH2 6380   5.434   4.480   4.145
 2139TIP3    H1 6381   5.471   4.467   4.233
 2139TIP3    H2 6382   5.345   4.510   4.161
 2140TIP3   OH2 6383   1.751   4.810   0.991
 2140TIP3    H1 6384   1.784   4.846   1.073
 2140TIP3    H2 6385   1.788   4.867   0.923
 2141TIP3   OH2 6386   5.200   5.505   0.313
 2141TIP3    H1 6387   5.210   5.519   0.219
 2141TIP3    H2 6388   5.277   5.546   0.352
 2142TIP3   OH2 6389   5.627   0.405   2.819
 2142TIP3    H1 6390   5.555   0.458   2.853
 2142TIP3    H2 6391   5.706   0.449   2.850
 2143TIP3   OH2 6392   4.778   5.807   5.321
 2143TIP3    H1 6393   4.736   5.868   5.261
 2143TIP3    H2 6394   4.821   5.743   5.265
 2144TIP3   OH2 6395   6.791   3.495   2.187
 2144TIP3    H1 6396   6.876   3.526   2.155
 2144TIP3    H2 6397   6.803   3.488   2.282
 2145TIP3   OH2 6398   2.703   1.192   0.996
 2145TIP3    H1 6399   2.658   1.259   0.944
 2145TIP3    H2 6400   2.796   1.205   0.974
 2146TIP3   OH2 6401   5.752   2.685   4.036
 2146TIP3    H1 6402   5.690   2.612   4.027
 2146TIP3    H2 6403   5.835   2.643   4.062
 2147TIP3   OH2 6404   5.961   0.336   5.712
 2147TIP3    H1 6405   6.034   0.291   5.670
 2147TIP3    H2 6406   5.924   0.391   5.642
 2148TIP3   OH2 6407   5.572   5.018   1.983
 2148TIP3    H1 6408   5.663   5.008   1.958
 2148TIP3    H2 6409   5.534   4.931   1.974
 2149TIP3   OH2 6410   6.504   2.349  -0.049
 2149TIP3    H1 6411   6.564   2.313   0.017
 2149TIP3    H2 6412   6.469   2.428  -0.008
 2150TIP3   OH2 6413   6.395   5.098   1.905
 2150TIP3    H1 6414   6.425   5.021   1.857
 2150TIP3    H2 6415   6.301   5.102   1.889
 2151TIP3   OH2 6416   3.726   6.387   3.678
 2151TIP3    H1 6417   3.726   6.480   3.702
 2151TIP3    H2 6418   3.707   6.342   3.761
 2152TIP3   OH2 6419   6.022   0.463   1.342
 2152TIP3    H1 6420   6.018   0.371   1.368
 2152TIP3    H2 6421   6.115   0.479   1.326
 2153TIP3   OH2 6422   5.112   4.814   1.822
 2153TIP3    H1 6423   5.079   4.843   1.737
 2153TIP3    H2 6424   5.034   4.805   1.877
 2154TIP3   OH2 6425   4.239   2.803   4.721
 2154TIP3    H1 6426   4.243   2.726   4.664
 2154TIP3    H2 6427   4.331   2.826   4.738
 2155TIP3   OH2 6428   3.380   0.017   3.817
 2155TIP3    H1 6429   3.467   0.032   3.852
 2155TIP3    H2 6430   3.324   0.006   3.894
 2156TIP3   OH2 6431   0.433   5.718   2.240
 2156TIP3    H1 6432   0.380   5.792   2.210
 2156TIP3    H2 6433   0.414   5.648   2.178
 2157TIP3   OH2 6434   1.715   1.371   4.563
 2157TIP3    H1 6435   1.770   1.415   4.628
 2157TIP3    H2 6436   1.627   1.374   4.599
 2158TIP3   OH2 6437   1.547   5.438   2.200
 2158TIP3    H1 6438   1.486   5.369   2.227
 2158TIP3    H2 6439   1.493   5.517   2.196
 2159TIP3   OH2 6440   3.759   2.975   1.793
 2159TIP3    H1 6441   3.851   2.947   1.794
 2159TIP3    H2 6442   3.762   3.066   1.765
 2160TIP3   OH2 6443   2.188   5.076   1.062
 2160TIP3    H1 6444   2.246   5.110   1.130
 2160TIP3    H2 6445   2.205   5.130   0.985
 2161TIP3   OH2 6446   4.411   3.467   5.578
 2161TIP3    H1 6447   4.339   3.520   5.612
 2161TIP3    H2 6448   4.382   3.377   5.588
 2162TIP3   OH2 6449   4.807   1.246   0.478
 2162TIP3    H1 6450   4.726   1.215   0.519
 2162TIP3    H2 6451   4.845   1.168   0.438
 2163TIP3   OH2 6452   1.773   2.972   3.654
 2163TIP3    H1 6453   1.706   2.929   3.601
 2163TIP3    H2 6454   1.840   2.905   3.667
 2164TIP3   OH2 6455   6.614   1.544   1.350
 2164TIP3    H1 6456   6.539   1.527   1.294
 2164TIP3    H2 6457   6.611   1.475   1.417
 2165TIP3   OH2 6458   2.414   5.800   1.424
 2165TIP3    H1 6459   2.443   5.891   1.425
 2165TIP3    H2 6460   2.493   5.749   1.408
 2166TIP3   OH2 6461   7.224   0.050   1.750
 2166TIP3    H1 6462   7.155   0.000   1.705
 2166TIP3    H2 6463   7.196   0.052   1.841
 2167TIP3   OH2 6464   1.199   2.740   2.114
 2167TIP3    H1 6465   1.140   2.815   2.103
 2167TIP3    H2 6466   1.225   2.744   2.206
 2168TIP3   OH2 6467   0.002   4.083   2.323
 2168TIP3    H1 6468  -0.068   4.028   2.290
 2168TIP3    H2 6469   0.045   4.117   2.245
 2169TIP3   OH2 6470   5.980   0.057   1.909
 2169TIP3    H1 6471   5.998   0.151   1.912
 2169TIP3    H2 6472   5.991   0.027   1.999
 2170TIP3   OH2 6473   2.285   3.660   2.294
 2170TIP3    H1 6474   2.341   3.724   2.338
 2170TIP3    H2 6475   2.202   3.706   2.282
 2171TIP3   OH2 6476   3.832   4.024   4.660
 2171TIP3    H1 6477   3.770   3.956   4.686
 2171TIP3    H2 6478   3.847   4.008   4.567
 2172TIP3   OH2 6479   3.805   6.361   5.870
 2172TIP3    H1 6480   3.739   6.424   5.841
 2172TIP3    H2 6481   3.755   6.294   5.917
 2173TIP3   OH2 6482   6.499   6.705   0.912
 2173TIP3    H1 6483   6.509   6.620   0.957
 2173TIP3    H2 6484   6.469   6.765   0.980
 2174TIP3   OH2 6485   4.629   3.723   4.454
 2174TIP3    H1 6486   4.595   3.661   4.519
 2174TIP3    H2 6487   4.675   3.789   4.506
 2175TIP3   OH2 6488   6.880   5.687   1.344
 2175TIP3    H1 6489   6.861   5.603   1.386
 2175TIP3    H2 6490   6.827   5.688   1.265
 2176TIP3   OH2 6491   2.214   3.191   5.152
 2176TIP3    H1 6492   2.188   3.124   5.090
 2176TIP3    H2 6493   2.291   3.231   5.114
 2177TIP3   OH2 6494   3.344   5.432   3.718
 2177TIP3    H1 6495   3.271   5.377   3.690
 2177TIP3    H2 6496   3.422   5.384   3.691
 2178TIP3   OH2 6497   5.427   4.112   5.040
 2178TIP3    H1 6498   5.498   4.051   5.021
 2178TIP3    H2 6499   5.371   4.108   4.962
 2179TIP3   OH2 6500   3.884   2.226   1.520
 2179TIP3    H1 6501   3.893   2.159   1.587
 2179TIP3    H2 6502   3.790   2.234   1.505
 2180TIP3   OH2 6503   6.766   5.367   1.375
 2180TIP3    H1 6504   6.685   5.335   1.415
 2180TIP3    H2 6505   6.827   5.376   1.448
 2181TIP3   OH2 6506   6.914   2.803   2.270
 2181TIP3    H1 6507   6.898   2.714   2.301
 2181TIP3    H2 6508   6.844   2.855   2.308
 2182TIP3   OH2 6509   1.416   6.346   4.840
 2182TIP3    H1 6510   1.429   6.299   4.922
 2182TIP3    H2 6511   1.368   6.285   4.785
 2183TIP3   OH2 6512   3.840   4.132   0.815
 2183TIP3    H1 6513   3.857   4.199   0.880
 2183TIP3    H2 6514   3.747   4.109   0.827
 2184TIP3   OH2 6515   5.783   1.792   1.482
 2184TIP3    H1 6516   5.735   1.753   1.554
 2184TIP3    H2 6517   5.725   1.783   1.406
 2185TIP3   OH2 6518   0.757   5.021   5.815
 2185TIP3    H1 6519   0.816   4.947   5.802
 2185TIP3    H2 6520   0.811   5.088   5.858
 2186TIP3   OH2 6521   6.288   6.581   3.644
 2186TIP3    H1 6522   6.294   6.675   3.626
 2186TIP3    H2 6523   6.251   6.544   3.563
 2187TIP3   OH2 6524   1.628   0.182   5.840
 2187TIP3    H1 6525   1.638   0.241   5.915
 2187TIP3    H2 6526   1.561   0.224   5.786
 2188TIP3   OH2 6527   0.665   5.248   5.494
 2188TIP3    H1 6528   0.596   5.269   5.557
 2188TIP3    H2 6529   0.740   5.301   5.522
 2189TIP3   OH2 6530   6.457   1.307   5.934
 2189TIP3    H1 6531   6.498   1.224   5.913
 2189TIP3    H2 6532   6.470   1.361   5.855
 2190TIP3   OH2 6533   6.999   4.327   2.697
 2190TIP3    H1 6534   6.968   4.331   2.606
 2190TIP3    H2 6535   7.039   4.413   2.712
 2191TIP3   OH2 6536   0.267   0.576   3.709
 2191TIP3    H1 6537   0.302   0.665   3.714
 2191TIP3    H2 6538   0.337   0.520   3.744
 2192TIP3   OH2 6539   6.678   3.996   2.686
 2192TIP3    H1 6540   6.763   4.037   2.699
 2192TIP3    H2 6541   6.620   4.037   2.750
 2193TIP3   OH2 6542   2.861   1.048   4.178
 2193TIP3    H1 6543   2.946   1.063   4.219
 2193TIP3    H2 6544   2.877   0.979   4.113
 2194TIP3   OH2 6545   6.022   5.861   2.242
 2194TIP3    H1 6546   6.113   5.888   2.258
 2194TIP3    H2 6547   5.982   5.860   2.329
 2195TIP3   OH2 6548   5.122   3.168   0.500
 2195TIP3    H1 6549   5.085   3.147   0.586
 2195TIP3    H2 6550   5.210   3.201   0.519
 2196TIP3   OH2 6551   5.682   5.963   1.657
 2196TIP3    H1 6552   5.658   5.904   1.586
 2196TIP3    H2 6553   5.778   5.955   1.664
 2197TIP3   OH2 6554   2.332   3.410   1.744
 2197TIP3    H1 6555   2.389   3.345   1.703
 2197TIP3    H2 6556   2.280   3.360   1.807
 2198TIP3   OH2 6557   3.054   5.586   1.872
 2198TIP3    H1 6558   3.120   5.521   1.847
 2198TIP3    H2 6559   3.026   5.559   1.959
 2199TIP3   OH2 6560   4.348   0.679   1.321
 2199TIP3    H1 6561   4.367   0.590   1.291
 2199TIP3    H2 6562   4.272   0.669   1.379
 2200TIP3   OH2 6563   0.871   5.853   0.972
 2200TIP3    H1 6564   0.825   5.909   1.035
 2200TIP3    H2 6565   0.949   5.904   0.948
 2201TIP3   OH2 6566   0.271   2.929   4.121
 2201TIP3    H1 6567   0.334   2.887   4.181
 2201TIP3    H2 6568   0.225   2.992   4.176
 2202TIP3   OH2 6569   4.067   5.876   1.039
 2202TIP3    H1 6570   4.060   5.801   1.098
 2202TIP3    H2 6571   4.116   5.843   0.964
 2203TIP3   OH2 6572   4.175   3.768   4.318
 2203TIP3    H1 6573   4.234   3.733   4.252
 2203TIP3    H2 6574   4.189   3.713   4.395
 2204TIP3   OH2 6575   3.089   1.572   1.311
 2204TIP3    H1 6576   3.057   1.612   1.392
 2204TIP3    H2 6577   3.143   1.639   1.270
 2205TIP3   OH2 6578   0.668   4.324   0.238
 2205TIP3    H1 6579   0.708   4.306   0.153
 2205TIP3    H2 6580   0.738   4.365   0.289
 2206TIP3   OH2 6581   3.524   4.620   1.441
 2206TIP3    H1 6582   3.469   4.586   1.511
 2206TIP3    H2 6583   3.482   4.591   1.360
 2207TIP3   OH2 6584   3.235   4.856   1.366
 2207TIP3    H1 6585   3.321   4.887   1.396
 2207TIP3    H2 6586   3.250   4.765   1.340
 2208TIP3   OH2 6587   2.529   4.320   2.504
 2208TIP3    H1 6588   2.470   4.245   2.491
 2208TIP3    H2 6589   2.559   4.342   2.416
 2209TIP3   OH2 6590   0.020   3.464   5.589
 2209TIP3    H1 6591   0.084   3.533   5.607
 2209TIP3    H2 6592  -0.045   3.473   5.659
 2210TIP3   OH2 6593   3.385   2.163   1.782
 2210TIP3    H1 6594   3.316   2.099   1.761
 2210TIP3    H2 6595   3.449   2.113   1.832
 2211TIP3   OH2 6596   0.421   2.951   5.071
 2211TIP3    H1 6597   0.473   3.025   5.102
 2211TIP3    H2 6598   0.484   2.882   5.053
 2212TIP3   OH2 6599   2.544   1.239   0.255
 2212TIP3    H1 6600   2.500   1.289   0.323
 2212TIP3    H2 6601   2.519   1.283   0.173
 2213TIP3   OH2 6602   6.304   0.946   0.116
 2213TIP3    H1 6603   6.333   1.001   0.190
 2213TIP3    H2 6604   6.213   0.973   0.101
 2214TIP3   OH2 6605   0.502   3.657   0.220
 2214TIP3    H1 6606   0.436   3.676   0.287
 2214TIP3    H2 6607   0.473   3.574   0.182
 2215TIP3   OH2 6608   6.558   2.910   2.866
 2215TIP3    H1 6609   6.474   2.876   2.834
 2215TIP3    H2 6610   6.559   2.884   2.959
 2216TIP3   OH2 6611   1.282   0.129   1.235
 2216TIP3    H1 6612   1.214   0.181   1.191
 2216TIP3    H2 6613   1.255   0.128   1.327
 2217TIP3   OH2 6614   0.476   5.190   1.170
 2217TIP3    H1 6615   0.572   5.193   1.176
 2217TIP3    H2 6616   0.458   5.113   1.118
 2218TIP3   OH2 6617   5.814   4.119   1.865
 2218TIP3    H1 6618   5.883   4.056   1.882
 2218TIP3    H2 6619   5.739   4.088   1.916
 2219TIP3   OH2 6620   2.257   0.623   2.817
 2219TIP3    H1 6621   2.224   0.662   2.898
 2219TIP3    H2 6622   2.248   0.529   2.831
 2220TIP3   OH2 6623   0.789   3.862   3.095
 2220TIP3    H1 6624   0.703   3.827   3.119
 2220TIP3    H2 6625   0.771   3.920   3.022
 2221TIP3   OH2 6626   6.342   0.186   4.862
 2221TIP3    H1 6627   6.421   0.186   4.808
 2221TIP3    H2 6628   6.276   0.231   4.809
 2222TIP3   OH2 6629   4.746   2.824   2.162
 2222TIP3    H1 6630   4.792   2.828   2.078
 2222TIP3    H2 6631   4.813   2.794   2.224
 2223TIP3   OH2 6632   2.982   4.857   0.051
 2223TIP3    H1 6633   3.041   4.865   0.126
 2223TIP3    H2 6634   3.024   4.791  -0.005
 2224TIP3   OH2 6635   5.741   3.694   3.627
 2224TIP3    H1 6636   5.712   3.604   3.645
 2224TIP3    H2 6637   5.836   3.690   3.636
 2225TIP3   OH2 6638   2.953   2.258   0.285
 2225TIP3    H1 6639   2.898   2.295   0.216
 2225TIP3    H2 6640   2.897   2.260   0.363
 2226TIP3   OH2 6641   6.830   6.559   2.202
 2226TIP3    H1 6642   6.852   6.631   2.142
 2226TIP3    H2 6643   6.779   6.600   2.271
 2227TIP3   OH2 6644   0.831   4.780   5.238
 2227TIP3    H1 6645   0.760   4.841   5.256
 2227TIP3    H2 6646   0.817   4.754   5.147
 2228TIP3   OH2 6647   6.966   0.360   4.091
 2228TIP3    H1 6648   6.870   0.357   4.096
 2228TIP3    H2 6649   6.987   0.306   4.015
 2229TIP3   OH2 6650   6.138   6.566   4.161
 2229TIP3    H1 6651   6.147   6.644   4.106
 2229TIP3    H2 6652   6.067   6.587   4.222
 2230TIP3   OH2 6653   3.911   6.317   4.313
 2230TIP3    H1 6654   3.885   6.405   4.287
 2230TIP3    H2 6655   3.851   6.259   4.265
 2231TIP3   OH2 6656   0.944   5.528   4.781
 2231TIP3    H1 6657   0.968   5.555   4.869
 2231TIP3    H2 6658   1.026   5.535   4.731
 2232TIP3   OH2 6659   0.555   3.727   3.865
 2232TIP3    H1 6660   0.510   3.805   3.831
 2232TIP3    H2 6661   0.506   3.654   3.827
 2233TIP3   OH2 6662   4.047   1.770   4.260
 2233TIP3    H1 6663   4.057   1.763   4.165
 2233TIP3    H2 6664   4.086   1.689   4.294
 2234TIP3   OH2 6665   0.430   1.564   4.189
 2234TIP3    H1 6666   0.494   1.631   4.213
 2234TIP3    H2 6667   0.442   1.495   4.254
 2235TIP3   OH2 6668   6.468   2.506   0.651
 2235TIP3    H1 6669   6.537   2.505   0.585
 2235TIP3    H2 6670   6.416   2.584   0.630
 2236TIP3   OH2 6671   0.444   0.758   5.761
 2236TIP3    H1 6672   0.503   0.811   5.708
 2236TIP3    H2 6673   0.501   0.714   5.824
 2237TIP3   OH2 6674   5.244   4.927   4.748
 2237TIP3    H1 6675   5.276   5.000   4.800
 2237TIP3    H2 6676   5.228   4.964   4.661
 2238TIP3   OH2 6677   0.193   4.015   3.192
 2238TIP3    H1 6678   0.200   3.938   3.249
 2238TIP3    H2 6679   0.105   4.010   3.155
 2239TIP3   OH2 6680   1.735   4.678   4.974
 2239TIP3    H1 6681   1.646   4.671   4.940
 2239TIP3    H2 6682   1.743   4.605   5.035
 2240TIP3   OH2 6683   4.442   0.890   5.436
 2240TIP3    H1 6684   4.476   0.977   5.454
 2240TIP3    H2 6685   4.504   0.830   5.477
 2241TIP3   OH2 6686   0.962   3.014   2.795
 2241TIP3    H1 6687   0.891   2.964   2.833
 2241TIP3    H2 6688   0.942   3.105   2.817
 2242TIP3   OH2 6689   4.370   2.749   3.378
 2242TIP3    H1 6690   4.289   2.741   3.327
 2242TIP3    H2 6691   4.351   2.705   3.460
 2243TIP3   OH2 6692   0.413   4.737   1.289
 2243TIP3    H1 6693   0.445   4.820   1.325
 2243TIP3    H2 6694   0.489   4.680   1.289
 2244TIP3   OH2 6695   1.086   2.646   5.698
 2244TIP3    H1 6696   1.158   2.709   5.696
 2244TIP3    H2 6697   1.009   2.698   5.720
 2245TIP3   OH2 6698   7.137   5.022   3.384
 2245TIP3    H1 6699   7.128   5.089   3.452
 2245TIP3    H2 6700   7.205   5.056   3.326
 2246TIP3   OH2 6701   4.516   4.907   4.087
 2246TIP3    H1 6702   4.593   4.961   4.104
 2246TIP3    H2 6703   4.487   4.934   4.000
 2247TIP3   OH2 6704   6.018   0.172   2.629
 2247TIP3    H1 6705   5.999   0.238   2.695
 2247TIP3    H2 6706   6.008   0.089   2.676
 2248TIP3   OH2 6707   0.362   3.200   2.486
 2248TIP3    H1 6708   0.441   3.236   2.528
 2248TIP3    H2 6709   0.365   3.233   2.396
 2249TIP3   OH2 6710   5.599   3.643   5.421
 2249TIP3    H1 6711   5.513   3.659   5.381
 2249TIP3    H2 6712   5.586   3.664   5.514
 2250TIP3   OH2 6713   1.044   3.036   3.115
 2250TIP3    H1 6714   0.950   3.057   3.114
 2250TIP3    H2 6715   1.083   3.106   3.063
 2251TIP3   OH2 6716   1.598   5.109   3.091
 2251TIP3    H1 6717   1.615   5.083   3.182
 2251TIP3    H2 6718   1.520   5.060   3.066
 2252TIP3   OH2 6719   5.496   0.465   4.514
 2252TIP3    H1 6720   5.534   0.415   4.586
 2252TIP3    H2 6721   5.401   0.454   4.524
 2253TIP3   OH2 6722   0.425   1.541   3.192
 2253TIP3    H1 6723   0.342   1.591   3.194
 2253TIP3    H2 6724   0.439   1.523   3.099
 2254TIP3   OH2 6725   1.660   0.627   1.058
 2254TIP3    H1 6726   1.710   0.569   1.001
 2254TIP3    H2 6727   1.648   0.577   1.139
 2255TIP3   OH2 6728   6.455   2.304   4.653
 2255TIP3    H1 6729   6.455   2.399   4.644
 2255TIP3    H2 6730   6.523   2.273   4.594
 2256TIP3   OH2 6731   4.006   3.925   4.837
 2256TIP3    H1 6732   4.088   3.960   4.803
 2256TIP3    H2 6733   3.938   3.967   4.785
 2257TIP3   OH2 6734   2.152   6.453   3.035
 2257TIP3    H1 6735   2.187   6.424   3.119
 2257TIP3    H2 6736   2.057   6.452   3.047
 2258TIP3   OH2 6737   0.109   5.844   0.284
 2258TIP3    H1 6738   0.201   5.828   0.261
 2258TIP3    H2 6739   0.093   5.934   0.257
 2259TIP3   OH2 6740   6.381   5.374   5.575
 2259TIP3    H1 6741   6.379   5.300   5.515
 2259TIP3    H2 6742   6.334   5.344   5.653
 2260TIP3   OH2 6743   2.414   0.913   3.556
 2260TIP3    H1 6744   2.404   0.978   3.626
 2260TIP3    H2 6745   2.342   0.851   3.571
 2261TIP3   OH2 6746   3.741   2.859   0.998
 2261TIP3    H1 6747   3.687   2.782   1.017
 2261TIP3    H2 6748   3.736   2.869   0.903
 2262TIP3   OH2 6749   0.269   5.959   3.283
 2262TIP3    H1 6750   0.271   5.880   3.337
 2262TIP3    H2 6751   0.330   5.942   3.212
 2263TIP3   OH2 6752   1.771   2.308   2.809
 2263TIP3    H1 6753   1.783   2.378   2.745
 2263TIP3    H2 6754   1.688   2.329   2.852
 2264TIP3   OH2 6755   1.312   1.963   1.073
 2264TIP3    H1 6756   1.219   1.946   1.054
 2264TIP3    H2 6757   1.346   1.879   1.102
 2265TIP3   OH2 6758   5.078   3.148   1.098
 2265TIP3    H1 6759   5.147   3.177   1.157
 2265TIP3    H2 6760   4.999   3.146   1.153
 2266TIP3   OH2 6761   7.161   0.336   0.248
 2266TIP3    H1 6762   7.216   0.334   0.170
 2266TIP3    H2 6763   7.076   0.303   0.217
 2267TIP3   OH2 6764   5.669   5.435   4.666
 2267TIP3    H1 6765   5.709   5.521   4.651
 2267TIP3    H2 6766   5.676   5.390   4.581
 2268TIP3   OH2 6767   3.142   6.371   3.791
 2268TIP3    H1 6768   3.111   6.291   3.750
 2268TIP3    H2 6769   3.180   6.422   3.719
 2269TIP3   OH2 6770   0.121   4.455   2.858
 2269TIP3    H1 6771   0.124   4.521   2.788
 2269TIP3    H2 6772   0.180   4.489   2.925
 2270TIP3   OH2 6773   5.137   3.931   2.259
 2270TIP3    H1 6774   5.193   3.874   2.311
 2270TIP3    H2 6775   5.077   3.871   2.213
 2271TIP3   OH2 6776   0.141   4.432   1.357
 2271TIP3    H1 6777   0.092   4.368   1.305
 2271TIP3    H2 6778   0.209   4.465   1.298
 2272TIP3   OH2 6779   6.257   2.338   0.687
 2272TIP3    H1 6780   6.339   2.387   0.681
 2272TIP3    H2 6781   6.257   2.302   0.776
 2273TIP3   OH2 6782   1.208   1.880   4.522
 2273TIP3    H1 6783   1.259   1.833   4.456
 2273TIP3    H2 6784   1.154   1.941   4.472
 2274TIP3   OH2 6785   6.018   3.689   5.201
 2274TIP3    H1 6786   6.010   3.617   5.137
 2274TIP3    H2 6787   6.104   3.675   5.241
 2275TIP3   OH2 6788   3.312   5.345   5.468
 2275TIP3    H1 6789   3.358   5.385   5.541
 2275TIP3    H2 6790   3.234   5.306   5.506
 2276TIP3   OH2 6791   5.881   2.730   5.672
 2276TIP3    H1 6792   5.918   2.698   5.590
 2276TIP3    H2 6793   5.921   2.816   5.684
 2277TIP3   OH2 6794   7.008   5.180   2.094
 2277TIP3    H1 6795   6.996   5.114   2.162
 2277TIP3    H2 6796   7.042   5.131   2.019
 2278TIP3   OH2 6797   4.123   3.245   4.152
 2278TIP3    H1 6798   4.140   3.254   4.245
 2278TIP3    H2 6799   4.053   3.308   4.133
 2279TIP3   OH2 6800   6.709   3.135   1.778
 2279TIP3    H1 6801   6.648   3.198   1.815
 2279TIP3    H2 6802   6.682   3.126   1.686
 2280TIP3   OH2 6803   3.936   0.964   4.486
 2280TIP3    H1 6804   3.898   0.936   4.569
 2280TIP3    H2 6805   3.978   1.048   4.507
 2281TIP3   OH2 6806   1.286   4.664   1.097
 2281TIP3    H1 6807   1.207   4.706   1.132
 2281TIP3    H2 6808   1.288   4.692   1.005
 2282TIP3   OH2 6809   6.176   2.090   2.536
 2282TIP3    H1 6810   6.266   2.059   2.524
 2282TIP3    H2 6811   6.150   2.057   2.622
 2283TIP3   OH2 6812   1.503   2.100   0.102
 2283TIP3    H1 6813   1.433   2.078   0.041
 2283TIP3    H2 6814   1.465   2.168   0.159
 2284TIP3   OH2 6815   4.601   2.772   2.710
 2284TIP3    H1 6816   4.677   2.742   2.759
 2284TIP3    H2 6817   4.608   2.730   2.625
 2285TIP3   OH2 6818   1.747   6.114   0.815
 2285TIP3    H1 6819   1.744   6.178   0.744
 2285TIP3    H2 6820   1.823   6.059   0.794
 2286TIP3   OH2 6821   3.816   1.891   4.403
 2286TIP3    H1 6822   3.902   1.852   4.386
 2286TIP3    H2 6823   3.830   1.985   4.391
 2287TIP3   OH2 6824   2.858   0.258   2.223
 2287TIP3    H1 6825   2.839   0.347   2.253
 2287TIP3    H2 6826   2.773   0.224   2.194
 2288TIP3   OH2 6827   4.142   5.826   3.959
 2288TIP3    H1 6828   4.183   5.830   3.873
 2288TIP3    H2 6829   4.156   5.913   3.997
 2289TIP3   OH2 6830   0.261   5.965   3.887
 2289TIP3    H1 6831   0.259   5.870   3.875
 2289TIP3    H2 6832   0.348   5.982   3.923
 2290TIP3   OH2 6833   3.985   0.539   2.985
 2290TIP3    H1 6834   4.008   0.526   2.893
 2290TIP3    H2 6835   4.067   0.527   3.032
 2291TIP3   OH2 6836   5.367   0.862   2.851
 2291TIP3    H1 6837   5.281   0.858   2.894
 2291TIP3    H2 6838   5.375   0.953   2.823
 2292TIP3   OH2 6839   5.581   4.788   0.350
 2292TIP3    H1 6840   5.532   4.786   0.268
 2292TIP3    H2 6841   5.516   4.765   0.417
 2293TIP3   OH2 6842   5.630   5.240   1.144
 2293TIP3    H1 6843   5.622   5.332   1.167
 2293TIP3    H2 6844   5.597   5.235   1.054
 2294TIP3   OH2 6845   4.009   2.784   0.583
 2294TIP3    H1 6846   4.074   2.718   0.606
 2294TIP3    H2 6847   4.038   2.863   0.630
 2295TIP3   OH2 6848   6.588   0.992   4.766
 2295TIP3    H1 6849   6.501   0.957   4.789
 2295TIP3    H2 6850   6.578   1.022   4.676
 2296TIP3   OH2 6851   1.148   4.519   4.207
 2296TIP3    H1 6852   1.193   4.551   4.285
 2296TIP3    H2 6853   1.058   4.550   4.216
 2297TIP3   OH2 6854   6.562   5.749   3.883
 2297TIP3    H1 6855   6.475   5.726   3.915
 2297TIP3    H2 6856   6.569   5.844   3.898
 2298TIP3   OH2 6857   0.267   1.484   3.568
 2298TIP3    H1 6858   0.276   1.430   3.490
 2298TIP3    H2 6859   0.219   1.561   3.539
 2299TIP3   OH2 6860   0.981   3.746   1.884
 2299TIP3    H1 6861   1.008   3.730   1.974
 2299TIP3    H2 6862   0.909   3.684   1.869
 2300TIP3   OH2 6863   1.506   0.524   3.263
 2300TIP3    H1 6864   1.411   0.535   3.266
 2300TIP3    H2 6865   1.518   0.429   3.254
 2301TIP3   OH2 6866   6.027   4.207   5.526
 2301TIP3    H1 6867   6.054   4.233   5.438
 2301TIP3    H2 6868   5.934   4.187   5.518
 2302TIP3   OH2 6869   2.582   3.625   4.048
 2302TIP3    H1 6870   2.561   3.533   4.065
 2302TIP3    H2 6871   2.677   3.629   4.055
 2303TIP3   OH2 6872   2.225   3.971   1.622
 2303TIP3    H1 6873   2.248   3.896   1.677
 2303TIP3    H2 6874   2.149   3.942   1.573
 2304TIP3   OH2 6875   1.063   3.820   5.413
 2304TIP3    H1 6876   0.987   3.874   5.392
 2304TIP3    H2 6877   1.136   3.882   5.418
 2305TIP3   OH2 6878   4.930   2.395   4.558
 2305TIP3    H1 6879   4.874   2.471   4.576
 2305TIP3    H2 6880   4.869   2.328   4.527
 2306TIP3   OH2 6881   3.686   6.783   1.223
 2306TIP3    H1 6882   3.602   6.825   1.201
 2306TIP3    H2 6883   3.662   6.709   1.278
 2307TIP3   OH2 6884   6.494   1.795   4.687
 2307TIP3    H1 6885   6.568   1.853   4.707
 2307TIP3    H2 6886   6.529   1.733   4.623
 2308TIP3   OH2 6887   5.308   3.935   2.966
 2308TIP3    H1 6888   5.218   3.917   2.996
 2308TIP3    H2 6889   5.299   3.950   2.872
 2309TIP3   OH2 6890   6.683   4.756   5.638
 2309TIP3    H1 6891   6.751   4.741   5.704
 2309TIP3    H2 6892   6.710   4.703   5.562
 2310TIP3   OH2 6893   0.464   3.464   2.612
 2310TIP3    H1 6894   0.555   3.437   2.597
 2310TIP3    H2 6895   0.446   3.527   2.543
 2311TIP3   OH2 6896   6.654   4.875   5.304
 2311TIP3    H1 6897   6.674   4.791   5.344
 2311TIP3    H2 6898   6.562   4.868   5.278
 2312TIP3   OH2 6899   5.399   4.019   0.500
 2312TIP3    H1 6900   5.478   3.971   0.474
 2312TIP3    H2 6901   5.384   4.081   0.428
 2313TIP3   OH2 6902   0.986   6.199   5.843
 2313TIP3    H1 6903   0.990   6.295   5.837
 2313TIP3    H2 6904   0.971   6.170   5.753
 2314TIP3   OH2 6905   4.745   1.614   2.921
 2314TIP3    H1 6906   4.784   1.550   2.860
 2314TIP3    H2 6907   4.820   1.662   2.956
 2315TIP3   OH2 6908   5.571   5.822   1.438
 2315TIP3    H1 6909   5.628   5.865   1.374
 2315TIP3    H2 6910   5.586   5.729   1.425
 2316TIP3   OH2 6911   4.015   2.941   1.000
 2316TIP3    H1 6912   4.039   3.023   1.043
 2316TIP3    H2 6913   3.928   2.922   1.034
 2317TIP3   OH2 6914   1.922   2.914   0.687
 2317TIP3    H1 6915   1.948   2.829   0.722
 2317TIP3    H2 6916   1.974   2.924   0.607
 2318TIP3   OH2 6917   0.243   5.230   4.067
 2318TIP3    H1 6918   0.155   5.263   4.049
 2318TIP3    H2 6919   0.240   5.138   4.039
 2319TIP3   OH2 6920   3.881   5.296   1.031
 2319TIP3    H1 6921   3.824   5.219   1.036
 2319TIP3    H2 6922   3.844   5.349   0.961
 2320TIP3   OH2 6923   1.109   0.839   1.390
 2320TIP3    H1 6924   1.163   0.762   1.369
 2320TIP3    H2 6925   1.048   0.808   1.456
 2321TIP3   OH2 6926   2.687   2.359   3.591
 2321TIP3    H1 6927   2.618   2.361   3.657
 2321TIP3    H2 6928   2.720   2.269   3.592
 2322TIP3   OH2 6929   0.119   0.957   2.323
 2322TIP3    H1 6930   0.162   0.928   2.243
 2322TIP3    H2 6931   0.042   0.900   2.331
 2323TIP3   OH2 6932   5.548   2.041   2.908
 2323TIP3    H1 6933   5.624   2.076   2.954
 2323TIP3    H2 6934   5.475   2.096   2.939
 2324TIP3   OH2 6935   2.094   1.142   1.339
 2324TIP3    H1 6936   2.102   1.214   1.276
 2324TIP3    H2 6937   2.160   1.160   1.405
 2325TIP3   OH2 6938   4.952   3.313   0.919
 2325TIP3    H1 6939   4.992   3.395   0.889
 2325TIP3    H2 6940   5.005   3.286   0.994
 2326TIP3   OH2 6941   1.320   5.113   2.033
 2326TIP3    H1 6942   1.233   5.074   2.035
 2326TIP3    H2 6943   1.365   5.069   1.961
 2327TIP3   OH2 6944   0.615   3.878   1.221
 2327TIP3    H1 6945   0.556   3.899   1.149
 2327TIP3    H2 6946   0.693   3.930   1.204
 2328TIP3   OH2 6947   5.462   1.867   5.485
 2328TIP3    H1 6948   5.504   1.863   5.571
 2328TIP3    H2 6949   5.476   1.780   5.447
 2329TIP3   OH2 6950   1.466   0.859   0.496
 2329TIP3    H1 6951   1.480   0.801   0.571
 2329TIP3    H2 6952   1.409   0.929   0.529
 2330TIP3   OH2 6953   5.213   6.272   1.241
 2330TIP3    H1 6954   5.223   6.307   1.153
 2330TIP3    H2 6955   5.226   6.177   1.231
 2331TIP3   OH2 6956   4.395   0.501   5.011
 2331TIP3    H1 6957   4.332   0.454   5.066
 2331TIP3    H2 6958   4.379   0.594   5.031
 2332TIP3   OH2 6959   0.132   5.205   2.368
 2332TIP3    H1 6960   0.204   5.261   2.339
 2332TIP3    H2 6961   0.055   5.261   2.365
 2333TIP3   OH2 6962   1.367   4.427   2.174
 2333TIP3    H1 6963   1.388   4.504   2.227
 2333TIP3    H2 6964   1.441   4.419   2.113
 2334TIP3   OH2 6965   0.710   4.959   0.940
 2334TIP3    H1 6966   0.624   4.922   0.958
 2334TIP3    H2 6967   0.771   4.889   0.958
 2335TIP3   OH2 6968   0.352   2.691   2.049
 2335TIP3    H1 6969   0.287   2.649   1.992
 2335TIP3    H2 6970   0.300   2.737   2.114
 2336TIP3   OH2 6971   3.328   1.145   0.389
 2336TIP3    H1 6972   3.293   1.102   0.467
 2336TIP3    H2 6973   3.349   1.234   0.418
 2337TIP3   OH2 6974   3.314   2.525   1.082
 2337TIP3    H1 6975   3.291   2.459   1.016
 2337TIP3    H2 6976   3.369   2.479   1.144
 2338TIP3   OH2 6977   5.447   5.711   4.863
 2338TIP3    H1 6978   5.446   5.749   4.775
 2338TIP3    H2 6979   5.418   5.620   4.849
 2339TIP3   OH2 6980   2.526   3.264   1.039
 2339TIP3    H1 6981   2.619   3.286   1.027
 2339TIP3    H2 6982   2.480   3.322   0.978
 2340TIP3   OH2 6983   2.077   3.181   4.374
 2340TIP3    H1 6984   2.058   3.192   4.281
 2340TIP3    H2 6985   2.150   3.240   4.391
 2341TIP3   OH2 6986   5.841   2.934   3.477
 2341TIP3    H1 6987   5.921   2.900   3.436
 2341TIP3    H2 6988   5.841   2.898   3.565
 2342TIP3   OH2 6989   3.548   4.976   1.730
 2342TIP3    H1 6990   3.508   4.895   1.762
 2342TIP3    H2 6991   3.636   4.950   1.704
 2343TIP3   OH2 6992   0.071   6.245   5.535
 2343TIP3    H1 6993   0.158   6.269   5.567
 2343TIP3    H2 6994   0.033   6.191   5.605
 2344TIP3   OH2 6995   4.630   1.954   0.430
 2344TIP3    H1 6996   4.646   1.967   0.337
 2344TIP3    H2 6997   4.565   2.021   0.453
 2345TIP3   OH2 6998   2.669   1.799   3.810
 2345TIP3    H1 6999   2.601   1.866   3.815
 2345TIP3    H2 7000   2.705   1.809   3.722
 2346TIP3   OH2 7001   5.858   3.884   0.448
 2346TIP3    H1 7002   5.894   3.920   0.367
 2346TIP3    H2 7003   5.765   3.873   0.430
 2347TIP3   OH2 7004   2.310   6.171   2.478
 2347TIP3    H1 7005   2.320   6.149   2.386
 2347TIP3    H2 7006   2.387   6.133   2.520
 2348TIP3   OH2 7007   1.236   0.509   4.900
 2348TIP3    H1 7008   1.314   0.502   4.956
 2348TIP3    H2 7009   1.163   0.515   4.962
 2349TIP3   OH2 7010   5.516   5.864   3.827
 2349TIP3    H1 7011   5.464   5.826   3.756
 2349TIP3    H2 7012   5.597   5.814   3.826
 2350TIP3   OH2 7013   3.567   0.496   4.473
 2350TIP3    H1 7014   3.527   0.503   4.560
 2350TIP3    H2 7015   3.625   0.421   4.478
 2351TIP3   OH2 7016   5.454   4.678   5.487
 2351TIP3    H1 7017   5.515   4.752   5.490
 2351TIP3    H2 7018   5.508   4.603   5.464
 2352TIP3   OH2 7019   1.825   4.277   5.371
 2352TIP3    H1 7020   1.856   4.362   5.400
 2352TIP3    H2 7021   1.905   4.225   5.362
 2353TIP3   OH2 7022   3.178  -0.017   4.017
 2353TIP3    H1 7023   3.208   0.073   4.028
 2353TIP3    H2 7024   3.083  -0.012   4.029
 2354TIP3   OH2 7025   1.885   1.146   2.111
 2354TIP3    H1 7026   1.842   1.086   2.171
 2354TIP3    H2 7027   1.978   1.143   2.136
 2355TIP3   OH2 7028   6.600   2.962   2.386
 2355TIP3    H1 7029   6.581   2.872   2.412
 2355TIP3    H2 7030   6.572   3.015   2.460
 2356TIP3   OH2 7031   0.241   1.931   1.431
 2356TIP3    H1 7032   0.227   1.916   1.524
 2356TIP3    H2 7033   0.167   1.987   1.405
 2357TIP3   OH2 7034   6.249   0.967   1.322
 2357TIP3    H1 7035   6.263   0.906   1.394
 2357TIP3    H2 7036   6.298   0.929   1.249
 2358TIP3   OH2 7037   0.759   1.417   2.581
 2358TIP3    H1 7038   0.691   1.471   2.621
 2358TIP3    H2 7039   0.743   1.425   2.487
 2359TIP3   OH2 7040   4.700   6.027   1.687
 2359TIP3    H1 7041   4.711   5.942   1.644
 2359TIP3    H2 7042   4.778   6.037   1.741
 2360TIP3   OH2 7043   6.356   2.131   5.678
 2360TIP3    H1 7044   6.306   2.194   5.730
 2360TIP3    H2 7045   6.381   2.180   5.600
 2361TIP3   OH2 7046   3.518   0.439   4.211
 2361TIP3    H1 7047   3.591   0.379   4.197
 2361TIP3    H2 7048   3.512   0.448   4.306
 2362TIP3   OH2 7049   4.312   0.725   4.084
 2362TIP3    H1 7050   4.242   0.747   4.022
 2362TIP3    H2 7051   4.393   0.731   4.032
 2363TIP3   OH2 7052   3.642   0.120   3.513
 2363TIP3    H1 7053   3.610   0.047   3.460
 2363TIP3    H2 7054   3.566   0.178   3.524
 2364TIP3   OH2 7055   3.204   4.760   5.513
 2364TIP3    H1 7056   3.250   4.743   5.595
 2364TIP3    H2 7057   3.242   4.697   5.451
 2365TIP3   OH2 7058   3.672   5.578   3.581
 2365TIP3    H1 7059   3.601   5.603   3.522
 2365TIP3    H2 7060   3.635   5.590   3.668
 2366TIP3   OH2 7061   1.077   0.549   2.276
 2366TIP3    H1 7062   1.039   0.627   2.235
 2366TIP3    H2 7063   1.096   0.490   2.204
 2367TIP3   OH2 7064   1.225   5.926   3.468
 2367TIP3    H1 7065   1.289   5.911   3.399
 2367TIP3    H2 7066   1.143   5.942   3.422
 2368TIP3   OH2 7067   3.942   5.372   0.032
 2368TIP3    H1 7068   3.946   5.419   0.115
 2368TIP3    H2 7069   3.853   5.387  -0.001
 2369TIP3   OH2 7070   0.908   1.804   4.153
 2369TIP3    H1 7071   0.831   1.804   4.097
 2369TIP3    H2 7072   0.940   1.714   4.151
 2370TIP3   OH2 7073   5.230   1.493   1.453
 2370TIP3    H1 7074   5.232   1.422   1.517
 2370TIP3    H2 7075   5.140   1.525   1.457
 2371TIP3   OH2 7076   2.456   5.318   1.920
 2371TIP3    H1 7077   2.460   5.229   1.884
 2371TIP3    H2 7078   2.547   5.339   1.939
 2372TIP3   OH2 7079   5.518   1.615   5.420
 2372TIP3    H1 7080   5.593   1.597   5.476
 2372TIP3    H2 7081   5.446   1.568   5.461
 2373TIP3   OH2 7082   5.671   1.833   2.265
 2373TIP3    H1 7083   5.697   1.912   2.313
 2373TIP3    H2 7084   5.752   1.803   2.223
 2374TIP3   OH2 7085   6.320   1.667   4.954
 2374TIP3    H1 7086   6.247   1.616   4.920
 2374TIP3    H2 7087   6.308   1.667   5.049
 2375TIP3   OH2 7088   5.210   4.106   5.583
 2375TIP3    H1 7089   5.114   4.110   5.587
 2375TIP3    H2 7090   5.228   4.036   5.521
 2376TIP3   OH2 7091   5.535   0.942   3.864
 2376TIP3    H1 7092   5.561   0.871   3.923
 2376TIP3    H2 7093   5.441   0.930   3.852
 2377TIP3   OH2 7094   3.841   4.547   4.576
 2377TIP3    H1 7095   3.760   4.496   4.587
 2377TIP3    H2 7096   3.902   4.485   4.536
 2378TIP3   OH2 7097   4.576   5.223   2.412
 2378TIP3    H1 7098   4.531   5.305   2.431
 2378TIP3    H2 7099   4.642   5.246   2.347
 2379TIP3   OH2 7100   6.375   5.787  -0.008
 2379TIP3    H1 7101   6.361   5.807   0.084
 2379TIP3    H2 7102   6.370   5.691  -0.013
 2380TIP3   OH2 7103   2.717   1.516   2.265
 2380TIP3    H1 7104   2.708   1.578   2.337
 2380TIP3    H2 7105   2.667   1.439   2.293
 2381TIP3   OH2 7106   6.316   0.594   4.247
 2381TIP3    H1 7107   6.300   0.501   4.231
 2381TIP3    H2 7108   6.338   0.600   4.340
 2382TIP3   OH2 7109   6.255   4.689   3.495
 2382TIP3    H1 7110   6.247   4.634   3.417
 2382TIP3    H2 7111   6.321   4.644   3.549
 2383TIP3   OH2 7112   7.088   3.422   4.745
 2383TIP3    H1 7113   7.037   3.452   4.821
 2383TIP3    H2 7114   7.024   3.408   4.676
 2384TIP3   OH2 7115   6.327   5.756   2.482
 2384TIP3    H1 7116   6.318   5.848   2.457
 2384TIP3    H2 7117   6.238   5.726   2.497
 2385TIP3   OH2 7118   3.938   0.853   0.917
 2385TIP3    H1 7119   4.001   0.786   0.944
 2385TIP3    H2 7120   3.973   0.935   0.951
 2386TIP3   OH2 7121   1.060   2.998   2.063
 2386TIP3    H1 7122   1.098   3.086   2.063
 2386TIP3    H2 7123   0.993   3.000   1.995
 2387TIP3   OH2 7124   0.526   3.503   4.064
 2387TIP3    H1 7125   0.495   3.421   4.102
 2387TIP3    H2 7126   0.463   3.569   4.094
 2388TIP3   OH2 7127   1.951   1.122   5.516
 2388TIP3    H1 7128   1.943   1.197   5.457
 2388TIP3    H2 7129   2.009   1.152   5.586
 2389TIP3   OH2 7130   0.935   5.669   5.345
 2389TIP3    H1 7131   0.882   5.613   5.289
 2389TIP3    H2 7132   0.976   5.609   5.407
 2390TIP3   OH2 7133   5.558   2.695   0.684
 2390TIP3    H1 7134   5.514   2.780   0.683
 2390TIP3    H2 7135   5.503   2.640   0.739
 2391TIP3   OH2 7136   2.240   5.902   3.789
 2391TIP3    H1 7137   2.211   5.960   3.719
 2391TIP3    H2 7138   2.305   5.845   3.748
 2392TIP3   OH2 7139   0.836   0.117   2.836
 2392TIP3    H1 7140   0.876   0.044   2.789
 2392TIP3    H2 7141   0.748   0.087   2.857
 2393TIP3   OH2 7142   3.957   6.077   2.717
 2393TIP3    H1 7143   3.947   6.049   2.626
 2393TIP3    H2 7144   4.050   6.065   2.736
 2394TIP3   OH2 7145   0.642   6.235   0.877
 2394TIP3    H1 7146   0.677   6.265   0.960
 2394TIP3    H2 7147   0.570   6.294   0.858
 2395TIP3   OH2 7148   2.395   1.181   1.106
 2395TIP3    H1 7149   2.359   1.092   1.103
 2395TIP3    H2 7150   2.473   1.173   1.160
 2396TIP3   OH2 7151   3.893   3.147   4.684
 2396TIP3    H1 7152   3.879   3.103   4.601
 2396TIP3    H2 7153   3.962   3.096   4.727
 2397TIP3   OH2 7154   1.127   5.450   2.950
 2397TIP3    H1 7155   1.148   5.527   2.899
 2397TIP3    H2 7156   1.155   5.376   2.896
 2398TIP3   OH2 7157   3.637   6.383   5.013
 2398TIP3    H1 7158   3.720   6.428   5.022
 2398TIP3    H2 7159   3.657   6.307   4.958
 2399TIP3   OH2 7160   5.077   4.522   1.099
 2399TIP3    H1 7161   5.128   4.461   1.047
 2399TIP3    H2 7162   5.076   4.603   1.047
 2400TIP3   OH2 7163   5.528   5.392   5.612
 2400TIP3    H1 7164   5.545   5.482   5.642
 2400TIP3    H2 7165   5.586   5.338   5.666
 2401TIP3   OH2 7166   1.454   3.291   2.149
 2401TIP3    H1 7167   1.507   3.314   2.073
 2401TIP3    H2 7168   1.448   3.195   2.146
 2402TIP3   OH2 7169   1.065   4.683   1.294
 2402TIP3    H1 7170   1.021   4.678   1.378
 2402TIP3    H2 7171   1.068   4.593   1.262
 2403TIP3   OH2 7172   0.341   0.081   2.829
 2403TIP3    H1 7173   0.249   0.108   2.827
 2403TIP3    H2 7174   0.351   0.023   2.753
 2404TIP3   OH2 7175   1.738   4.054   5.891
 2404TIP3    H1 7176   1.653   4.084   5.859
 2404TIP3    H2 7177   1.753   3.971   5.847
 2405TIP3   OH2 7178   4.531   3.924   4.124
 2405TIP3    H1 7179   4.470   3.956   4.190
 2405TIP3    H2 7180   4.555   3.837   4.154
 2406TIP3   OH2 7181   0.820   0.869   1.781
 2406TIP3    H1 7182   0.876   0.811   1.832
 2406TIP3    H2 7183   0.753   0.899   1.843
 2407TIP3   OH2 7184   1.253   4.021   4.862
 2407TIP3    H1 7185   1.274   4.047   4.772
 2407TIP3    H2 7186   1.162   3.990   4.857
 2408TIP3   OH2 7187   6.696   5.201   4.382
 2408TIP3    H1 7188   6.664   5.280   4.338
 2408TIP3    H2 7189   6.668   5.130   4.326
 2409TIP3   OH2 7190   0.950   0.414   0.983
 2409TIP3    H1 7191   0.994   0.462   0.913
 2409TIP3    H2 7192   0.939   0.325   0.950
 2410TIP3   OH2 7193   5.663   2.457   4.657
 2410TIP3    H1 7194   5.722   2.393   4.617
 2410TIP3    H2 7195   5.627   2.411   4.734
 2411TIP3   OH2 7196   6.047   6.507   0.238
 2411TIP3    H1 7197   6.098   6.566   0.293
 2411TIP3    H2 7198   6.007   6.563   0.172
 2412TIP3   OH2 7199   5.896   3.668   3.258
 2412TIP3    H1 7200   5.854   3.583   3.268
 2412TIP3    H2 7201   5.842   3.714   3.194
 2413TIP3   OH2 7202   0.047   2.422   4.172
 2413TIP3    H1 7203   0.082   2.408   4.260
 2413TIP3    H2 7204   0.081   2.349   4.121
 2414TIP3   OH2 7205   3.350   1.949   3.791
 2414TIP3    H1 7206   3.316   1.921   3.877
 2414TIP3    H2 7207   3.433   1.902   3.782
 2415TIP3   OH2 7208   6.892   2.020   2.852
 2415TIP3    H1 7209   6.949   2.052   2.782
 2415TIP3    H2 7210   6.807   2.006   2.811
 2416TIP3   OH2 7211   4.690   3.089   0.214
 2416TIP3    H1 7212   4.744   3.163   0.241
 2416TIP3    H2 7213   4.607   3.101   0.260
 2417TIP3   OH2 7214   1.011   4.631   3.989
 2417TIP3    H1 7215   1.092   4.609   4.035
 2417TIP3    H2 7216   1.029   4.611   3.897
 2418TIP3   OH2 7217   5.543   6.083   1.040
 2418TIP3    H1 7218   5.564   6.133   0.961
 2418TIP3    H2 7219   5.560   5.992   1.016
 2419TIP3   OH2 7220   6.363   4.790   0.815
 2419TIP3    H1 7221   6.411   4.731   0.875
 2419TIP3    H2 7222   6.272   4.784   0.844
 2420TIP3   OH2 7223   4.055   6.064   1.434
 2420TIP3    H1 7224   3.997   6.089   1.362
 2420TIP3    H2 7225   4.069   5.970   1.423
 2421TIP3   OH2 7226   0.692   3.873   5.368
 2421TIP3    H1 7227   0.616   3.855   5.311
 2421TIP3    H2 7228   0.689   3.968   5.381
 2422TIP3   OH2 7229   1.130   6.265   4.176
 2422TIP3    H1 7230   1.156   6.352   4.207
 2422TIP3    H2 7231   1.056   6.281   4.117
 2423TIP3   OH2 7232   4.843   5.512   4.437
 2423TIP3    H1 7233   4.839   5.563   4.518
 2423TIP3    H2 7234   4.829   5.576   4.368
 2424TIP3   OH2 7235   4.060   6.133   3.242
 2424TIP3    H1 7236   3.998   6.075   3.286
 2424TIP3    H2 7237   4.030   6.221   3.265
 2425TIP3   OH2 7238   4.169   2.150   3.678
 2425TIP3    H1 7239   4.169   2.219   3.745
 2425TIP3    H2 7240   4.261   2.127   3.668
 2426TIP3   OH2 7241   1.052   1.235   3.442
 2426TIP3    H1 7242   1.075   1.170   3.508
 2426TIP3    H2 7243   0.971   1.274   3.474
 2427TIP3   OH2 7244   2.104   4.683   2.328
 2427TIP3    H1 7245   2.164   4.637   2.387
 2427TIP3    H2 7246   2.075   4.759   2.379
 2428TIP3   OH2 7247   0.382   5.429   1.962
 2428TIP3    H1 7248   0.355   5.520   1.944
 2428TIP3    H2 7249   0.313   5.376   1.923
 2429TIP3   OH2 7250   0.658   4.604   1.452
 2429TIP3    H1 7251   0.645   4.543   1.525
 2429TIP3    H2 7252   0.752   4.619   1.449
 2430TIP3   OH2 7253   3.313   0.765   2.240
 2430TIP3    H1 7254   3.311   0.821   2.162
 2430TIP3    H2 7255   3.387   0.706   2.225
 2431TIP3   OH2 7256   6.853   4.317   2.958
 2431TIP3    H1 7257   6.946   4.306   2.974
 2431TIP3    H2 7258   6.848   4.357   2.872
 2432TIP3   OH2 7259   2.041   1.846   3.031
 2432TIP3    H1 7260   1.953   1.809   3.040
 2432TIP3    H2 7261   2.082   1.831   3.116
 2433TIP3   OH2 7262   4.906   2.328   3.491
 2433TIP3    H1 7263   4.938   2.281   3.568
 2433TIP3    H2 7264   4.924   2.420   3.509
 2434TIP3   OH2 7265   3.035   4.879   2.555
 2434TIP3    H1 7266   3.043   4.946   2.487
 2434TIP3    H2 7267   3.115   4.887   2.606
 2435TIP3   OH2 7268   0.738   1.979   0.848
 2435TIP3    H1 7269   0.686   1.918   0.796
 2435TIP3    H2 7270   0.731   1.945   0.938
 2436TIP3   OH2 7271   6.402   2.171   5.229
 2436TIP3    H1 7272   6.443   2.086   5.215
 2436TIP3    H2 7273   6.422   2.193   5.320
 2437TIP3   OH2 7274   3.095   0.841   2.046
 2437TIP3    H1 7275   3.033   0.782   2.088
 2437TIP3    H2 7276   3.040   0.907   2.004
 2438TIP3   OH2 7277   1.500   4.866   2.257
 2438TIP3    H1 7278   1.439   4.900   2.323
 2438TIP3    H2 7279   1.512   4.774   2.280
 2439TIP3   OH2 7280   2.049   4.216   3.767
 2439TIP3    H1 7281   2.077   4.282   3.703
 2439TIP3    H2 7282   1.960   4.242   3.790
 2440TIP3   OH2 7283   7.174   2.273   5.096
 2440TIP3    H1 7284   7.134   2.342   5.148
 2440TIP3    H2 7285   7.163   2.302   5.005
 2441TIP3   OH2 7286   2.449   3.016   2.897
 2441TIP3    H1 7287   2.502   3.057   2.828
 2441TIP3    H2 7288   2.502   3.025   2.977
 2442TIP3   OH2 7289   4.047   5.694   0.705
 2442TIP3    H1 7290   4.093   5.778   0.705
 2442TIP3    H2 7291   4.106   5.634   0.660
 2443TIP3   OH2 7292   7.144   4.917   4.075
 2443TIP3    H1 7293   7.087   4.990   4.102
 2443TIP3    H2 7294   7.124   4.847   4.137
 2444TIP3   OH2 7295   4.377   6.755   4.176
 2444TIP3    H1 7296   4.302   6.700   4.156
 2444TIP3    H2 7297   4.351   6.802   4.256
 2445TIP3   OH2 7298   4.760   0.577   0.272
 2445TIP3    H1 7299   4.822   0.618   0.212
 2445TIP3    H2 7300   4.768   0.628   0.353
 2446TIP3   OH2 7301   3.394   5.320   2.920
 2446TIP3    H1 7302   3.354   5.233   2.912
 2446TIP3    H2 7303   3.329   5.373   2.964
 2447TIP3   OH2 7304   5.627   5.523   0.769
 2447TIP3    H1 7305   5.640   5.429   0.754
 2447TIP3    H2 7306   5.715   5.560   0.767
 2448TIP3   OH2 7307   6.707   3.961   4.379
 2448TIP3    H1 7308   6.744   3.883   4.338
 2448TIP3    H2 7309   6.720   3.947   4.473
 2449TIP3   OH2 7310   1.977   4.719   3.008
 2449TIP3    H1 7311   1.972   4.661   3.084
 2449TIP3    H2 7312   2.026   4.670   2.943
 2450TIP3   OH2 7313   4.054   5.485   2.623
 2450TIP3    H1 7314   4.032   5.463   2.713
 2450TIP3    H2 7315   4.001   5.425   2.570
 2451TIP3   OH2 7316   0.072   4.735   2.782
 2451TIP3    H1 7317   0.154   4.779   2.759
 2451TIP3    H2 7318   0.050   4.770   2.868
 2452TIP3   OH2 7319   5.223   3.320   3.234
 2452TIP3    H1 7320   5.137   3.361   3.239
 2452TIP3    H2 7321   5.275   3.378   3.178
 2453TIP3   OH2 7322   7.065   1.511   3.847
 2453TIP3    H1 7323   7.157   1.484   3.850
 2453TIP3    H2 7324   7.033   1.479   3.762
 2454TIP3   OH2 7325   0.530   5.544   5.456
 2454TIP3    H1 7326   0.497   5.515   5.371
 2454TIP3    H2 7327   0.496   5.633   5.465
 2455TIP3   OH2 7328   1.955   0.689   0.304
 2455TIP3    H1 7329   2.038   0.723   0.272
 2455TIP3    H2 7330   1.951   0.599   0.270
 2456TIP3   OH2 7331   6.668   3.824   3.151
 2456TIP3    H1 7332   6.663   3.743   3.100
 2456TIP3    H2 7333   6.737   3.875   3.107
 2457TIP3   OH2 7334   2.666   0.578   4.071
 2457TIP3    H1 7335   2.639   0.640   4.139
 2457TIP3    H2 7336   2.721   0.515   4.117
 2458TIP3   OH2 7337   6.925   4.501   0.067
 2458TIP3    H1 7338   6.923   4.597   0.059
 2458TIP3    H2 7339   6.861   4.481   0.135
 2459TIP3   OH2 7340   4.153   0.758   4.983
 2459TIP3    H1 7341   4.146   0.789   4.893
 2459TIP3    H2 7342   4.073   0.788   5.026
 2460TIP3   OH2 7343   3.868   3.341   5.478
 2460TIP3    H1 7344   3.840   3.344   5.569
 2460TIP3    H2 7345   3.925   3.417   5.467
 2461TIP3   OH2 7346   3.271   1.361   2.538
 2461TIP3    H1 7347   3.307   1.295   2.479
 2461TIP3    H2 7348   3.315   1.345   2.622
 2462TIP3   OH2 7349   2.042   2.493   2.842
 2462TIP3    H1 7350   2.034   2.587   2.824
 2462TIP3    H2 7351   2.000   2.481   2.927
 2463TIP3   OH2 7352   3.531   3.743   0.678
 2463TIP3    H1 7353   3.446   3.752   0.636
 2463TIP3    H2 7354   3.572   3.829   0.668
 2464TIP3   OH2 7355   3.684   6.650   4.696
 2464TIP3    H1 7356   3.766   6.690   4.725
 2464TIP3    H2 7357   3.711   6.584   4.632
 2465TIP3   OH2 7358   3.314   1.198   1.893
 2465TIP3    H1 7359   3.237   1.232   1.939
 2465TIP3    H2 7360   3.278   1.138   1.829
 2466TIP3   OH2 7361   0.889   2.581   2.537
 2466TIP3    H1 7362   0.878   2.526   2.459
 2466TIP3    H2 7363   0.984   2.582   2.552
 2467TIP3   OH2 7364   2.757   2.861   3.208
 2467TIP3    H1 7365   2.826   2.828   3.152
 2467TIP3    H2 7366   2.700   2.911   3.149
 2468TIP3   OH2 7367   3.779   2.633   0.699
 2468TIP3    H1 7368   3.856   2.657   0.750
 2468TIP3    H2 7369   3.780   2.693   0.624
 2469TIP3   OH2 7370   4.717   3.235   2.841
 2469TIP3    H1 7371   4.688   3.291   2.913
 2469TIP3    H2 7372   4.703   3.145   2.873
 2470TIP3   OH2 7373   6.192   4.201   0.707
 2470TIP3    H1 7374   6.160   4.208   0.617
 2470TIP3    H2 7375   6.263   4.137   0.702
 2471TIP3   OH2 7376   4.845   3.716   3.835
 2471TIP3    H1 7377   4.892   3.634   3.848
 2471TIP3    H2 7378   4.900   3.766   3.775
 2472TIP3   OH2 7379   1.395   2.277   0.289
 2472TIP3    H1 7380   1.418   2.369   0.300
 2472TIP3    H2 7381   1.311   2.268   0.334
 2473TIP3   OH2 7382   5.253   3.991   4.419
 2473TIP3    H1 7383   5.175   3.936   4.418
 2473TIP3    H2 7384   5.326   3.930   4.412
 2474TIP3   OH2 7385   3.123   1.023   5.854
 2474TIP3    H1 7386   3.089   1.000   5.768
 2474TIP3    H2 7387   3.072   0.970   5.915
 2475TIP3   OH2 7388   4.713   2.492   3.324
 2475TIP3    H1 7389   4.765   2.412   3.311
 2475TIP3    H2 7390   4.775   2.556   3.357
 2476TIP3   OH2 7391   1.980   1.607   5.165
 2476TIP3    H1 7392   1.905   1.549   5.147
 2476TIP3    H2 7393   2.052   1.569   5.115
 2477TIP3   OH2 7394   3.312   6.386   5.756
 2477TIP3    H1 7395   3.240   6.430   5.710
 2477TIP3    H2 7396   3.378   6.372   5.689
 2478TIP3   OH2 7397   3.886   0.137   0.003
 2478TIP3    H1 7398   3.855   0.227   0.000
 2478TIP3    H2 7399   3.807   0.086   0.024
 2479TIP3   OH2 7400   3.587   5.164   5.082
 2479TIP3    H1 7401   3.507   5.173   5.135
 2479TIP3    H2 7402   3.623   5.253   5.078
 2480TIP3   OH2 7403   2.190   1.833   0.744
 2480TIP3    H1 7404   2.103   1.862   0.771
 2480TIP3    H2 7405   2.244   1.913   0.746
 2481TIP3   OH2 7406   4.780   0.679   3.275
 2481TIP3    H1 7407   4.753   0.620   3.346
 2481TIP3    H2 7408   4.712   0.669   3.209
 2482TIP3   OH2 7409   6.757   0.593   3.775
 2482TIP3    H1 7410   6.755   0.667   3.714
 2482TIP3    H2 7411   6.665   0.569   3.788
 2483TIP3   OH2 7412   5.852   0.076   0.390
 2483TIP3    H1 7413   5.828   0.092   0.299
 2483TIP3    H2 7414   5.946   0.089   0.393
 2484TIP3   OH2 7415   1.940   5.164   2.960
 2484TIP3    H1 7416   2.015   5.127   2.913
 2484TIP3    H2 7417   1.932   5.110   3.038
 2485TIP3   OH2 7418   6.336   0.274   0.958
 2485TIP3    H1 7419   6.419   0.228   0.968
 2485TIP3    H2 7420   6.273   0.206   0.934
 2486TIP3   OH2 7421   4.206   0.140   3.583
 2486TIP3    H1 7422   4.160   0.079   3.526
 2486TIP3    H2 7423   4.152   0.220   3.581
 2487TIP3   OH2 7424   7.141   4.134   4.190
 2487TIP3    H1 7425   7.150   4.051   4.237
 2487TIP3    H2 7426   7.132   4.200   4.260
 2488TIP3   OH2 7427   5.641   4.870   3.991
 2488TIP3    H1 7428   5.608   4.876   4.081
 2488TIP3    H2 7429   5.633   4.777   3.970
 2489TIP3   OH2 7430   4.823   6.601   1.420
 2489TIP3    H1 7431   4.906   6.614   1.466
 2489TIP3    H2 7432   4.831   6.515   1.380
 2490TIP3   OH2 7433   6.870   4.756   4.970
 2490TIP3    H1 7434   6.825   4.840   4.963
 2490TIP3    H2 7435   6.801   4.691   4.957
 2491TIP3   OH2 7436   5.612   5.884   0.823
 2491TIP3    H1 7437   5.659   5.824   0.881
 2491TIP3    H2 7438   5.527   5.842   0.810
 2492TIP3   OH2 7439   6.453   6.406   1.287
 2492TIP3    H1 7440   6.407   6.323   1.286
 2492TIP3    H2 7441   6.387   6.470   1.314
 2493TIP3   OH2 7442   4.005   6.710   0.295
 2493TIP3    H1 7443   3.960   6.629   0.319
 2493TIP3    H2 7444   3.943   6.779   0.315
 2494TIP3   OH2 7445   4.757   1.780   0.922
 2494TIP3    H1 7446   4.847   1.752   0.938
 2494TIP3    H2 7447   4.761   1.832   0.841
 2495TIP3   OH2 7448   1.441   3.133   0.734
 2495TIP3    H1 7449   1.522   3.107   0.776
 2495TIP3    H2 7450   1.399   3.049   0.710
 2496TIP3   OH2 7451   5.042   4.092   1.201
 2496TIP3    H1 7452   5.013   4.084   1.292
 2496TIP3    H2 7453   4.961   4.085   1.150
 2497TIP3   OH2 7454   5.395   5.479   3.081
 2497TIP3    H1 7455   5.368   5.532   3.157
 2497TIP3    H2 7456   5.456   5.535   3.033
 2498TIP3   OH2 7457   6.204   4.785   5.624
 2498TIP3    H1 7458   6.149   4.846   5.575
 2498TIP3    H2 7459   6.292   4.820   5.617
 2499TIP3   OH2 7460   0.347   1.086   2.792
 2499TIP3    H1 7461   0.299   1.031   2.731
 2499TIP3    H2 7462   0.432   1.100   2.750
 2500TIP3   OH2 7463   4.959   1.199   2.380
 2500TIP3    H1 7464   5.014   1.122   2.394
 2500TIP3    H2 7465   4.870   1.168   2.393
 2501TIP3   OH2 7466   4.414   1.423   0.519
 2501TIP3    H1 7467   4.397   1.517   0.518
 2501TIP3    H2 7468   4.392   1.395   0.608
 2502TIP3   OH2 7469   3.859   5.668   0.905
 2502TIP3    H1 7470   3.927   5.664   0.838
 2502TIP3    H2 7471   3.799   5.597   0.882
 2503TIP3   OH2 7472   4.258   3.684   1.349
 2503TIP3    H1 7473   4.202   3.761   1.342
 2503TIP3    H2 7474   4.342   3.711   1.312
 2504TIP3   OH2 7475   6.080   6.645   5.832
 2504TIP3    H1 7476   6.164   6.680   5.862
 2504TIP3    H2 7477   6.104   6.569   5.778
 2505TIP3   OH2 7478   6.938   3.194   3.856
 2505TIP3    H1 7479   6.984   3.263   3.905
 2505TIP3    H2 7480   6.867   3.167   3.915
 2506TIP3   OH2 7481   5.540   3.436   1.729
 2506TIP3    H1 7482   5.485   3.439   1.807
 2506TIP3    H2 7483   5.621   3.394   1.758
 2507TIP3   OH2 7484   5.037   2.025   0.058
 2507TIP3    H1 7485   4.978   1.950   0.072
 2507TIP3    H2 7486   5.093   2.026   0.136
 2508TIP3   OH2 7487   6.845   4.526   0.796
 2508TIP3    H1 7488   6.785   4.466   0.751
 2508TIP3    H2 7489   6.854   4.600   0.736
 2509TIP3   OH2 7490   4.998   6.299   4.732
 2509TIP3    H1 7491   4.956   6.377   4.769
 2509TIP3    H2 7492   5.023   6.247   4.809
 2510TIP3   OH2 7493   6.255   6.549   3.369
 2510TIP3    H1 7494   6.244   6.621   3.307
 2510TIP3    H2 7495   6.315   6.488   3.326
 2511TIP3   OH2 7496   2.518   6.040   2.831
 2511TIP3    H1 7497   2.516   5.999   2.918
 2511TIP3    H2 7498   2.439   6.094   2.829
 2512TIP3   OH2 7499   4.009   1.693   1.156
 2512TIP3    H1 7500   3.936   1.754   1.149
 2512TIP3    H2 7501   4.067   1.733   1.221
 2513TIP3   OH2 7502   2.761   0.747   4.397
 2513TIP3    H1 7503   2.758   0.813   4.466
 2513TIP3    H2 7504   2.690   0.771   4.337
 2514TIP3   OH2 7505   5.769   0.416   0.329
 2514TIP3    H1 7506   5.679   0.399   0.358
 2514TIP3    H2 7507   5.796   0.494   0.376
 2515TIP3   OH2 7508   0.813   0.457   4.128
 2515TIP3    H1 7509   0.857   0.537   4.101
 2515TIP3    H2 7510   0.804   0.466   4.223
 2516TIP3   OH2 7511   2.690   4.945   4.110
 2516TIP3    H1 7512   2.625   4.889   4.153
 2516TIP3    H2 7513   2.688   4.916   4.019
 2517TIP3   OH2 7514   4.771   0.749   3.875
 2517TIP3    H1 7515   4.796   0.659   3.894
 2517TIP3    H2 7516   4.837   0.780   3.812
 2518TIP3   OH2 7517   4.322   0.601   0.374
 2518TIP3    H1 7518   4.251   0.555   0.330
 2518TIP3    H2 7519   4.388   0.615   0.307
 2519TIP3   OH2 7520   6.593   3.317   2.115
 2519TIP3    H1 7521   6.618   3.224   2.119
 2519TIP3    H2 7522   6.675   3.364   2.105
 2520TIP3   OH2 7523   6.351   0.837   1.072
 2520TIP3    H1 7524   6.268   0.794   1.049
 2520TIP3    H2 7525   6.383   0.872   0.989
 2521TIP3   OH2 7526   2.594   4.480   3.149
 2521TIP3    H1 7527   2.649   4.402   3.157
 2521TIP3    H2 7528   2.561   4.496   3.238
 2522TIP3   OH2 7529   4.491   6.020   5.074
 2522TIP3    H1 7530   4.416   6.025   5.015
 2522TIP3    H2 7531   4.516   5.928   5.073
 2523TIP3   OH2 7532   3.720   5.788   4.826
 2523TIP3    H1 7533   3.742   5.700   4.794
 2523TIP3    H2 7534   3.627   5.798   4.807
 2524TIP3   OH2 7535   4.869   3.187   1.256
 2524TIP3    H1 7536   4.778   3.177   1.283
 2524TIP3    H2 7537   4.917   3.194   1.338
 2525TIP3   OH2 7538   2.009   3.549   4.980
 2525TIP3    H1 7539   2.053   3.629   4.951
 2525TIP3    H2 7540   1.987   3.566   5.072
 2526TIP3   OH2 7541   2.858   3.732   4.122
 2526TIP3    H1 7542   2.895   3.654   4.163
 2526TIP3    H2 7543   2.883   3.803   4.181
 2527TIP3   OH2 7544   2.811   4.330   4.819
 2527TIP3    H1 7545   2.776   4.266   4.758
 2527TIP3    H2 7546   2.821   4.410   4.767
 2528TIP3   OH2 7547   0.282   4.619   1.509
 2528TIP3    H1 7548   0.333   4.656   1.437
 2528TIP3    H2 7549   0.221   4.559   1.467
 2529TIP3   OH2 7550   2.912   6.516   2.952
 2529TIP3    H1 7551   2.957   6.568   3.018
 2529TIP3    H2 7552   2.916   6.426   2.986
 2530TIP3   OH2 7553   6.674   2.532   3.359
 2530TIP3    H1 7554   6.750   2.590   3.350
 2530TIP3    H2 7555   6.686   2.466   3.291
 2531TIP3   OH2 7556   4.724   2.465   0.113
 2531TIP3    H1 7557   4.706   2.375   0.084
 2531TIP3    H2 7558   4.676   2.520   0.052
 2532TIP3   OH2 7559   6.264   4.975   4.487
 2532TIP3    H1 7560   6.266   4.944   4.396
 2532TIP3    H2 7561   6.335   5.038   4.492
 2533TIP3   OH2 7562   6.104   6.012   4.717
 2533TIP3    H1 7563   6.092   5.917   4.715
 2533TIP3    H2 7564   6.019   6.047   4.742
 2534TIP3   OH2 7565   6.019   4.689   2.138
 2534TIP3    H1 7566   6.072   4.767   2.124
 2534TIP3    H2 7567   5.945   4.699   2.079
 2535TIP3   OH2 7568   4.557   5.510   2.451
 2535TIP3    H1 7569   4.590   5.598   2.465
 2535TIP3    H2 7570   4.511   5.488   2.532
 2536TIP3   OH2 7571   0.339   4.544   3.515
 2536TIP3    H1 7572   0.410   4.535   3.579
 2536TIP3    H2 7573   0.264   4.502   3.557
 2537TIP3   OH2 7574   3.499   2.445   3.268
 2537TIP3    H1 7575   3.520   2.512   3.203
 2537TIP3    H2 7576   3.565   2.455   3.336
 2538TIP3   OH2 7577   0.627   2.543   0.686
 2538TIP3    H1 7578   0.619   2.461   0.639
 2538TIP3    H2 7579   0.580   2.529   0.768
 2539TIP3   OH2 7580   2.298   4.128   3.876
 2539TIP3    H1 7581   2.253   4.055   3.917
 2539TIP3    H2 7582   2.230   4.173   3.826
 2540TIP3   OH2 7583   0.201   4.068   3.609
 2540TIP3    H1 7584   0.143   3.995   3.588
 2540TIP3    H2 7585   0.212   4.115   3.527
 2541TIP3   OH2 7586   2.704   1.736   2.911
 2541TIP3    H1 7587   2.785   1.685   2.915
 2541TIP3    H2 7588   2.708   1.782   2.827
 2542TIP3   OH2 7589   1.750   2.320   2.248
 2542TIP3    H1 7590   1.680   2.301   2.311
 2542TIP3    H2 7591   1.830   2.319   2.301
 2543TIP3   OH2 7592   1.836   3.680   2.950
 2543TIP3    H1 7593   1.786   3.637   3.020
 2543TIP3    H2 7594   1.911   3.719   2.994
 2544TIP3   OH2 7595   3.344   1.728   3.523
 2544TIP3    H1 7596   3.270   1.772   3.565
 2544TIP3    H2 7597   3.321   1.727   3.430
 2545TIP3   OH2 7598   5.271   1.084   5.479
 2545TIP3    H1 7599   5.222   1.152   5.433
 2545TIP3    H2 7600   5.289   1.122   5.565
 2546TIP3   OH2 7601   0.865   0.483   3.402
 2546TIP3    H1 7602   0.843   0.575   3.387
 2546TIP3    H2 7603   0.887   0.449   3.315
 2547TIP3   OH2 7604   3.159   4.677   1.894
 2547TIP3    H1 7605   3.169   4.663   1.988
 2547TIP3    H2 7606   3.074   4.638   1.873
 2548TIP3   OH2 7607   0.458   0.719   0.084
 2548TIP3    H1 7608   0.400   0.687   0.153
 2548TIP3    H2 7609   0.426   0.806   0.063
 2549TIP3   OH2 7610   3.245   4.188   4.805
 2549TIP3    H1 7611   3.227   4.260   4.744
 2549TIP3    H2 7612   3.338   4.195   4.824
 2550TIP3   OH2 7613   6.917   5.233   3.090
 2550TIP3    H1 7614   6.912   5.329   3.087
 2550TIP3    H2 7615   7.010   5.214   3.101
 2551TIP3   OH2 7616   3.501   3.107   4.574
 2551TIP3    H1 7617   3.471   3.154   4.652
 2551TIP3    H2 7618   3.426   3.110   4.514
 2552TIP3   OH2 7619   2.776   0.493   5.656
 2552TIP3    H1 7620   2.821   0.434   5.716
 2552TIP3    H2 7621   2.728   0.435   5.596
 2553TIP3   OH2 7622   4.500   1.649   2.789
 2553TIP3    H1 7623   4.491   1.670   2.696
 2553TIP3    H2 7624   4.593   1.630   2.800
 2554TIP3   OH2 7625   1.831   0.717   5.730
 2554TIP3    H1 7626   1.819   0.677   5.816
 2554TIP3    H2 7627   1.832   0.811   5.748
 2555TIP3   OH2 7628   3.866   1.945   3.942
 2555TIP3    H1 7629   3.890   2.032   3.973
 2555TIP3    H2 7630   3.943   1.916   3.893
 2556TIP3   OH2 7631   2.724   6.018   4.766
 2556TIP3    H1 7632   2.759   5.932   4.745
 2556TIP3    H2 7633   2.694   6.053   4.682
 2557TIP3   OH2 7634   0.377   1.556   0.555
 2557TIP3    H1 7635   0.342   1.612   0.625
 2557TIP3    H2 7636   0.333   1.587   0.476
 2558TIP3   OH2 7637   6.731   0.675   5.731
 2558TIP3    H1 7638   6.824   0.653   5.723
 2558TIP3    H2 7639   6.715   0.676   5.825
 2559TIP3   OH2 7640   1.547   0.379   4.260
 2559TIP3    H1 7641   1.608   0.310   4.235
 2559TIP3    H2 7642   1.499   0.399   4.179
 2560TIP3   OH2 7643   4.925   0.472   1.474
 2560TIP3    H1 7644   4.920   0.388   1.429
 2560TIP3    H2 7645   4.869   0.461   1.551
 2561TIP3   OH2 7646   3.359   6.196   0.165
 2561TIP3    H1 7647   3.427   6.134   0.139
 2561TIP3    H2 7648   3.312   6.216   0.084
 2562TIP3   OH2 7649   1.032   2.454   4.785
 2562TIP3    H1 7650   1.039   2.366   4.823
 2562TIP3    H2 7651   0.941   2.459   4.755
 2563TIP3   OH2 7652   2.215   2.142   1.107
 2563TIP3    H1 7653   2.221   2.216   1.168
 2563TIP3    H2 7654   2.200   2.182   1.022
 2564TIP3   OH2 7655   4.773   1.007   1.505
 2564TIP3    H1 7656   4.817   1.043   1.428
 2564TIP3    H2 7657   4.764   0.913   1.486
 2565TIP3   OH2 7658   2.881   6.060   0.823
 2565TIP3    H1 7659   2.956   6.092   0.874
 2565TIP3    H2 7660   2.852   5.982   0.870
 2566TIP3   OH2 7661   7.183   1.842   0.579
 2566TIP3    H1 7662   7.245   1.894   0.529
 2566TIP3    H2 7663   7.119   1.905   0.612
 2567TIP3   OH2 7664   0.099   2.242   3.472
 2567TIP3    H1 7665   0.129   2.215   3.385
 2567TIP3    H2 7666   0.039   2.173   3.499
 2568TIP3   OH2 7667   0.164   1.957   1.687
 2568TIP3    H1 7668   0.080   1.978   1.729
 2568TIP3    H2 7669   0.216   2.037   1.697
 2569TIP3   OH2 7670   1.298   2.709   1.401
 2569TIP3    H1 7671   1.244   2.660   1.464
 2569TIP3    H2 7672   1.236   2.747   1.340
 2570TIP3   OH2 7673   5.472   2.467   2.896
 2570TIP3    H1 7674   5.380   2.442   2.910
 2570TIP3    H2 7675   5.471   2.563   2.895
 2571TIP3   OH2 7676   2.906   0.556   4.791
 2571TIP3    H1 7677   2.921   0.480   4.847
 2571TIP3    H2 7678   2.833   0.530   4.735
 2572TIP3   OH2 7679   5.518   4.606   2.892
 2572TIP3    H1 7680   5.459   4.631   2.963
 2572TIP3    H2 7681   5.606   4.618   2.928
 2573TIP3   OH2 7682   7.016   0.238   3.847
 2573TIP3    H1 7683   6.948   0.175   3.823
 2573TIP3    H2 7684   7.056   0.263   3.764
 2574TIP3   OH2 7685   0.806   2.100   3.801
 2574TIP3    H1 7686   0.900   2.105   3.787
 2574TIP3    H2 7687   0.787   2.007   3.810
 2575TIP3   OH2 7688   5.620   2.871   0.199
 2575TIP3    H1 7689   5.544   2.823   0.167
 2575TIP3    H2 7690   5.694   2.829   0.156
 2576TIP3   OH2 7691   6.557   0.290   4.232
 2576TIP3    H1 7692   6.626   0.310   4.295
 2576TIP3    H2 7693   6.600   0.238   4.164
 2577TIP3   OH2 7694   0.929   5.250   2.744
 2577TIP3    H1 7695   1.021   5.244   2.768
 2577TIP3    H2 7696   0.884   5.265   2.827
 2578TIP3   OH2 7697   6.740   3.042   0.147
 2578TIP3    H1 7698   6.706   3.062   0.060
 2578TIP3    H2 7699   6.683   3.090   0.207
 2579TIP3   OH2 7700   1.807   4.856   2.651
 2579TIP3    H1 7701   1.713   4.858   2.635
 2579TIP3    H2 7702   1.820   4.915   2.725
 2580TIP3   OH2 7703   5.738   2.946   1.067
 2580TIP3    H1 7704   5.670   3.001   1.107
 2580TIP3    H2 7705   5.750   2.982   0.979
 2581TIP3   OH2 7706   6.981   6.669   4.153
 2581TIP3    H1 7707   7.049   6.685   4.087
 2581TIP3    H2 7708   7.000   6.731   4.223
 2582TIP3   OH2 7709   3.950   5.041   4.001
 2582TIP3    H1 7710   3.880   4.987   4.038
 2582TIP3    H2 7711   3.910   5.085   3.926
 2583TIP3   OH2 7712   1.720   4.875   0.293
 2583TIP3    H1 7713   1.687   4.816   0.226
 2583TIP3    H2 7714   1.696   4.834   0.376
 2584TIP3   OH2 7715   4.088   6.255   2.436
 2584TIP3    H1 7716   4.085   6.160   2.446
 2584TIP3    H2 7717   4.001   6.285   2.463
 2585TIP3   OH2 7718   4.285   0.453   2.758
 2585TIP3    H1 7719   4.363   0.413   2.798
 2585TIP3    H2 7720   4.289   0.545   2.785
 2586TIP3   OH2 7721   5.821   4.591   1.158
 2586TIP3    H1 7722   5.767   4.669   1.143
 2586TIP3    H2 7723   5.891   4.620   1.216
 2587TIP3   OH2 7724   4.136   3.638   3.390
 2587TIP3    H1 7725   4.069   3.630   3.458
 2587TIP3    H2 7726   4.157   3.547   3.367
 2588TIP3   OH2 7727   1.863   1.031   4.636
 2588TIP3    H1 7728   1.876   1.054   4.728
 2588TIP3    H2 7729   1.769   1.043   4.622
 2589TIP3   OH2 7730   5.727   2.451   2.873
 2589TIP3    H1 7731   5.760   2.388   2.937
 2589TIP3    H2 7732   5.631   2.447   2.882
 2590TIP3   OH2 7733   6.738   0.571   3.107
 2590TIP3    H1 7734   6.712   0.514   3.179
 2590TIP3    H2 7735   6.756   0.512   3.034
 2591TIP3   OH2 7736   5.972   6.229   3.857
 2591TIP3    H1 7737   6.040   6.252   3.920
 2591TIP3    H2 7738   5.983   6.135   3.843
 2592TIP3   OH2 7739   5.322   3.713   3.531
 2592TIP3    H1 7740   5.333   3.780   3.598
 2592TIP3    H2 7741   5.238   3.732   3.491
 2593TIP3   OH2 7742   1.603   6.022   5.761
 2593TIP3    H1 7743   1.516   5.993   5.735
 2593TIP3    H2 7744   1.588   6.104   5.809
 2594TIP3   OH2 7745   5.991   4.395   0.269
 2594TIP3    H1 7746   6.038   4.425   0.347
 2594TIP3    H2 7747   5.899   4.398   0.293
 2595TIP3   OH2 7748   1.420   5.600   3.231
 2595TIP3    H1 7749   1.363   5.568   3.301
 2595TIP3    H2 7750   1.439   5.690   3.255
 2596TIP3   OH2 7751   2.404   2.527   5.052
 2596TIP3    H1 7752   2.351   2.555   4.977
 2596TIP3    H2 7753   2.450   2.449   5.021
 2597TIP3   OH2 7754   4.443   2.004   3.723
 2597TIP3    H1 7755   4.458   1.912   3.701
 2597TIP3    H2 7756   4.505   2.051   3.668
 2598TIP3   OH2 7757   6.282   6.149   0.152
 2598TIP3    H1 7758   6.236   6.083   0.203
 2598TIP3    H2 7759   6.284   6.226   0.209
 2599TIP3   OH2 7760   2.809   6.207   5.861
 2599TIP3    H1 7761   2.862   6.253   5.927
 2599TIP3    H2 7762   2.852   6.227   5.778
 2600TIP3   OH2 7763   4.361   2.431   1.792
 2600TIP3    H1 7764   4.409   2.384   1.861
 2600TIP3    H2 7765   4.276   2.387   1.787
 2601TIP3   OH2 7766   3.172   6.763   0.807
 2601TIP3    H1 7767   3.260   6.737   0.836
 2601TIP3    H2 7768   3.184   6.785   0.715
 2602TIP3   OH2 7769   2.359   1.672   2.691
 2602TIP3    H1 7770   2.368   1.709   2.779
 2602TIP3    H2 7771   2.402   1.735   2.633
 2603TIP3   OH2 7772   0.841   0.178   4.621
 2603TIP3    H1 7773   0.794   0.259   4.645
 2603TIP3    H2 7774   0.915   0.209   4.570
 2604TIP3   OH2 7775   5.152   4.723   2.973
 2604TIP3    H1 7776   5.118   4.657   3.034
 2604TIP3    H2 7777   5.192   4.789   3.029
 2605TIP3   OH2 7778   6.159   5.041   4.218
 2605TIP3    H1 7779   6.239   5.092   4.208
 2605TIP3    H2 7780   6.162   4.976   4.148
 2606TIP3   OH2 7781   5.371   5.814   0.150
 2606TIP3    H1 7782   5.455   5.791   0.110
 2606TIP3    H2 7783   5.379   5.786   0.241
 2607TIP3   OH2 7784   6.819   2.161   0.298
 2607TIP3    H1 7785   6.804   2.127   0.387
 2607TIP3    H2 7786   6.908   2.196   0.301
 2608TIP3   OH2 7787   2.413   3.479   1.425
 2608TIP3    H1 7788   2.477   3.408   1.431
 2608TIP3    H2 7789   2.328   3.435   1.437
 2609TIP3   OH2 7790   1.531   5.320   4.815
 2609TIP3    H1 7791   1.616   5.314   4.858
 2609TIP3    H2 7792   1.481   5.381   4.869
 2610TIP3   OH2 7793   4.254   2.530   4.568
 2610TIP3    H1 7794   4.315   2.486   4.627
 2610TIP3    H2 7795   4.225   2.462   4.508
 2611TIP3   OH2 7796   3.543   1.873   0.557
 2611TIP3    H1 7797   3.460   1.832   0.580
 2611TIP3    H2 7798   3.610   1.811   0.585
 2612TIP3   OH2 7799   1.380   2.179   1.251
 2612TIP3    H1 7800   1.380   2.106   1.189
 2612TIP3    H2 7801   1.355   2.255   1.199
 2613TIP3   OH2 7802   0.598   3.394   5.849
 2613TIP3    H1 7803   0.528   3.350   5.896
 2613TIP3    H2 7804   0.556   3.467   5.805
 2614TIP3   OH2 7805   7.071   1.114   2.869
 2614TIP3    H1 7806   7.076   1.019   2.866
 2614TIP3    H2 7807   6.983   1.133   2.901
 2615TIP3   OH2 7808   5.587   1.419   1.147
 2615TIP3    H1 7809   5.544   1.387   1.226
 2615TIP3    H2 7810   5.618   1.340   1.102
 2616TIP3   OH2 7811   0.664   4.573   4.578
 2616TIP3    H1 7812   0.610   4.623   4.517
 2616TIP3    H2 7813   0.631   4.483   4.571
 2617TIP3   OH2 7814   1.395   0.609   1.901
 2617TIP3    H1 7815   1.325   0.619   1.836
 2617TIP3    H2 7816   1.393   0.691   1.951
 2618TIP3   OH2 7817   4.678   1.968   0.169
 2618TIP3    H1 7818   4.640   1.905   0.107
 2618TIP3    H2 7819   4.769   1.941   0.178
 2619TIP3   OH2 7820   4.122   1.874   3.714
 2619TIP3    H1 7821   4.123   1.840   3.624
 2619TIP3    H2 7822   4.136   1.968   3.704
 2620TIP3   OH2 7823   7.030   2.102   1.404
 2620TIP3    H1 7824   7.085   2.026   1.420
 2620TIP3    H2 7825   6.948   2.066   1.371
 2621TIP3   OH2 7826   0.441   5.276   5.667
 2621TIP3    H1 7827   0.480   5.354   5.707
 2621TIP3    H2 7828   0.447   5.210   5.736
 2622TIP3   OH2 7829   6.810   2.592   1.953
 2622TIP3    H1 7830   6.818   2.687   1.949
 2622TIP3    H2 7831   6.719   2.574   1.931
 2623TIP3   OH2 7832   0.372   2.230   1.412
 2623TIP3    H1 7833   0.464   2.257   1.404
 2623TIP3    H2 7834   0.364   2.200   1.503
 2624TIP3   OH2 7835   2.057   5.484   2.293
 2624TIP3    H1 7836   2.018   5.397   2.299
 2624TIP3    H2 7837   2.112   5.481   2.215
 2625TIP3   OH2 7838   7.011   2.585   3.142
 2625TIP3    H1 7839   7.039   2.654   3.082
 2625TIP3    H2 7840   6.959   2.630   3.209
 2626TIP3   OH2 7841   2.511   1.551   2.948
 2626TIP3    H1 7842   2.547   1.639   2.938
 2626TIP3    H2 7843   2.558   1.499   2.883
 2627TIP3   OH2 7844   0.516   6.066   3.972
 2627TIP3    H1 7845   0.585   6.076   4.038
 2627TIP3    H2 7846   0.549   6.113   3.895
 2628TIP3   OH2 7847   1.171   1.027   5.587
 2628TIP3    H1 7848   1.219   0.952   5.622
 2628TIP3    H2 7849   1.087   1.024   5.633
 2629TIP3   OH2 7850   2.647   3.800   1.991
 2629TIP3    H1 7851   2.671   3.809   2.083
 2629TIP3    H2 7852   2.559   3.839   1.985
 2630TIP3   OH2 7853   1.710   6.326   0.632
 2630TIP3    H1 7854   1.757   6.409   0.622
 2630TIP3    H2 7855   1.618   6.351   0.631
 2631TIP3   OH2 7856   1.446   0.486   5.098
 2631TIP3    H1 7857   1.437   0.402   5.144
 2631TIP3    H2 7858   1.540   0.492   5.080
 2632TIP3   OH2 7859   3.701   1.896   4.155
 2632TIP3    H1 7860   3.730   1.919   4.243
 2632TIP3    H2 7861   3.757   1.947   4.097
 2633TIP3   OH2 7862   0.386   1.070   4.441
 2633TIP3    H1 7863   0.363   1.073   4.534
 2633TIP3    H2 7864   0.424   0.984   4.428
 2634TIP3   OH2 7865   6.771   6.217   1.091
 2634TIP3    H1 7866   6.816   6.133   1.083
 2634TIP3    H2 7867   6.770   6.235   1.185
 2635TIP3   OH2 7868   0.330   0.424   5.699
 2635TIP3    H1 7869   0.235   0.421   5.707
 2635TIP3    H2 7870   0.356   0.499   5.753
 2636TIP3   OH2 7871   0.397   3.046   3.407
 2636TIP3    H1 7872   0.336   3.009   3.343
 2636TIP3    H2 7873   0.349   3.042   3.490
 2637TIP3   OH2 7874   7.045   6.334   4.265
 2637TIP3    H1 7875   7.069   6.296   4.350
 2637TIP3    H2 7876   7.105   6.408   4.254
 2638TIP3   OH2 7877   5.108   3.493   2.240
 2638TIP3    H1 7878   5.070   3.503   2.327
 2638TIP3    H2 7879   5.141   3.403   2.238
 2639TIP3   OH2 7880   1.948   2.556   3.126
 2639TIP3    H1 7881   1.853   2.553   3.123
 2639TIP3    H2 7882   1.968   2.642   3.162
 2640TIP3   OH2 7883   6.684   4.679   0.192
 2640TIP3    H1 7884   6.643   4.725   0.265
 2640TIP3    H2 7885   6.655   4.588   0.201
 2641TIP3   OH2 7886   5.312   4.989   0.715
 2641TIP3    H1 7887   5.325   5.078   0.684
 2641TIP3    H2 7888   5.256   4.998   0.792
 2642TIP3   OH2 7889   0.494   2.774   1.173
 2642TIP3    H1 7890   0.532   2.743   1.255
 2642TIP3    H2 7891   0.493   2.696   1.117
 2643TIP3   OH2 7892   5.098   0.503   1.808
 2643TIP3    H1 7893   5.169   0.524   1.747
 2643TIP3    H2 7894   5.106   0.409   1.821
 2644TIP3   OH2 7895   6.365   0.923   4.456
 2644TIP3    H1 7896   6.322   1.001   4.491
 2644TIP3    H2 7897   6.458   0.944   4.456
 2645TIP3   OH2 7898   4.379   4.876   2.661
 2645TIP3    H1 7899   4.460   4.906   2.620
 2645TIP3    H2 7900   4.408   4.811   2.725
 2646TIP3   OH2 7901   4.100   1.702   2.287
 2646TIP3    H1 7902   4.017   1.693   2.240
 2646TIP3    H2 7903   4.139   1.614   2.284
 2647TIP3   OH2 7904   3.608   3.795   1.519
 2647TIP3    H1 7905   3.665   3.747   1.579
 2647TIP3    H2 7906   3.584   3.731   1.452
 2648TIP3   OH2 7907   4.660   1.271   5.268
 2648TIP3    H1 7908   4.745   1.235   5.242
 2648TIP3    H2 7909   4.596   1.224   5.213
 2649TIP3   OH2 7910   5.038   6.407   1.934
 2649TIP3    H1 7911   5.125   6.370   1.949
 2649TIP3    H2 7912   5.055   6.494   1.897
 2650TIP3   OH2 7913   3.919   5.424   0.557
 2650TIP3    H1 7914   3.869   5.361   0.505
 2650TIP3    H2 7915   3.958   5.372   0.627
 2651TIP3   OH2 7916   6.130   0.554   3.363
 2651TIP3    H1 7917   6.118   0.502   3.443
 2651TIP3    H2 7918   6.223   0.574   3.360
 2652TIP3   OH2 7919   6.165   3.142   1.841
 2652TIP3    H1 7920   6.147   3.166   1.750
 2652TIP3    H2 7921   6.083   3.161   1.887
 2653TIP3   OH2 7922   6.620   6.525   0.194
 2653TIP3    H1 7923   6.711   6.537   0.223
 2653TIP3    H2 7924   6.626   6.519   0.098
 2654TIP3   OH2 7925   2.954   3.423   2.708
 2654TIP3    H1 7926   2.904   3.356   2.755
 2654TIP3    H2 7927   2.995   3.376   2.636
 2655TIP3   OH2 7928   6.889   4.227   1.653
 2655TIP3    H1 7929   6.809   4.279   1.647
 2655TIP3    H2 7930   6.927   4.233   1.566
 2656TIP3   OH2 7931   0.883   3.507   1.725
 2656TIP3    H1 7932   0.887   3.564   1.649
 2656TIP3    H2 7933   0.839   3.427   1.694
 2657TIP3   OH2 7934   0.442   5.590   3.680
 2657TIP3    H1 7935   0.480   5.602   3.767
 2657TIP3    H2 7936   0.382   5.664   3.670
 2658TIP3   OH2 7937   1.937   0.084   5.003
 2658TIP3    H1 7938   1.933   0.084   4.907
 2658TIP3    H2 7939   2.009   0.025   5.024
 2659TIP3   OH2 7940   1.768   3.009   1.496
 2659TIP3    H1 7941   1.685   2.962   1.500
 2659TIP3    H2 7942   1.744   3.101   1.482
 2660TIP3   OH2 7943   5.567   2.267   0.659
 2660TIP3    H1 7944   5.633   2.336   0.666
 2660TIP3    H2 7945   5.612   2.194   0.617
 2661TIP3   OH2 7946   1.661   3.947   0.926
 2661TIP3    H1 7947   1.595   3.968   0.993
 2661TIP3    H2 7948   1.729   3.898   0.974
 2662TIP3   OH2 7949   5.468   2.911   4.775
 2662TIP3    H1 7950   5.389   2.956   4.808
 2662TIP3    H2 7951   5.481   2.838   4.836
 2663TIP3   OH2 7952   3.113   5.771   3.911
 2663TIP3    H1 7953   3.144   5.753   3.823
 2663TIP3    H2 7954   3.092   5.685   3.948
 2664TIP3   OH2 7955   5.733   0.660   0.695
 2664TIP3    H1 7956   5.828   0.667   0.686
 2664TIP3    H2 7957   5.699   0.665   0.606
 2665TIP3   OH2 7958   2.196   6.335   5.410
 2665TIP3    H1 7959   2.254   6.379   5.348
 2665TIP3    H2 7960   2.233   6.247   5.420
 2666TIP3   OH2 7961   5.344   0.333   5.494
 2666TIP3    H1 7962   5.415   0.298   5.439
 2666TIP3    H2 7963   5.377   0.417   5.525
 2667TIP3   OH2 7964   4.557   0.877   4.018
 2667TIP3    H1 7965   4.634   0.829   3.989
 2667TIP3    H2 7966   4.558   0.868   4.114
 2668TIP3   OH2 7967   6.717   2.705   4.506
 2668TIP3    H1 7968   6.663   2.781   4.483
 2668TIP3    H2 7969   6.766   2.733   4.583
 2669TIP3   OH2 7970   3.224   2.361   5.898
 2669TIP3    H1 7971   3.269   2.317   5.970
 2669TIP3    H2 7972   3.216   2.293   5.831
 2670TIP3   OH2 7973   2.293   0.410   1.564
 2670TIP3    H1 7974   2.207   0.448   1.585
 2670TIP3    H2 7975   2.300   0.335   1.622
 2671TIP3   OH2 7976   1.783   3.597   1.384
 2671TIP3    H1 7977   1.710   3.540   1.406
 2671TIP3    H2 7978   1.837   3.597   1.463
 2672TIP3   OH2 7979   0.941   6.476   3.667
 2672TIP3    H1 7980   0.931   6.567   3.694
 2672TIP3    H2 7981   0.880   6.427   3.723
 2673TIP3   OH2 7982   4.953   4.919   3.791
 2673TIP3    H1 7983   5.023   4.867   3.831
 2673TIP3    H2 7984   4.894   4.938   3.863
 2674TIP3   OH2 7985   3.217   0.213   3.190
 2674TIP3    H1 7986   3.301   0.168   3.181
 2674TIP3    H2 7987   3.193   0.237   3.100
 2675TIP3   OH2 7988   3.512   5.403   0.490
 2675TIP3    H1 7989   3.488   5.316   0.460
 2675TIP3    H2 7990   3.576   5.388   0.559
 2676TIP3   OH2 7991   6.748   6.573   4.062
 2676TIP3    H1 7992   6.838   6.601   4.080
 2676TIP3    H2 7993   6.755   6.479   4.047
 2677TIP3   OH2 7994   6.346   3.708   4.822
 2677TIP3    H1 7995   6.374   3.732   4.733
 2677TIP3    H2 7996   6.395   3.628   4.842
 2678TIP3   OH2 7997   6.518   1.924   0.629
 2678TIP3    H1 7998   6.564   1.909   0.546
 2678TIP3    H2 7999   6.495   2.017   0.626
 2679TIP3   OH2 8000   3.947   6.646   4.748
 2679TIP3    H1 8001   3.989   6.607   4.824
 2679TIP3    H2 8002   3.976   6.593   4.674
 2680TIP3   OH2 8003   5.755   3.724   1.472
 2680TIP3    H1 8004   5.692   3.783   1.513
 2680TIP3    H2 8005   5.803   3.780   1.411
 2681TIP3   OH2 8006   3.316   4.749   0.459
 2681TIP3    H1 8007   3.366   4.691   0.402
 2681TIP3    H2 8008   3.338   4.720   0.548
 2682TIP3   OH2 8009   2.077   3.631   1.336
 2682TIP3    H1 8010   2.118   3.595   1.257
 2682TIP3    H2 8011   1.986   3.600   1.331
 2683TIP3   OH2 8012   5.723   6.709   1.641
 2683TIP3    H1 8013   5.788   6.651   1.603
 2683TIP3    H2 8014   5.697   6.767   1.569
 2684TIP3   OH2 8015   6.780   0.351   5.054
 2684TIP3    H1 8016   6.782   0.423   5.117
 2684TIP3    H2 8017   6.780   0.393   4.968
 2685TIP3   OH2 8018   3.527   6.742   3.293
 2685TIP3    H1 8019   3.441   6.743   3.334
 2685TIP3    H2 8020   3.509   6.750   3.199
 2686TIP3   OH2 8021   3.784   5.762   5.883
 2686TIP3    H1 8022   3.803   5.717   5.800
 2686TIP3    H2 8023   3.851   5.830   5.889
 2687TIP3   OH2 8024   3.200   1.390   2.882
 2687TIP3    H1 8025   3.239   1.422   2.963
 2687TIP3    H2 8026   3.211   1.463   2.820
 2688TIP3   OH2 8027   5.482   3.468   4.583
 2688TIP3    H1 8028   5.418   3.416   4.533
 2688TIP3    H2 8029   5.522   3.406   4.644
 2689TIP3   OH2 8030   3.269   6.079   3.111
 2689TIP3    H1 8031   3.246   6.172   3.108
 2689TIP3    H2 8032   3.347   6.075   3.167
 2690TIP3   OH2 8033   3.096   5.557   4.260
 2690TIP3    H1 8034   3.123   5.551   4.351
 2690TIP3    H2 8035   3.003   5.579   4.263
 2691TIP3   OH2 8036   0.120   1.828   4.464
 2691TIP3    H1 8037   0.128   1.853   4.556
 2691TIP3    H2 8038   0.208   1.803   4.437
 2692TIP3   OH2 8039   5.677   1.788   0.935
 2692TIP3    H1 8040   5.740   1.859   0.927
 2692TIP3    H2 8041   5.673   1.749   0.848
 2693TIP3   OH2 8042   3.033   2.268   3.727
 2693TIP3    H1 8043   2.954   2.215   3.722
 2693TIP3    H2 8044   3.085   2.242   3.651
 2694TIP3   OH2 8045   4.890   6.355   5.246
 2694TIP3    H1 8046   4.922   6.445   5.241
 2694TIP3    H2 8047   4.807   6.361   5.293
 2695TIP3   OH2 8048   2.837   0.088   4.932
 2695TIP3    H1 8049   2.906   0.025   4.956
 2695TIP3    H2 8050   2.802   0.055   4.849
 2696TIP3   OH2 8051   4.630   5.341   4.222
 2696TIP3    H1 8052   4.549   5.383   4.193
 2696TIP3    H2 8053   4.699   5.389   4.177
 2697TIP3   OH2 8054   5.020   4.082   1.903
 2697TIP3    H1 8055   5.045   4.107   1.814
 2697TIP3    H2 8056   5.045   3.990   1.910
 2698TIP3   OH2 8057   3.064   1.004   4.726
 2698TIP3    H1 8058   3.145   0.969   4.690
 2698TIP3    H2 8059   3.091   1.078   4.779
 2699TIP3   OH2 8060   5.158   0.115   1.277
 2699TIP3    H1 8061   5.131   0.028   1.246
 2699TIP3    H2 8062   5.193   0.158   1.199
 2700TIP3   OH2 8063   0.382   5.988   2.633
 2700TIP3    H1 8064   0.317   5.921   2.654
 2700TIP3    H2 8065   0.444   5.985   2.705
 2701TIP3   OH2 8066   0.893   3.768   2.716
 2701TIP3    H1 8067   0.854   3.854   2.733
 2701TIP3    H2 8068   0.821   3.706   2.730
 2702TIP3   OH2 8069   6.903   2.564   0.547
 2702TIP3    H1 8070   6.964   2.491   0.552
 2702TIP3    H2 8071   6.959   2.642   0.546
 2703TIP3   OH2 8072   1.775   2.835   0.936
 2703TIP3    H1 8073   1.838   2.891   0.981
 2703TIP3    H2 8074   1.829   2.774   0.885
 2704TIP3   OH2 8075   4.889   1.898   1.713
 2704TIP3    H1 8076   4.811   1.860   1.673
 2704TIP3    H2 8077   4.949   1.913   1.640
 2705TIP3   OH2 8078   7.089   2.792   3.549
 2705TIP3    H1 8079   7.044   2.783   3.633
 2705TIP3    H2 8080   7.172   2.834   3.570
 2706TIP3   OH2 8081   6.176   3.827   1.359
 2706TIP3    H1 8082   6.108   3.847   1.294
 2706TIP3    H2 8083   6.168   3.898   1.424
 2707TIP3   OH2 8084   5.979   4.876   3.605
 2707TIP3    H1 8085   5.977   4.832   3.690
 2707TIP3    H2 8086   5.943   4.963   3.623
 2708TIP3   OH2 8087   6.211   0.397   2.907
 2708TIP3    H1 8088   6.301   0.422   2.886
 2708TIP3    H2 8089   6.165   0.399   2.823
 2709TIP3   OH2 8090   4.321   5.703   2.837
 2709TIP3    H1 8091   4.367   5.765   2.780
 2709TIP3    H2 8092   4.260   5.757   2.886
 2710TIP3   OH2 8093   3.407   5.871   4.935
 2710TIP3    H1 8094   3.375   5.885   4.846
 2710TIP3    H2 8095   3.373   5.785   4.960
 2711TIP3   OH2 8096   4.334   1.715   4.079
 2711TIP3    H1 8097   4.423   1.681   4.071
 2711TIP3    H2 8098   4.338   1.775   4.154
 2712TIP3   OH2 8099   5.326   2.758   2.572
 2712TIP3    H1 8100   5.312   2.852   2.581
 2712TIP3    H2 8101   5.288   2.736   2.486
 2713TIP3   OH2 8102   0.406   6.493   0.793
 2713TIP3    H1 8103   0.473   6.488   0.725
 2713TIP3    H2 8104   0.338   6.549   0.755
 2714TIP3   OH2 8105   1.611   5.091   1.794
 2714TIP3    H1 8106   1.593   5.021   1.857
 2714TIP3    H2 8107   1.624   5.169   1.847
 2715TIP3   OH2 8108   5.537   5.084   2.727
 2715TIP3    H1 8109   5.509   5.125   2.645
 2715TIP3    H2 8110   5.607   5.141   2.759
 2716TIP3   OH2 8111   2.696   5.416   0.653
 2716TIP3    H1 8112   2.758   5.488   0.648
 2716TIP3    H2 8113   2.739   5.344   0.608
 2717TIP3   OH2 8114   5.680   0.826   2.725
 2717TIP3    H1 8115   5.708   0.786   2.643
 2717TIP3    H2 8116   5.585   0.829   2.720
 2718TIP3   OH2 8117   5.496   0.083   2.471
 2718TIP3    H1 8118   5.452   0.168   2.471
 2718TIP3    H2 8119   5.578   0.099   2.424
 2719TIP3   OH2 8120   0.653   6.647   3.605
 2719TIP3    H1 8121   0.666   6.614   3.694
 2719TIP3    H2 8122   0.698   6.732   3.603
 2720TIP3   OH2 8123   4.642   6.191   5.283
 2720TIP3    H1 8124   4.612   6.120   5.226
 2720TIP3    H2 8125   4.615   6.163   5.371
 2721TIP3   OH2 8126   4.653   1.515   2.370
 2721TIP3    H1 8127   4.671   1.606   2.345
 2721TIP3    H2 8128   4.726   1.491   2.426
 2722TIP3   OH2 8129   1.978   3.228   2.140
 2722TIP3    H1 8130   1.891   3.192   2.159
 2722TIP3    H2 8131   1.985   3.306   2.196
 2723TIP3   OH2 8132   3.458   4.303   5.216
 2723TIP3    H1 8133   3.373   4.259   5.226
 2723TIP3    H2 8134   3.490   4.314   5.305
 2724TIP3   OH2 8135   6.161   6.299   4.038
 2724TIP3    H1 8136   6.144   6.389   4.066
 2724TIP3    H2 8137   6.247   6.278   4.073
 2725TIP3   OH2 8138   0.058   1.259   3.134
 2725TIP3    H1 8139  -0.007   1.199   3.171
 2725TIP3    H2 8140   0.131   1.202   3.108
 2726TIP3   OH2 8141   4.504   3.153   3.189
 2726TIP3    H1 8142   4.408   3.151   3.184
 2726TIP3    H2 8143   4.524   3.245   3.207
 2727TIP3   OH2 8144   3.412   4.616   4.746
 2727TIP3    H1 8145   3.390   4.612   4.839
 2727TIP3    H2 8146   3.481   4.683   4.741
 2728TIP3   OH2 8147   6.119   3.969   3.886
 2728TIP3    H1 8148   6.153   3.886   3.854
 2728TIP3    H2 8149   6.048   3.945   3.946
 2729TIP3   OH2 8150   4.708   5.016   2.647
 2729TIP3    H1 8151   4.688   4.972   2.564
 2729TIP3    H2 8152   4.798   4.991   2.667
 2730TIP3   OH2 8153   4.535   4.919   2.413
 2730TIP3    H1 8154   4.570   5.007   2.426
 2730TIP3    H2 8155   4.449   4.932   2.373
 2731TIP3   OH2 8156   1.257   0.144   2.813
 2731TIP3    H1 8157   1.352   0.147   2.818
 2731TIP3    H2 8158   1.227   0.170   2.900
 2732TIP3   OH2 8159   5.418   6.405   3.286
 2732TIP3    H1 8160   5.347   6.468   3.271
 2732TIP3    H2 8161   5.476   6.450   3.347
 2733TIP3   OH2 8162   6.408   6.302   2.223
 2733TIP3    H1 8163   6.377   6.364   2.157
 2733TIP3    H2 8164   6.449   6.357   2.290
 2734TIP3   OH2 8165   7.047   4.040   4.584
 2734TIP3    H1 8166   7.094   4.017   4.504
 2734TIP3    H2 8167   6.956   4.047   4.557
 2735TIP3   OH2 8168   3.568   3.347   0.928
 2735TIP3    H1 8169   3.477   3.327   0.952
 2735TIP3    H2 8170   3.620   3.307   0.998
 2736TIP3   OH2 8171   3.855   4.349   2.642
 2736TIP3    H1 8172   3.832   4.406   2.716
 2736TIP3    H2 8173   3.950   4.335   2.651
 2737TIP3   OH2 8174   6.772   6.266   0.809
 2737TIP3    H1 8175   6.677   6.261   0.793
 2737TIP3    H2 8176   6.779   6.272   0.904
 2738TIP3   OH2 8177   3.596   6.067   0.648
 2738TIP3    H1 8178   3.616   6.010   0.722
 2738TIP3    H2 8179   3.680   6.083   0.606
 2739TIP3   OH2 8180   6.302   1.384   2.950
 2739TIP3    H1 8181   6.320   1.372   3.044
 2739TIP3    H2 8182   6.325   1.300   2.910
 2740TIP3   OH2 8183   0.701   5.306   4.101
 2740TIP3    H1 8184   0.695   5.371   4.172
 2740TIP3    H2 8185   0.611   5.298   4.068
 2741TIP3   OH2 8186   4.407   5.540   3.754
 2741TIP3    H1 8187   4.396   5.614   3.813
 2741TIP3    H2 8188   4.486   5.495   3.786
 2742TIP3   OH2 8189   1.113   5.795   1.959
 2742TIP3    H1 8190   1.187   5.813   2.018
 2742TIP3    H2 8191   1.049   5.863   1.979
 2743TIP3   OH2 8192   0.410   4.445   1.686
 2743TIP3    H1 8193   0.351   4.493   1.627
 2743TIP3    H2 8194   0.438   4.369   1.635
 2744TIP3   OH2 8195   1.555   6.303   2.922
 2744TIP3    H1 8196   1.461   6.290   2.937
 2744TIP3    H2 8197   1.596   6.231   2.970
 2745TIP3   OH2 8198   0.745   4.713   4.054
 2745TIP3    H1 8199   0.835   4.681   4.046
 2745TIP3    H2 8200   0.721   4.740   3.966
 2746TIP3   OH2 8201   0.317   0.096   4.448
 2746TIP3    H1 8202   0.295   0.179   4.491
 2746TIP3    H2 8203   0.282   0.105   4.359
 2747TIP3   OH2 8204   5.320   6.521   2.423
 2747TIP3    H1 8205   5.305   6.430   2.448
 2747TIP3    H2 8206   5.415   6.532   2.430
 2748TIP3   OH2 8207   0.230   2.830   1.246
 2748TIP3    H1 8208   0.240   2.924   1.232
 2748TIP3    H2 8209   0.312   2.792   1.214
 2749TIP3   OH2 8210   3.019   3.679   5.339
 2749TIP3    H1 8211   3.009   3.651   5.248
 2749TIP3    H2 8212   2.955   3.750   5.349
 2750TIP3   OH2 8213   0.717   6.110   5.646
 2750TIP3    H1 8214   0.789   6.138   5.590
 2750TIP3    H2 8215   0.703   6.018   5.623
 2751TIP3   OH2 8216   0.667   1.257   1.693
 2751TIP3    H1 8217   0.690   1.303   1.773
 2751TIP3    H2 8218   0.748   1.213   1.666
 2752TIP3   OH2 8219   5.340   3.108   4.212
 2752TIP3    H1 8220   5.369   3.022   4.180
 2752TIP3    H2 8221   5.245   3.105   4.203
 2753TIP3   OH2 8222   0.367   1.344   2.238
 2753TIP3    H1 8223   0.455   1.352   2.274
 2753TIP3    H2 8224   0.314   1.315   2.312
 2754TIP3   OH2 8225   0.747   6.340   1.103
 2754TIP3    H1 8226   0.669   6.387   1.132
 2754TIP3    H2 8227   0.810   6.353   1.174
 2755TIP3   OH2 8228   3.925   5.983   2.457
 2755TIP3    H1 8229   3.933   5.964   2.363
 2755TIP3    H2 8230   3.934   5.898   2.500
 2756TIP3   OH2 8231   5.021   2.886   3.291
 2756TIP3    H1 8232   5.041   2.961   3.235
 2756TIP3    H2 8233   4.969   2.828   3.236
 2757TIP3   OH2 8234   1.719   5.075   3.363
 2757TIP3    H1 8235   1.690   4.986   3.384
 2757TIP3    H2 8236   1.792   5.063   3.303
 2758TIP3   OH2 8237   7.043   1.744   4.018
 2758TIP3    H1 8238   7.045   1.654   3.988
 2758TIP3    H2 8239   7.135   1.766   4.032
 2759TIP3   OH2 8240   4.151   2.097   1.048
 2759TIP3    H1 8241   4.099   2.068   1.123
 2759TIP3    H2 8242   4.104   2.173   1.014
 2760TIP3   OH2 8243   1.487   0.403   1.745
 2760TIP3    H1 8244   1.429   0.332   1.774
 2760TIP3    H2 8245   1.466   0.476   1.803
 2761TIP3   OH2 8246   6.981   1.089   0.478
 2761TIP3    H1 8247   7.026   1.173   0.478
 2761TIP3    H2 8248   6.906   1.101   0.536
 2762TIP3   OH2 8249   2.621  -0.040   4.266
 2762TIP3    H1 8250   2.587  -0.025   4.355
 2762TIP3    H2 8251   2.590   0.036   4.217
 2763TIP3   OH2 8252   6.176   1.491   4.749
 2763TIP3    H1 8253   6.257   1.461   4.791
 2763TIP3    H2 8254   6.196   1.491   4.655
 2764TIP3   OH2 8255   0.516   4.657   1.813
 2764TIP3    H1 8256   0.506   4.586   1.750
 2764TIP3    H2 8257   0.546   4.614   1.893
 2765TIP3   OH2 8258   2.627   2.593   2.597
 2765TIP3    H1 8259   2.619   2.574   2.504
 2765TIP3    H2 8260   2.578   2.674   2.610
 2766TIP3   OH2 8261   3.237   0.585   3.494
 2766TIP3    H1 8262   3.254   0.580   3.588
 2766TIP3    H2 8263   3.210   0.675   3.479
 2767TIP3   OH2 8264   2.422   3.661   1.668
 2767TIP3    H1 8265   2.412   3.630   1.577
 2767TIP3    H2 8266   2.371   3.598   1.720
 2768TIP3   OH2 8267   2.137   2.463   4.154
 2768TIP3    H1 8268   2.232   2.462   4.166
 2768TIP3    H2 8269   2.120   2.545   4.107
 2769TIP3   OH2 8270   2.922   0.350   0.571
 2769TIP3    H1 8271   2.874   0.267   0.575
 2769TIP3    H2 8272   2.857   0.413   0.539
 2770TIP3   OH2 8273   6.468   4.644   4.342
 2770TIP3    H1 8274   6.379   4.673   4.363
 2770TIP3    H2 8275   6.478   4.664   4.249
 2771TIP3   OH2 8276   3.860   0.571   1.773
 2771TIP3    H1 8277   3.934   0.543   1.719
 2771TIP3    H2 8278   3.868   0.520   1.854
 2772TIP3   OH2 8279   5.063   5.272   2.156
 2772TIP3    H1 8280   5.079   5.269   2.250
 2772TIP3    H2 8281   5.110   5.195   2.122
 2773TIP3   OH2 8282   0.514   5.012   4.400
 2773TIP3    H1 8283   0.589   5.068   4.419
 2773TIP3    H2 8284   0.481   4.987   4.486
 2774TIP3   OH2 8285   1.043   2.851   4.688
 2774TIP3    H1 8286   0.990   2.774   4.667
 2774TIP3    H2 8287   1.132   2.817   4.700
 2775TIP3   OH2 8288   3.689   3.997   1.355
 2775TIP3    H1 8289   3.645   3.951   1.426
 2775TIP3    H2 8290   3.717   3.927   1.295
 2776TIP3   OH2 8291   4.404   0.310   5.245
 2776TIP3    H1 8292   4.332   0.271   5.197
 2776TIP3    H2 8293   4.474   0.318   5.180
 2777TIP3   OH2 8294   6.748   5.188   2.394
 2777TIP3    H1 8295   6.771   5.148   2.310
 2777TIP3    H2 8296   6.832   5.212   2.432
 2778TIP3   OH2 8297   6.351   2.789   3.486
 2778TIP3    H1 8298   6.359   2.741   3.404
 2778TIP3    H2 8299   6.423   2.851   3.485
 2779TIP3   OH2 8300   6.185   0.115   2.995
 2779TIP3    H1 8301   6.152   0.098   3.083
 2779TIP3    H2 8302   6.150   0.201   2.972
 2780TIP3   OH2 8303   1.351   0.096   2.487
 2780TIP3    H1 8304   1.316   0.172   2.440
 2780TIP3    H2 8305   1.374   0.129   2.573
 2781TIP3   OH2 8306   2.289   1.252   4.881
 2781TIP3    H1 8307   2.240   1.170   4.879
 2781TIP3    H2 8308   2.379   1.225   4.901
 2782TIP3   OH2 8309   6.395   4.351   4.036
 2782TIP3    H1 8310   6.429   4.416   3.974
 2782TIP3    H2 8311   6.377   4.274   3.981
 2783TIP3   OH2 8312   0.464   4.879   0.797
 2783TIP3    H1 8313   0.536   4.893   0.735
 2783TIP3    H2 8314   0.385   4.884   0.744
 2784TIP3   OH2 8315   4.151   2.793   2.105
 2784TIP3    H1 8316   4.074   2.832   2.065
 2784TIP3    H2 8317   4.172   2.850   2.179
 2785TIP3   OH2 8318   1.528   2.924   2.494
 2785TIP3    H1 8319   1.435   2.911   2.475
 2785TIP3    H2 8320   1.559   2.982   2.425
 2786TIP3   OH2 8321   1.822   2.204   1.084
 2786TIP3    H1 8322   1.876   2.125   1.083
 2786TIP3    H2 8323   1.810   2.223   1.177
 2787TIP3   OH2 8324   4.201   2.082   2.579
 2787TIP3    H1 8325   4.296   2.086   2.584
 2787TIP3    H2 8326   4.182   1.993   2.550
 2788TIP3   OH2 8327   7.128   2.131   0.876
 2788TIP3    H1 8328   7.158   2.059   0.932
 2788TIP3    H2 8329   7.053   2.093   0.828
 2789TIP3   OH2 8330   0.597   4.989   2.771
 2789TIP3    H1 8331   0.647   4.939   2.836
 2789TIP3    H2 8332   0.659   5.004   2.699
 2790TIP3   OH2 8333   4.653   0.274   4.965
 2790TIP3    H1 8334   4.609   0.307   4.886
 2790TIP3    H2 8335   4.642   0.180   4.961
 2791TIP3   OH2 8336   1.817   5.934   4.183
 2791TIP3    H1 8337   1.803   5.843   4.160
 2791TIP3    H2 8338   1.912   5.947   4.173
 2792TIP3   OH2 8339   2.701   6.647   1.210
 2792TIP3    H1 8340   2.756   6.638   1.132
 2792TIP3    H2 8341   2.637   6.577   1.203
 2793TIP3   OH2 8342   5.236   2.581   4.812
 2793TIP3    H1 8343   5.311   2.576   4.871
 2793TIP3    H2 8344   5.189   2.499   4.826
 2794TIP3   OH2 8345   7.093   6.706   3.163
 2794TIP3    H1 8346   7.150   6.642   3.206
 2794TIP3    H2 8347   7.151   6.750   3.100
 2795TIP3   OH2 8348   0.060   2.481   5.861
 2795TIP3    H1 8349   0.120   2.420   5.905
 2795TIP3    H2 8350  -0.018   2.428   5.842
 2796TIP3   OH2 8351   1.099   3.187   5.847
 2796TIP3    H1 8352   1.133   3.163   5.761
 2796TIP3    H2 8353   1.004   3.181   5.837
 2797TIP3   OH2 8354   4.545   0.608   4.497
 2797TIP3    H1 8355   4.562   0.581   4.407
 2797TIP3    H2 8356   4.474   0.550   4.526
 2798TIP3   OH2 8357   0.832   4.487   3.359
 2798TIP3    H1 8358   0.873   4.480   3.273
 2798TIP3    H2 8359   0.869   4.567   3.397
 2799TIP3   OH2 8360   6.691   5.392   4.922
 2799TIP3    H1 8361   6.719   5.314   4.971
 2799TIP3    H2 8362   6.634   5.439   4.983
 2800TIP3   OH2 8363   3.724   4.385   4.345
 2800TIP3    H1 8364   3.654   4.445   4.369
 2800TIP3    H2 8365   3.682   4.319   4.291
 2801TIP3   OH2 8366   6.758   3.967   5.227
 2801TIP3    H1 8367   6.758   4.010   5.141
 2801TIP3    H2 8368   6.729   3.878   5.208
 2802TIP3   OH2 8369   5.796   1.264   0.264
 2802TIP3    H1 8370   5.740   1.338   0.288
 2802TIP3    H2 8371   5.844   1.243   0.345
 2803TIP3   OH2 8372   0.501   4.350   1.347
 2803TIP3    H1 8373   0.430   4.371   1.287
 2803TIP3    H2 8374   0.578   4.392   1.309
 2804TIP3   OH2 8375   4.436   3.769   4.976
 2804TIP3    H1 8376   4.397   3.686   5.003
 2804TIP3    H2 8377   4.499   3.744   4.909
 2805TIP3   OH2 8378   5.771   2.510   5.496
 2805TIP3    H1 8379   5.824   2.478   5.569
 2805TIP3    H2 8380   5.729   2.589   5.529
 2806TIP3   OH2 8381   4.902   5.526   0.105
 2806TIP3    H1 8382   4.955   5.606   0.103
 2806TIP3    H2 8383   4.957   5.460   0.064
 2807TIP3   OH2 8384   3.294   3.270   1.979
 2807TIP3    H1 8385   3.378   3.225   1.987
 2807TIP3    H2 8386   3.316   3.363   1.977
 2808TIP3   OH2 8387   3.444   5.541   1.953
 2808TIP3    H1 8388   3.459   5.521   2.045
 2808TIP3    H2 8389   3.407   5.629   1.954
 2809TIP3   OH2 8390   2.334   6.138   0.858
 2809TIP3    H1 8391   2.374   6.053   0.839
 2809TIP3    H2 8392   2.407   6.199   0.860
 2810TIP3   OH2 8393   2.742   4.447   4.183
 2810TIP3    H1 8394   2.826   4.402   4.172
 2810TIP3    H2 8395   2.679   4.376   4.194
 2811TIP3   OH2 8396   0.576   5.503   1.317
 2811TIP3    H1 8397   0.610   5.522   1.404
 2811TIP3    H2 8398   0.642   5.537   1.257
 2812TIP3   OH2 8399   3.191   4.972   5.845
 2812TIP3    H1 8400   3.249   4.944   5.774
 2812TIP3    H2 8401   3.169   4.890   5.891
 2813TIP3   OH2 8402   1.796   3.470   4.829
 2813TIP3    H1 8403   1.733   3.541   4.840
 2813TIP3    H2 8404   1.878   3.505   4.863
 2814TIP3   OH2 8405   3.275   1.490   3.136
 2814TIP3    H1 8406   3.272   1.579   3.172
 2814TIP3    H2 8407   3.347   1.447   3.182
 2815TIP3   OH2 8408   3.270   0.998   3.684
 2815TIP3    H1 8409   3.299   0.934   3.749
 2815TIP3    H2 8410   3.231   0.945   3.614
 2816TIP3   OH2 8411   2.069   2.133   4.073
 2816TIP3    H1 8412   2.087   2.146   4.166
 2816TIP3    H2 8413   2.011   2.206   4.050
 2817TIP3   OH2 8414   6.451   2.335   3.021
 2817TIP3    H1 8415   6.435   2.316   3.113
 2817TIP3    H2 8416   6.529   2.390   3.021
 2818TIP3   OH2 8417   5.849   5.563   4.949
 2818TIP3    H1 8418   5.763   5.570   4.907
 2818TIP3    H2 8419   5.865   5.650   4.985
 2819TIP3   OH2 8420   2.233   4.801   2.048
 2819TIP3    H1 8421   2.243   4.792   2.143
 2819TIP3    H2 8422   2.287   4.876   2.025
 2820TIP3   OH2 8423   1.772   0.496   2.265
 2820TIP3    H1 8424   1.750   0.490   2.172
 2820TIP3    H2 8425   1.726   0.574   2.296
 2821TIP3   OH2 8426   2.756   2.151  -0.040
 2821TIP3    H1 8427   2.705   2.134   0.039
 2821TIP3    H2 8428   2.726   2.085  -0.103
 2822TIP3   OH2 8429   6.664   0.800   2.782
 2822TIP3    H1 8430   6.656   0.875   2.723
 2822TIP3    H2 8431   6.731   0.826   2.845
 2823TIP3   OH2 8432   3.214   3.304   0.482
 2823TIP3    H1 8433   3.204   3.344   0.569
 2823TIP3    H2 8434   3.148   3.235   0.480
 2824TIP3   OH2 8435   5.907   0.935   5.194
 2824TIP3    H1 8436   5.843   0.961   5.128
 2824TIP3    H2 8437   5.972   1.005   5.194
 2825TIP3   OH2 8438   6.121   5.228   1.412
 2825TIP3    H1 8439   6.054   5.293   1.390
 2825TIP3    H2 8440   6.118   5.166   1.340
 2826TIP3   OH2 8441   4.791   0.910   3.118
 2826TIP3    H1 8442   4.773   0.837   3.177
 2826TIP3    H2 8443   4.870   0.884   3.070
 2827TIP3   OH2 8444   4.368   3.590   1.577
 2827TIP3    H1 8445   4.338   3.635   1.498
 2827TIP3    H2 8446   4.447   3.542   1.550
 2828TIP3   OH2 8447   5.596   1.427   0.616
 2828TIP3    H1 8448   5.504   1.450   0.627
 2828TIP3    H2 8449   5.640   1.466   0.692
 2829TIP3   OH2 8450   0.629   1.209   4.664
 2829TIP3    H1 8451   0.642   1.273   4.734
 2829TIP3    H2 8452   0.543   1.170   4.681
 2830TIP3   OH2 8453   5.861   6.273   0.066
 2830TIP3    H1 8454   5.910   6.270   0.148
 2830TIP3    H2 8455   5.772   6.247   0.091
 2831TIP3   OH2 8456   4.446   1.216   5.091
 2831TIP3    H1 8457   4.392   1.156   5.039
 2831TIP3    H2 8458   4.385   1.254   5.155
 2832TIP3   OH2 8459   3.029   2.758   0.360
 2832TIP3    H1 8460   3.105   2.705   0.383
 2832TIP3    H2 8461   3.023   2.822   0.431
 2833TIP3   OH2 8462   3.731   3.846   3.016
 2833TIP3    H1 8463   3.723   3.780   3.085
 2833TIP3    H2 8464   3.750   3.796   2.937
 2834TIP3   OH2 8465   3.802   3.815   2.127
 2834TIP3    H1 8466   3.722   3.798   2.076
 2834TIP3    H2 8467   3.815   3.909   2.120
 2835TIP3   OH2 8468   0.169   3.397   1.959
 2835TIP3    H1 8469   0.172   3.373   1.866
 2835TIP3    H2 8470   0.076   3.398   1.980
 2836TIP3   OH2 8471   6.838   5.011   5.441
 2836TIP3    H1 8472   6.755   4.978   5.407
 2836TIP3    H2 8473   6.904   4.971   5.385
 2837TIP3   OH2 8474   0.879   4.398   4.382
 2837TIP3    H1 8475   0.885   4.338   4.308
 2837TIP3    H2 8476   0.791   4.382   4.418
 2838TIP3   OH2 8477   2.539   6.011   2.532
 2838TIP3    H1 8478   2.621   6.012   2.483
 2838TIP3    H2 8479   2.565   6.000   2.623
 2839TIP3   OH2 8480   0.531   6.354   4.227
 2839TIP3    H1 8481   0.595   6.401   4.174
 2839TIP3    H2 8482   0.583   6.295   4.281
 2840TIP3   OH2 8483   3.370   5.790   1.266
 2840TIP3    H1 8484   3.347   5.881   1.249
 2840TIP3    H2 8485   3.380   5.752   1.179
 2841TIP3   OH2 8486   4.866   3.878   4.105
 2841TIP3    H1 8487   4.791   3.823   4.129
 2841TIP3    H2 8488   4.832   3.939   4.039
 2842TIP3   OH2 8489   3.843   2.867   3.900
 2842TIP3    H1 8490   3.772   2.918   3.861
 2842TIP3    H2 8491   3.868   2.916   3.978
 2843TIP3   OH2 8492   0.416   4.618   4.919
 2843TIP3    H1 8493   0.381   4.612   4.830
 2843TIP3    H2 8494   0.423   4.528   4.949
 2844TIP3   OH2 8495   6.996   5.680   5.540
 2844TIP3    H1 8496   6.947   5.601   5.518
 2844TIP3    H2 8497   7.073   5.649   5.588
 2845TIP3   OH2 8498   1.642   6.117   2.659
 2845TIP3    H1 8499   1.654   6.202   2.701
 2845TIP3    H2 8500   1.622   6.138   2.568
 2846TIP3   OH2 8501   5.666   5.611   5.307
 2846TIP3    H1 8502   5.608   5.536   5.295
 2846TIP3    H2 8503   5.654   5.663   5.227
 2847TIP3   OH2 8504   2.596   4.065   4.461
 2847TIP3    H1 8505   2.516   4.061   4.408
 2847TIP3    H2 8506   2.566   4.071   4.551
 2848TIP3   OH2 8507   2.311   0.415   2.461
 2848TIP3    H1 8508   2.307   0.467   2.380
 2848TIP3    H2 8509   2.241   0.451   2.516
 2849TIP3   OH2 8510   2.325   1.352   3.594
 2849TIP3    H1 8511   2.399   1.326   3.540
 2849TIP3    H2 8512   2.306   1.442   3.568
 2850TIP3   OH2 8513   1.662   2.415   3.109
 2850TIP3    H1 8514   1.604   2.370   3.048
 2850TIP3    H2 8515   1.714   2.346   3.149
 2851TIP3   OH2 8516   1.570   6.695   2.161
 2851TIP3    H1 8517   1.515   6.726   2.089
 2851TIP3    H2 8518   1.656   6.736   2.145
 2852TIP3   OH2 8519   7.207   5.242   1.044
 2852TIP3    H1 8520   7.214   5.248   1.140
 2852TIP3    H2 8521   7.123   5.200   1.029
 2853TIP3   OH2 8522   6.472   1.266   4.401
 2853TIP3    H1 8523   6.414   1.309   4.339
 2853TIP3    H2 8524   6.422   1.263   4.483
 2854TIP3   OH2 8525   6.293   6.097   1.960
 2854TIP3    H1 8526   6.370   6.146   1.931
 2854TIP3    H2 8527   6.319   6.061   2.045
 2855TIP3   OH2 8528   1.777   3.280   0.219
 2855TIP3    H1 8529   1.813   3.302   0.133
 2855TIP3    H2 8530   1.716   3.209   0.202
 2856TIP3   OH2 8531   5.884   1.911   5.551
 2856TIP3    H1 8532   5.890   2.000   5.518
 2856TIP3    H2 8533   5.913   1.917   5.642
 2857TIP3   OH2 8534   1.475   3.899   2.309
 2857TIP3    H1 8535   1.400   3.899   2.370
 2857TIP3    H2 8536   1.539   3.842   2.350
 2858TIP3   OH2 8537   1.243   1.617   2.429
 2858TIP3    H1 8538   1.325   1.663   2.412
 2858TIP3    H2 8539   1.218   1.643   2.517
 2859TIP3   OH2 8540   2.423   2.383   2.578
 2859TIP3    H1 8541   2.499   2.391   2.637
 2859TIP3    H2 8542   2.454   2.420   2.495
 2860TIP3   OH2 8543   3.443   3.840   2.650
 2860TIP3    H1 8544   3.371   3.846   2.713
 2860TIP3    H2 8545   3.473   3.930   2.639
 2861TIP3   OH2 8546   1.913   1.461   2.959
 2861TIP3    H1 8547   1.999   1.500   2.977
 2861TIP3    H2 8548   1.875   1.517   2.891
 2862TIP3   OH2 8549   6.614   0.989   4.156
 2862TIP3    H1 8550   6.520   0.975   4.150
 2862TIP3    H2 8551   6.625   1.083   4.140
 2863TIP3   OH2 8552   4.890   6.015   3.343
 2863TIP3    H1 8553   4.929   6.102   3.353
 2863TIP3    H2 8554   4.962   5.955   3.363
 2864TIP3   OH2 8555   0.129   2.409   5.596
 2864TIP3    H1 8556   0.063   2.453   5.542
 2864TIP3    H2 8557   0.111   2.440   5.685
 2865TIP3   OH2 8558   0.730   1.564   0.963
 2865TIP3    H1 8559   0.688   1.487   0.925
 2865TIP3    H2 8560   0.824   1.545   0.958
 2866TIP3   OH2 8561   0.712   3.809   4.811
 2866TIP3    H1 8562   0.771   3.772   4.746
 2866TIP3    H2 8563   0.764   3.875   4.856
 2867TIP3   OH2 8564   2.988   3.101   5.014
 2867TIP3    H1 8565   3.018   3.015   5.044
 2867TIP3    H2 8566   3.025   3.162   5.077
 2868TIP3   OH2 8567   3.126   3.751   5.625
 2868TIP3    H1 8568   3.193   3.820   5.623
 2868TIP3    H2 8569   3.085   3.756   5.539
 2869TIP3   OH2 8570   1.873   1.491   1.746
 2869TIP3    H1 8571   1.824   1.572   1.753
 2869TIP3    H2 8572   1.806   1.423   1.737
 2870TIP3   OH2 8573   5.384   2.838   4.520
 2870TIP3    H1 8574   5.455   2.901   4.535
 2870TIP3    H2 8575   5.335   2.837   4.602
 2871TIP3   OH2 8576   6.099   2.609   4.552
 2871TIP3    H1 8577   6.049   2.564   4.620
 2871TIP3    H2 8578   6.144   2.539   4.505
 2872TIP3   OH2 8579   3.529   3.108   3.058
 2872TIP3    H1 8580   3.599   3.083   3.118
 2872TIP3    H2 8581   3.524   3.036   2.995
 2873TIP3   OH2 8582   3.672   6.249   2.257
 2873TIP3    H1 8583   3.704   6.169   2.215
 2873TIP3    H2 8584   3.596   6.221   2.308
 2874TIP3   OH2 8585   6.945   3.816   0.259
 2874TIP3    H1 8586   6.896   3.838   0.338
 2874TIP3    H2 8587   7.034   3.802   0.290
 2875TIP3   OH2 8588   2.017   0.748   1.215
 2875TIP3    H1 8589   2.109   0.768   1.196
 2875TIP3    H2 8590   1.974   0.833   1.216
 2876TIP3   OH2 8591   0.086   2.059   0.450
 2876TIP3    H1 8592   0.162   2.064   0.392
 2876TIP3    H2 8593   0.020   2.112   0.407
 2877TIP3   OH2 8594   2.725   4.168   3.661
 2877TIP3    H1 8595   2.749   4.259   3.677
 2877TIP3    H2 8596   2.665   4.146   3.732
 2878TIP3   OH2 8597   3.260   1.544   0.265
 2878TIP3    H1 8598   3.226   1.615   0.210
 2878TIP3    H2 8599   3.351   1.569   0.283
 2879TIP3   OH2 8600   2.820   4.748   4.568
 2879TIP3    H1 8601   2.879   4.697   4.513
 2879TIP3    H2 8602   2.862   4.747   4.654
 2880TIP3   OH2 8603   4.570   1.558   4.098
 2880TIP3    H1 8604   4.635   1.595   4.039
 2880TIP3    H2 8605   4.618   1.538   4.178
 2881TIP3   OH2 8606   0.533   2.278   5.338
 2881TIP3    H1 8607   0.478   2.237   5.404
 2881TIP3    H2 8608   0.558   2.362   5.377
 2882TIP3   OH2 8609   7.025   0.241   4.468
 2882TIP3    H1 8610   7.063   0.324   4.441
 2882TIP3    H2 8611   7.062   0.177   4.407
 2883TIP3   OH2 8612   3.403   4.032   4.517
 2883TIP3    H1 8613   3.443   4.118   4.536
 2883TIP3    H2 8614   3.426   3.978   4.593
 2884TIP3   OH2 8615   2.349   2.831   5.091
 2884TIP3    H1 8616   2.371   2.739   5.076
 2884TIP3    H2 8617   2.287   2.853   5.022
 2885TIP3   OH2 8618   4.966   5.272   3.767
 2885TIP3    H1 8619   5.049   5.248   3.808
 2885TIP3    H2 8620   4.959   5.213   3.692
 2886TIP3   OH2 8621   3.181   4.259   3.942
 2886TIP3    H1 8622   3.272   4.262   3.972
 2886TIP3    H2 8623   3.145   4.345   3.967
 2887TIP3   OH2 8624   3.548   1.334   1.022
 2887TIP3    H1 8625   3.627   1.337   0.969
 2887TIP3    H2 8626   3.522   1.425   1.033
 2888TIP3   OH2 8627   5.716   2.111   0.901
 2888TIP3    H1 8628   5.636   2.161   0.882
 2888TIP3    H2 8629   5.787   2.165   0.867
 2889TIP3   OH2 8630   2.640   0.027   0.279
 2889TIP3    H1 8631   2.636   0.120   0.300
 2889TIP3    H2 8632   2.550  -0.004   0.292
 2890TIP3   OH2 8633   5.819   4.914   0.325
 2890TIP3    H1 8634   5.863   4.842   0.280
 2890TIP3    H2 8635   5.730   4.883   0.340
 2891TIP3   OH2 8636   1.689   2.321   5.867
 2891TIP3    H1 8637   1.601   2.314   5.830
 2891TIP3    H2 8638   1.738   2.249   5.827
 2892TIP3   OH2 8639   6.716   1.060   1.746
 2892TIP3    H1 8640   6.730   1.051   1.652
 2892TIP3    H2 8641   6.729   0.972   1.781
 2893TIP3   OH2 8642   0.868   3.206   3.383
 2893TIP3    H1 8643   0.938   3.174   3.439
 2893TIP3    H2 8644   0.815   3.129   3.363
 2894TIP3   OH2 8645   3.400   6.223   4.537
 2894TIP3    H1 8646   3.423   6.188   4.623
 2894TIP3    H2 8647   3.365   6.310   4.555
 2895TIP3   OH2 8648   4.489   5.808   2.140
 2895TIP3    H1 8649   4.518   5.763   2.060
 2895TIP3    H2 8650   4.397   5.829   2.123
 2896TIP3   OH2 8651   2.893   6.012   3.888
 2896TIP3    H1 8652   2.976   6.059   3.892
 2896TIP3    H2 8653   2.826   6.080   3.882
 2897TIP3   OH2 8654   3.978   3.384   5.797
 2897TIP3    H1 8655   3.956   3.399   5.888
 2897TIP3    H2 8656   3.895   3.392   5.750
 2898TIP3   OH2 8657   1.634   4.617   3.874
 2898TIP3    H1 8658   1.586   4.564   3.937
 2898TIP3    H2 8659   1.634   4.565   3.794
 2899TIP3   OH2 8660   2.103   6.748   0.990
 2899TIP3    H1 8661   2.030   6.799   1.025
 2899TIP3    H2 8662   2.101   6.667   1.039
 2900TIP3   OH2 8663   2.689   2.891   3.910
 2900TIP3    H1 8664   2.717   2.938   3.832
 2900TIP3    H2 8665   2.760   2.830   3.929
 2901TIP3   OH2 8666   5.588   6.361   2.195
 2901TIP3    H1 8667   5.613   6.386   2.284
 2901TIP3    H2 8668   5.648   6.410   2.138
 2902TIP3   OH2 8669   5.673   4.760   3.636
 2902TIP3    H1 8670   5.581   4.734   3.647
 2902TIP3    H2 8671   5.719   4.677   3.621
 2903TIP3   OH2 8672   6.264   4.077   4.789
 2903TIP3    H1 8673   6.240   4.032   4.869
 2903TIP3    H2 8674   6.360   4.086   4.795
 2904TIP3   OH2 8675   0.793   2.867   1.340
 2904TIP3    H1 8676   0.724   2.814   1.380
 2904TIP3    H2 8677   0.796   2.947   1.393
 2905TIP3   OH2 8678   6.556   4.825   0.393
 2905TIP3    H1 8679   6.517   4.858   0.312
 2905TIP3    H2 8680   6.485   4.826   0.457
 2906TIP3   OH2 8681   2.424   3.728   1.345
 2906TIP3    H1 8682   2.470   3.716   1.262
 2906TIP3    H2 8683   2.404   3.639   1.374
 2907TIP3   OH2 8684   3.989   2.752   5.543
 2907TIP3    H1 8685   4.066   2.697   5.555
 2907TIP3    H2 8686   3.971   2.749   5.449
 2908TIP3   OH2 8687   1.760   3.463   3.785
 2908TIP3    H1 8688   1.685   3.507   3.745
 2908TIP3    H2 8689   1.736   3.370   3.785
 2909TIP3   OH2 8690   3.953   1.007   1.914
 2909TIP3    H1 8691   3.952   0.940   1.845
 2909TIP3    H2 8692   3.956   0.958   1.996
 2910TIP3   OH2 8693   1.207   0.105   1.497
 2910TIP3    H1 8694   1.287   0.108   1.549
 2910TIP3    H2 8695   1.156   0.180   1.527
 2911TIP3   OH2 8696   2.971   1.617   1.586
 2911TIP3    H1 8697   2.981   1.623   1.681
 2911TIP3    H2 8698   2.917   1.693   1.563
 2912TIP3   OH2 8699   0.893   1.115   1.674
 2912TIP3    H1 8700   0.955   1.140   1.742
 2912TIP3    H2 8701   0.862   1.028   1.700
 2913TIP3   OH2 8702   4.232   1.593   5.579
 2913TIP3    H1 8703   4.234   1.632   5.492
 2913TIP3    H2 8704   4.297   1.644   5.629
 2914TIP3   OH2 8705   2.107   5.571   0.063
 2914TIP3    H1 8706   2.180   5.530   0.018
 2914TIP3    H2 8707   2.144   5.649   0.105
 2915TIP3   OH2 8708   3.277   5.677   2.312
 2915TIP3    H1 8709   3.226   5.639   2.241
 2915TIP3    H2 8710   3.329   5.746   2.271
 2916TIP3   OH2 8711   3.121   1.830   4.217
 2916TIP3    H1 8712   3.081   1.830   4.304
 2916TIP3    H2 8713   3.048   1.816   4.157
 2917TIP3   OH2 8714   3.459   0.199   2.413
 2917TIP3    H1 8715   3.450   0.155   2.329
 2917TIP3    H2 8716   3.535   0.156   2.454
 2918TIP3   OH2 8717   2.062   5.084   3.680
 2918TIP3    H1 8718   2.013   5.072   3.761
 2918TIP3    H2 8719   2.046   5.175   3.656
 2919TIP3   OH2 8720   2.695   1.373   2.837
 2919TIP3    H1 8721   2.635   1.315   2.884
 2919TIP3    H2 8722   2.768   1.385   2.898
 2920TIP3   OH2 8723   5.258   5.425   5.550
 2920TIP3    H1 8724   5.224   5.343   5.587
 2920TIP3    H2 8725   5.354   5.414   5.554
 2921TIP3   OH2 8726   0.397   3.732   3.550
 2921TIP3    H1 8727   0.362   3.765   3.467
 2921TIP3    H2 8728   0.416   3.640   3.533
 2922TIP3   OH2 8729   0.786   6.706   0.277
 2922TIP3    H1 8730   0.700   6.707   0.319
 2922TIP3    H2 8731   0.841   6.761   0.333
 2923TIP3   OH2 8732   2.076   4.712   4.419
 2923TIP3    H1 8733   2.066   4.710   4.514
 2923TIP3    H2 8734   2.158   4.759   4.404
 2924TIP3   OH2 8735   4.927   5.992   3.066
 2924TIP3    H1 8736   5.015   5.955   3.069
 2924TIP3    H2 8737   4.896   5.989   3.156
 2925TIP3   OH2 8738   0.614   5.731   2.712
 2925TIP3    H1 8739   0.560   5.718   2.634
 2925TIP3    H2 8740   0.584   5.815   2.748
 2926TIP3   OH2 8741   4.539   5.599   5.221
 2926TIP3    H1 8742   4.445   5.615   5.212
 2926TIP3    H2 8743   4.580   5.670   5.171
 2927TIP3   OH2 8744   2.527   5.098   3.901
 2927TIP3    H1 8745   2.541   5.009   3.869
 2927TIP3    H2 8746   2.615   5.132   3.919
 2928TIP3   OH2 8747   6.708   5.134   3.742
 2928TIP3    H1 8748   6.726   5.134   3.648
 2928TIP3    H2 8749   6.794   5.144   3.783
 2929TIP3   OH2 8750   4.296   5.783   4.243
 2929TIP3    H1 8751   4.253   5.816   4.164
 2929TIP3    H2 8752   4.224   5.753   4.299
 2930TIP3   OH2 8753   1.815   2.247   4.423
 2930TIP3    H1 8754   1.772   2.235   4.339
 2930TIP3    H2 8755   1.768   2.320   4.463
 2931TIP3   OH2 8756   1.881   2.924   2.261
 2931TIP3    H1 8757   1.954   2.960   2.210
 2931TIP3    H2 8758   1.803   2.956   2.217
 2932TIP3   OH2 8759   1.007   4.490   1.901
 2932TIP3    H1 8760   0.970   4.577   1.920
 2932TIP3    H2 8761   0.939   4.428   1.929
 2933TIP3   OH2 8762   6.783   1.486   0.172
 2933TIP3    H1 8763   6.690   1.505   0.161
 2933TIP3    H2 8764   6.787   1.393   0.195
 2934TIP3   OH2 8765   0.683   6.134   4.315
 2934TIP3    H1 8766   0.735   6.114   4.392
 2934TIP3    H2 8767   0.689   6.055   4.261
 2935TIP3   OH2 8768   6.867   2.863   2.597
 2935TIP3    H1 8769   6.788   2.895   2.639
 2935TIP3    H2 8770   6.848   2.772   2.576
 2936TIP3   OH2 8771   1.657   5.401   2.466
 2936TIP3    H1 8772   1.658   5.492   2.494
 2936TIP3    H2 8773   1.647   5.405   2.371
 2937TIP3   OH2 8774   5.924   0.218   1.456
 2937TIP3    H1 8775   5.990   0.194   1.521
 2937TIP3    H2 8776   5.865   0.142   1.453
 2938TIP3   OH2 8777   0.260   2.675   5.822
 2938TIP3    H1 8778   0.279   2.713   5.908
 2938TIP3    H2 8779   0.188   2.615   5.837
 2939TIP3   OH2 8780   2.189   1.053   0.436
 2939TIP3    H1 8781   2.124   1.054   0.366
 2939TIP3    H2 8782   2.273   1.051   0.390
 2940TIP3   OH2 8783   0.309   1.849   1.157
 2940TIP3    H1 8784   0.249   1.879   1.088
 2940TIP3    H2 8785   0.282   1.898   1.235
 2941TIP3   OH2 8786   3.916   4.096   5.467
 2941TIP3    H1 8787   3.877   4.010   5.450
 2941TIP3    H2 8788   3.938   4.130   5.380
 2942TIP3   OH2 8789   3.313   2.676   1.899
 2942TIP3    H1 8790   3.384   2.705   1.956
 2942TIP3    H2 8791   3.322   2.730   1.821
 2943TIP3   OH2 8792   2.300   0.704   1.150
 2943TIP3    H1 8793   2.391   0.722   1.170
 2943TIP3    H2 8794   2.290   0.610   1.165
 2944TIP3   OH2 8795   3.335   1.164   1.121
 2944TIP3    H1 8796   3.268   1.220   1.160
 2944TIP3    H2 8797   3.406   1.223   1.099
 2945TIP3   OH2 8798   6.133   1.399   5.291
 2945TIP3    H1 8799   6.101   1.308   5.287
 2945TIP3    H2 8800   6.211   1.394   5.347
 2946TIP3   OH2 8801   6.326   1.846   5.644
 2946TIP3    H1 8802   6.280   1.805   5.717
 2946TIP3    H2 8803   6.340   1.936   5.671
 2947TIP3   OH2 8804   1.400   3.548   4.751
 2947TIP3    H1 8805   1.424   3.460   4.724
 2947TIP3    H2 8806   1.483   3.593   4.766
 2948TIP3   OH2 8807   2.153   5.565   2.543
 2948TIP3    H1 8808   2.122   5.528   2.461
 2948TIP3    H2 8809   2.211   5.637   2.517
 2949TIP3   OH2 8810   7.049   6.732   0.718
 2949TIP3    H1 8811   7.057   6.797   0.788
 2949TIP3    H2 8812   7.074   6.649   0.759
 2950TIP3   OH2 8813   6.214   6.550   2.920
 2950TIP3    H1 8814   6.296   6.569   2.966
 2950TIP3    H2 8815   6.161   6.503   2.984
 2951TIP3   OH2 8816   1.674   5.809   1.266
 2951TIP3    H1 8817   1.658   5.898   1.297
 2951TIP3    H2 8818   1.723   5.767   1.336
 2952TIP3   OH2 8819   4.890   1.013   0.440
 2952TIP3    H1 8820   4.909   1.018   0.346
 2952TIP3    H2 8821   4.815   0.954   0.447
 2953TIP3   OH2 8822   0.710   0.124   3.172
 2953TIP3    H1 8823   0.615   0.115   3.182
 2953TIP3    H2 8824   0.736   0.048   3.120
 2954TIP3   OH2 8825   4.329   3.574   4.162
 2954TIP3    H1 8826   4.339   3.481   4.179
 2954TIP3    H2 8827   4.419   3.608   4.160
 2955TIP3   OH2 8828   2.582   4.281   5.795
 2955TIP3    H1 8829   2.547   4.338   5.726
 2955TIP3    H2 8830   2.644   4.337   5.843
 2956TIP3   OH2 8831   3.112   4.377   2.288
 2956TIP3    H1 8832   3.182   4.312   2.292
 2956TIP3    H2 8833   3.056   4.348   2.217
 2957TIP3   OH2 8834   6.928   6.710   0.310
 2957TIP3    H1 8835   6.892   6.748   0.390
 2957TIP3    H2 8836   6.872   6.744   0.240
 2958TIP3   OH2 8837   3.820   1.648   4.096
 2958TIP3    H1 8838   3.877   1.685   4.029
 2958TIP3    H2 8839   3.765   1.721   4.123
 2959TIP3   OH2 8840   6.042   0.724   2.372
 2959TIP3    H1 8841   6.071   0.743   2.283
 2959TIP3    H2 8842   6.081   0.638   2.392
 2960TIP3   OH2 8843   2.210   6.598   1.699
 2960TIP3    H1 8844   2.179   6.688   1.694
 2960TIP3    H2 8845   2.264   6.588   1.621
 2961TIP3   OH2 8846   4.699   4.133   0.614
 2961TIP3    H1 8847   4.635   4.158   0.681
 2961TIP3    H2 8848   4.650   4.075   0.555
 2962TIP3   OH2 8849   1.708   0.621   2.569
 2962TIP3    H1 8850   1.785   0.677   2.561
 2962TIP3    H2 8851   1.743   0.532   2.564
 2963TIP3   OH2 8852   4.441   2.780   2.343
 2963TIP3    H1 8853   4.358   2.759   2.386
 2963TIP3    H2 8854   4.417   2.839   2.271
 2964TIP3   OH2 8855   7.204   0.333   4.232
 2964TIP3    H1 8856   7.114   0.334   4.198
 2964TIP3    H2 8857   7.253   0.280   4.169
 2965TIP3   OH2 8858   0.379   6.551   2.922
 2965TIP3    H1 8859   0.449   6.533   2.859
 2965TIP3    H2 8860   0.414   6.521   3.006
 2966TIP3   OH2 8861   2.445   1.497   0.244
 2966TIP3    H1 8862   2.363   1.527   0.282
 2966TIP3    H2 8863   2.445   1.533   0.156
 2967TIP3   OH2 8864   4.550   2.684   0.026
 2967TIP3    H1 8865   4.546   2.776   0.000
 2967TIP3    H2 8866   4.504   2.680   0.110
 2968TIP3   OH2 8867   1.948   1.065   0.164
 2968TIP3    H1 8868   1.951   0.971   0.186
 2968TIP3    H2 8869   1.993   1.071   0.079
 2969TIP3   OH2 8870   0.162   2.326   4.391
 2969TIP3    H1 8871   0.098   2.296   4.456
 2969TIP3    H2 8872   0.237   2.268   4.403
 2970TIP3   OH2 8873   3.434   6.199   4.260
 2970TIP3    H1 8874   3.430   6.189   4.355
 2970TIP3    H2 8875   3.362   6.146   4.227
 2971TIP3   OH2 8876   4.295   5.428   5.063
 2971TIP3    H1 8877   4.273   5.471   4.980
 2971TIP3    H2 8878   4.371   5.375   5.043
 2972TIP3   OH2 8879   6.495   3.906   3.512
 2972TIP3    H1 8880   6.523   3.953   3.433
 2972TIP3    H2 8881   6.454   3.974   3.566
 2973TIP3   OH2 8882   3.617   3.347   1.951
 2973TIP3    H1 8883   3.659   3.383   2.029
 2973TIP3    H2 8884   3.546   3.408   1.932
 2974TIP3   OH2 8885   4.067   2.053   2.945
 2974TIP3    H1 8886   4.107   1.989   2.886
 2974TIP3    H2 8887   3.996   2.004   2.987
 2975TIP3   OH2 8888   3.039   1.725   2.264
 2975TIP3    H1 8889   2.981   1.760   2.332
 2975TIP3    H2 8890   3.062   1.637   2.294
 2976TIP3   OH2 8891   1.222   2.512   4.569
 2976TIP3    H1 8892   1.152   2.535   4.508
 2976TIP3    H2 8893   1.177   2.487   4.649
 2977TIP3   OH2 8894   2.797   4.330   2.947
 2977TIP3    H1 8895   2.880   4.283   2.953
 2977TIP3    H2 8896   2.760   4.302   2.863
 2978TIP3   OH2 8897   5.692   2.091   5.280
 2978TIP3    H1 8898   5.670   2.023   5.343
 2978TIP3    H2 8899   5.782   2.115   5.300
 2979TIP3   OH2 8900   2.042   3.801   5.470
 2979TIP3    H1 8901   1.971   3.829   5.412
 2979TIP3    H2 8902   2.041   3.864   5.542
 2980TIP3   OH2 8903   1.463   3.856   5.273
 2980TIP3    H1 8904   1.448   3.939   5.319
 2980TIP3    H2 8905   1.521   3.807   5.331
 2981TIP3   OH2 8906   6.162   6.612   0.700
 2981TIP3    H1 8907   6.209   6.673   0.756
 2981TIP3    H2 8908   6.081   6.594   0.747
 2982TIP3   OH2 8909   0.621   2.632   2.020
 2982TIP3    H1 8910   0.531   2.629   2.052
 2982TIP3    H2 8911   0.618   2.591   1.934
 2983TIP3   OH2 8912   6.673   1.437   3.404
 2983TIP3    H1 8913   6.640   1.357   3.364
 2983TIP3    H2 8914   6.689   1.497   3.331
 2984TIP3   OH2 8915   5.417   5.281   1.583
 2984TIP3    H1 8916   5.404   5.187   1.585
 2984TIP3    H2 8917   5.510   5.294   1.603
 2985TIP3   OH2 8918   0.388   6.369   1.789
 2985TIP3    H1 8919   0.453   6.315   1.833
 2985TIP3    H2 8920   0.412   6.459   1.811
 2986TIP3   OH2 8921   4.364   5.585   3.479
 2986TIP3    H1 8922   4.301   5.655   3.466
 2986TIP3    H2 8923   4.366   5.571   3.574
 2987TIP3   OH2 8924   6.578   0.804   3.256
 2987TIP3    H1 8925   6.621   0.749   3.190
 2987TIP3    H2 8926   6.568   0.889   3.213
 2988TIP3   OH2 8927   0.607   0.312   4.029
 2988TIP3    H1 8928   0.680   0.352   4.078
 2988TIP3    H2 8929   0.650   0.253   3.966
 2989TIP3   OH2 8930   5.431   3.057   1.808
 2989TIP3    H1 8931   5.471   2.974   1.780
 2989TIP3    H2 8932   5.434   3.111   1.729
 2990TIP3   OH2 8933   4.058   5.283   4.482
 2990TIP3    H1 8934   4.143   5.326   4.468
 2990TIP3    H2 8935   3.995   5.338   4.436
 2991TIP3   OH2 8936   1.287   2.616   2.336
 2991TIP3    H1 8937   1.223   2.546   2.329
 2991TIP3    H2 8938   1.361   2.577   2.383
 2992TIP3   OH2 8939   4.206   0.651   5.329
 2992TIP3    H1 8940   4.140   0.595   5.288
 2992TIP3    H2 8941   4.155   0.718   5.375
 2993TIP3   OH2 8942   2.316   5.314   1.657
 2993TIP3    H1 8943   2.394   5.359   1.692
 2993TIP3    H2 8944   2.309   5.235   1.710
 2994TIP3   OH2 8945   5.884   0.183   3.970
 2994TIP3    H1 8946   5.853   0.273   3.985
 2994TIP3    H2 8947   5.980   0.190   3.974
 2995TIP3   OH2 8948   0.407   6.316   2.576
 2995TIP3    H1 8949   0.475   6.342   2.639
 2995TIP3    H2 8950   0.432   6.360   2.495
 2996TIP3   OH2 8951   5.121   5.692   3.022
 2996TIP3    H1 8952   5.090   5.690   3.112
 2996TIP3    H2 8953   5.215   5.706   3.028
 2997TIP3   OH2 8954   3.393   3.462   0.307
 2997TIP3    H1 8955   3.335   3.408   0.361
 2997TIP3    H2 8956   3.449   3.399   0.262
 2998TIP3   OH2 8957   6.532   3.004   5.791
 2998TIP3    H1 8958   6.519   3.067   5.720
 2998TIP3    H2 8959   6.620   2.969   5.776
 2999TIP3   OH2 8960   3.097   2.501   2.883
 2999TIP3    H1 8961   3.084   2.527   2.792
 2999TIP3    H2 8962   3.041   2.425   2.894
 3000TIP3   OH2 8963   5.358   3.267   0.611
 3000TIP3    H1 8964   5.354   3.357   0.579
 3000TIP3    H2 8965   5.429   3.268   0.675
 3001TIP3   OH2 8966   6.975   1.764   2.661
 3001TIP3    H1 8967   6.906   1.826   2.682
 3001TIP3    H2 8968   7.055   1.805   2.693
 3002TIP3   OH2 8969   0.637   5.304   2.023
 3002TIP3    H1 8970   0.588   5.276   2.100
 3002TIP3    H2 8971   0.591   5.383   1.993
 3003TIP3   OH2 8972   3.096   2.220   5.002
 3003TIP3    H1 8973   3.084   2.132   4.967
 3003TIP3    H2 8974   3.156   2.209   5.076
 3004TIP3   OH2 8975   1.335   3.331   1.131
 3004TIP3    H1 8976   1.349   3.239   1.109
 3004TIP3    H2 8977   1.367   3.340   1.220
 3005TIP3   OH2 8978   2.613   5.274   1.361
 3005TIP3    H1 8979   2.640   5.315   1.443
 3005TIP3    H2 8980   2.682   5.211   1.342
 3006TIP3   OH2 8981   6.350   4.375   5.196
 3006TIP3    H1 8982   6.424   4.406   5.249
 3006TIP3    H2 8983   6.387   4.360   5.109
 3007TIP3   OH2 8984   3.034   0.905   2.809
 3007TIP3    H1 8985   3.075   0.966   2.870
 3007TIP3    H2 8986   3.107   0.874   2.755
 3008TIP3   OH2 8987   5.187   6.706   2.581
 3008TIP3    H1 8988   5.201   6.631   2.524
 3008TIP3    H2 8989   5.231   6.779   2.537
 3009TIP3   OH2 8990   1.731   0.753   2.150
 3009TIP3    H1 8991   1.733   0.828   2.209
 3009TIP3    H2 8992   1.702   0.790   2.066
 3010TIP3   OH2 8993   5.482   6.336   5.025
 3010TIP3    H1 8994   5.525   6.409   4.981
 3010TIP3    H2 8995   5.518   6.258   4.981
 3011TIP3   OH2 8996   1.184   3.129   4.196
 3011TIP3    H1 8997   1.275   3.099   4.189
 3011TIP3    H2 8998   1.135   3.069   4.140
 3012TIP3   OH2 8999   1.927   3.381   3.229
 3012TIP3    H1 9000   1.925   3.399   3.323
 3012TIP3    H2 9001   2.019   3.394   3.204
 3013TIP3   OH2 9002   5.880   5.009   4.925
 3013TIP3    H1 9003   5.853   5.098   4.902
 3013TIP3    H2 9004   5.801   4.956   4.913
 3014TIP3   OH2 9005   2.112   5.702   1.442
 3014TIP3    H1 9006   2.111   5.693   1.346
 3014TIP3    H2 9007   2.169   5.777   1.458
 3015TIP3   OH2 9008   3.204   1.787   0.878
 3015TIP3    H1 9009   3.138   1.719   0.866
 3015TIP3    H2 9010   3.220   1.789   0.972
 3016TIP3   OH2 9011   1.497   5.854   0.692
 3016TIP3    H1 9012   1.450   5.930   0.727
 3016TIP3    H2 9013   1.514   5.799   0.768
 3017TIP3   OH2 9014   1.870   2.772   5.006
 3017TIP3    H1 9015   1.815   2.755   4.930
 3017TIP3    H2 9016   1.926   2.694   5.013
 3018TIP3   OH2 9017   1.007   6.457   5.813
 3018TIP3    H1 9018   0.980   6.503   5.733
 3018TIP3    H2 9019   1.085   6.503   5.842
 3019TIP3   OH2 9020   2.308   3.614   2.573
 3019TIP3    H1 9021   2.367   3.556   2.620
 3019TIP3    H2 9022   2.311   3.585   2.482
 3020TIP3   OH2 9023   6.459   0.883   0.834
 3020TIP3    H1 9024   6.488   0.960   0.785
 3020TIP3    H2 9025   6.532   0.821   0.828
 3021TIP3   OH2 9026   4.103   2.778   1.344
 3021TIP3    H1 9027   4.086   2.858   1.392
 3021TIP3    H2 9028   4.026   2.723   1.359
 3022TIP3   OH2 9029   5.662   3.551   2.204
 3022TIP3    H1 9030   5.754   3.565   2.181
 3022TIP3    H2 9031   5.647   3.608   2.279
 3023TIP3   OH2 9032   3.622   2.608   3.728
 3023TIP3    H1 9033   3.546   2.622   3.672
 3023TIP3    H2 9034   3.690   2.663   3.690
 3024TIP3   OH2 9035   5.110   2.293   0.378
 3024TIP3    H1 9036   5.021   2.303   0.412
 3024TIP3    H2 9037   5.133   2.202   0.396
 3025TIP3   OH2 9038   0.272   1.505   2.550
 3025TIP3    H1 9039   0.197   1.565   2.550
 3025TIP3    H2 9040   0.265   1.457   2.632
 3026TIP3   OH2 9041   6.257   6.207   0.945
 3026TIP3    H1 9042   6.197   6.232   0.875
 3026TIP3    H2 9043   6.248   6.275   1.011
 3027TIP3   OH2 9044   1.117   5.215   5.881
 3027TIP3    H1 9045   1.088   5.134   5.923
 3027TIP3    H2 9046   1.120   5.193   5.788
 3028TIP3   OH2 9047   0.811   5.335   0.548
 3028TIP3    H1 9048   0.857   5.258   0.516
 3028TIP3    H2 9049   0.784   5.311   0.637
 3029TIP3   OH2 9050   4.250   2.999   2.271
 3029TIP3    H1 9051   4.206   3.079   2.241
 3029TIP3    H2 9052   4.314   3.030   2.335
 3030TIP3   OH2 9053   6.997   3.472   3.863
 3030TIP3    H1 9054   6.985   3.560   3.898
 3030TIP3    H2 9055   7.090   3.466   3.842
 3031TIP3   OH2 9056   6.356   4.903   3.256
 3031TIP3    H1 9057   6.297   4.840   3.298
 3031TIP3    H2 9058   6.441   4.886   3.295
 3032TIP3   OH2 9059   7.059   4.100   5.576
 3032TIP3    H1 9060   7.079   4.189   5.545
 3032TIP3    H2 9061   6.966   4.088   5.556
 3033TIP3   OH2 9062   2.037   6.741   1.967
 3033TIP3    H1 9063   2.079   6.716   1.885
 3033TIP3    H2 9064   2.062   6.672   2.029
 3034TIP3   OH2 9065   6.809   0.078   3.785
 3034TIP3    H1 9066   6.839  -0.011   3.767
 3034TIP3    H2 9067   6.747   0.097   3.714
 3035TIP3   OH2 9068   0.937   5.048   4.563
 3035TIP3    H1 9069   0.996   5.111   4.522
 3035TIP3    H2 9070   0.993   4.974   4.586
 3036TIP3   OH2 9071   6.562   1.653   3.926
 3036TIP3    H1 9072   6.549   1.572   3.975
 3036TIP3    H2 9073   6.650   1.682   3.951
 3037TIP3   OH2 9074   3.215   3.356   5.117
 3037TIP3    H1 9075   3.246   3.305   5.042
 3037TIP3    H2 9076   3.189   3.291   5.181
 3038TIP3   OH2 9077   5.371   5.502   0.860
 3038TIP3    H1 9078   5.459   5.520   0.826
 3038TIP3    H2 9079   5.375   5.411   0.889
 3039TIP3   OH2 9080   4.778   4.830   5.070
 3039TIP3    H1 9081   4.823   4.856   5.151
 3039TIP3    H2 9082   4.845   4.841   5.002
 3040TIP3   OH2 9083   1.086   5.556   0.400
 3040TIP3    H1 9084   1.001   5.598   0.383
 3040TIP3    H2 9085   1.146   5.629   0.416
 3041TIP3   OH2 9086   1.774   3.988   4.979
 3041TIP3    H1 9087   1.724   4.051   5.032
 3041TIP3    H2 9088   1.714   3.915   4.966
 3042TIP3   OH2 9089   2.052   2.820   1.816
 3042TIP3    H1 9090   2.044   2.898   1.870
 3042TIP3    H2 9091   2.057   2.853   1.726
 3043TIP3   OH2 9092   6.678   0.433   1.207
 3043TIP3    H1 9093   6.744   0.494   1.175
 3043TIP3    H2 9094   6.706   0.410   1.296
 3044TIP3   OH2 9095   3.896   3.211   0.143
 3044TIP3    H1 9096   3.861   3.121   0.144
 3044TIP3    H2 9097   3.979   3.204   0.096
 3045TIP3   OH2 9098   6.671   2.087   0.097
 3045TIP3    H1 9099   6.582   2.082   0.134
 3045TIP3    H2 9100   6.726   2.113   0.171
 3046TIP3   OH2 9101   1.933   4.591   0.321
 3046TIP3    H1 9102   1.893   4.666   0.366
 3046TIP3    H2 9103   1.859   4.534   0.300
 3047TIP3   OH2 9104   5.145   0.899   5.236
 3047TIP3    H1 9105   5.156   0.810   5.270
 3047TIP3    H2 9106   5.207   0.952   5.286
 3048TIP3   OH2 9107   6.525   6.630   5.862
 3048TIP3    H1 9108   6.516   6.721   5.835
 3048TIP3    H2 9109   6.506   6.579   5.783
 3049TIP3   OH2 9110   2.840   6.787   5.393
 3049TIP3    H1 9111   2.860   6.801   5.485
 3049TIP3    H2 9112   2.827   6.692   5.386
 3050TIP3   OH2 9113   5.767   1.046   3.780
 3050TIP3    H1 9114   5.816   0.965   3.761
 3050TIP3    H2 9115   5.676   1.017   3.791
 3051TIP3   OH2 9116   0.566   5.716   1.052
 3051TIP3    H1 9117   0.553   5.622   1.053
 3051TIP3    H2 9118   0.484   5.751   1.017
 3052TIP3   OH2 9119   3.554   3.736   3.486
 3052TIP3    H1 9120   3.605   3.655   3.497
 3052TIP3    H2 9121   3.502   3.722   3.407
 3053TIP3   OH2 9122   5.057   0.839   5.579
 3053TIP3    H1 9123   5.104   0.765   5.540
 3053TIP3    H2 9124   5.106   0.916   5.551
 3054TIP3   OH2 9125   0.293   6.659   1.197
 3054TIP3    H1 9126   0.219   6.602   1.217
 3054TIP3    H2 9127   0.253   6.744   1.178
 3055TIP3   OH2 9128   0.692   1.186   0.633
 3055TIP3    H1 9129   0.644   1.269   0.639
 3055TIP3    H2 9130   0.629   1.120   0.660
 3056TIP3   OH2 9131   1.088   0.712   0.047
 3056TIP3    H1 9132   1.088   0.658   0.125
 3056TIP3    H2 9133   1.103   0.650  -0.025
 3057TIP3   OH2 9134   1.722   2.257   3.750
 3057TIP3    H1 9135   1.804   2.266   3.799
 3057TIP3    H2 9136   1.695   2.347   3.732
 3058TIP3   OH2 9137   4.458   5.135   1.543
 3058TIP3    H1 9138   4.408   5.152   1.463
 3058TIP3    H2 9139   4.506   5.216   1.559
 3059TIP3   OH2 9140   2.921   0.850   3.805
 3059TIP3    H1 9141   2.918   0.943   3.781
 3059TIP3    H2 9142   2.972   0.847   3.885
 3060TIP3   OH2 9143   2.410   6.659   3.275
 3060TIP3    H1 9144   2.356   6.688   3.348
 3060TIP3    H2 9145   2.497   6.695   3.294
 3061TIP3   OH2 9146   6.256   1.780   2.613
 3061TIP3    H1 9147   6.303   1.728   2.678
 3061TIP3    H2 9148   6.207   1.844   2.664
 3062TIP3   OH2 9149   5.592   2.334   2.611
 3062TIP3    H1 9150   5.534   2.331   2.687
 3062TIP3    H2 9151   5.564   2.411   2.562
 3063TIP3   OH2 9152   3.512   1.373   3.252
 3063TIP3    H1 9153   3.526   1.289   3.296
 3063TIP3    H2 9154   3.558   1.365   3.169
 3064TIP3   OH2 9155   3.667   3.121   1.089
 3064TIP3    H1 9156   3.606   3.072   1.144
 3064TIP3    H2 9157   3.711   3.054   1.036
 3065TIP3   OH2 9158   7.144   3.934   1.710
 3065TIP3    H1 9159   7.209   3.994   1.747
 3065TIP3    H2 9160   7.177   3.914   1.623
 3066TIP3   OH2 9161   6.684   0.376   0.166
 3066TIP3    H1 9162   6.698   0.358   0.073
 3066TIP3    H2 9163   6.641   0.298   0.199
 3067TIP3   OH2 9164   6.006   1.832   1.955
 3067TIP3    H1 9165   5.971   1.912   1.995
 3067TIP3    H2 9166   5.934   1.797   1.904
 3068TIP3   OH2 9167   1.786   0.974   2.296
 3068TIP3    H1 9168   1.834   0.919   2.358
 3068TIP3    H2 9169   1.727   1.026   2.351
 3069TIP3   OH2 9170   5.499   3.144   5.719
 3069TIP3    H1 9171   5.426   3.170   5.775
 3069TIP3    H2 9172   5.547   3.079   5.771
 3070TIP3   OH2 9173   3.984   3.198   0.498
 3070TIP3    H1 9174   4.048   3.188   0.427
 3070TIP3    H2 9175   4.006   3.129   0.560
 3071TIP3   OH2 9176   3.305   4.674   2.439
 3071TIP3    H1 9177   3.344   4.636   2.518
 3071TIP3    H2 9178   3.222   4.627   2.427
 3072TIP3   OH2 9179   0.753   0.640   5.464
 3072TIP3    H1 9180   0.765   0.564   5.521
 3072TIP3    H2 9181   0.737   0.604   5.377
 3073TIP3   OH2 9182   1.039   5.284   0.336
 3073TIP3    H1 9183   1.076   5.272   0.249
 3073TIP3    H2 9184   1.045   5.378   0.352
 3074TIP3   OH2 9185   3.828   3.339   5.000
 3074TIP3    H1 9186   3.867   3.318   4.915
 3074TIP3    H2 9187   3.736   3.355   4.980
 3075TIP3   OH2 9188   2.181   3.457   1.128
 3075TIP3    H1 9189   2.261   3.500   1.099
 3075TIP3    H2 9190   2.199   3.363   1.117
 3076TIP3   OH2 9191   4.553   5.446   3.347
 3076TIP3    H1 9192   4.500   5.396   3.286
 3076TIP3    H2 9193   4.492   5.508   3.387
 3077TIP3   OH2 9194   0.215   1.822   0.687
 3077TIP3    H1 9195   0.125   1.789   0.681
 3077TIP3    H2 9196   0.222   1.855   0.777
 3078TIP3   OH2 9197   3.099   2.013   4.437
 3078TIP3    H1 9198   3.130   2.103   4.431
 3078TIP3    H2 9199   3.003   2.021   4.430
 3079TIP3   OH2 9200   5.885   4.291   0.522
 3079TIP3    H1 9201   5.808   4.333   0.484
 3079TIP3    H2 9202   5.868   4.289   0.616
 3080TIP3   OH2 9203   0.705   2.567   5.622
 3080TIP3    H1 9204   0.628   2.517   5.595
 3080TIP3    H2 9205   0.671   2.652   5.649
 3081TIP3   OH2 9206   3.064   6.378   4.060
 3081TIP3    H1 9207   3.101   6.379   3.972
 3081TIP3    H2 9208   2.991   6.439   4.056
 3082TIP3   OH2 9209   4.574   1.173   4.055
 3082TIP3    H1 9210   4.532   1.253   4.022
 3082TIP3    H2 9211   4.502   1.114   4.075
 3083TIP3   OH2 9212   2.770   4.977   2.198
 3083TIP3    H1 9213   2.762   5.017   2.284
 3083TIP3    H2 9214   2.686   4.995   2.155
 3084TIP3   OH2 9215   5.237   5.200   5.240
 3084TIP3    H1 9216   5.256   5.257   5.165
 3084TIP3    H2 9217   5.250   5.111   5.206
 3085TIP3   OH2 9218   5.205   2.327   2.669
 3085TIP3    H1 9219   5.131   2.386   2.654
 3085TIP3    H2 9220   5.251   2.324   2.585
 3086TIP3   OH2 9221   6.604   3.406   5.093
 3086TIP3    H1 9222   6.692   3.409   5.055
 3086TIP3    H2 9223   6.611   3.460   5.172
 3087TIP3   OH2 9224   5.928   5.557   4.483
 3087TIP3    H1 9225   5.868   5.615   4.529
 3087TIP3    H2 9226   5.944   5.601   4.399
 3088TIP3   OH2 9227   0.990   0.405   0.412
 3088TIP3    H1 9228   0.962   0.322   0.372
 3088TIP3    H2 9229   1.059   0.380   0.473
 3089TIP3   OH2 9230   6.404   2.989   4.274
 3089TIP3    H1 9231   6.327   3.039   4.302
 3089TIP3    H2 9232   6.389   2.974   4.181
 3090TIP3   OH2 9233   6.132   4.273   2.061
 3090TIP3    H1 9234   6.092   4.268   1.974
 3090TIP3    H2 9235   6.204   4.335   2.050
 3091TIP3   OH2 9236   4.480   3.820   1.231
 3091TIP3    H1 9237   4.479   3.859   1.143
 3091TIP3    H2 9238   4.518   3.888   1.287
 3092TIP3   OH2 9239   4.282   4.232   4.988
 3092TIP3    H1 9240   4.267   4.285   4.909
 3092TIP3    H2 9241   4.262   4.292   5.061
 3093TIP3   OH2 9242   6.345   1.147   0.318
 3093TIP3    H1 9243   6.297   1.134   0.399
 3093TIP3    H2 9244   6.292   1.210   0.269
 3094TIP3   OH2 9245   6.401   2.471   3.587
 3094TIP3    H1 9246   6.307   2.458   3.590
 3094TIP3    H2 9247   6.412   2.566   3.586
 3095TIP3   OH2 9248   3.104   5.222   1.040
 3095TIP3    H1 9249   3.141   5.197   1.125
 3095TIP3    H2 9250   3.141   5.159   0.978
 3096TIP3   OH2 9251   5.064   6.451   2.876
 3096TIP3    H1 9252   5.019   6.487   2.799
 3096TIP3    H2 9253   5.005   6.384   2.909
 3097TIP3   OH2 9254   6.747   0.459   0.686
 3097TIP3    H1 9255   6.731   0.461   0.592
 3097TIP3    H2 9256   6.809   0.530   0.702
 3098TIP3   OH2 9257   3.778   2.355   2.592
 3098TIP3    H1 9258   3.746   2.407   2.665
 3098TIP3    H2 9259   3.822   2.280   2.632
 3099TIP3   OH2 9260   1.518   3.491   0.788
 3099TIP3    H1 9261   1.612   3.486   0.772
 3099TIP3    H2 9262   1.483   3.538   0.711
 3100TIP3   OH2 9263   0.519   1.885   2.996
 3100TIP3    H1 9264   0.486   1.963   2.951
 3100TIP3    H2 9265   0.441   1.843   3.032
 3101TIP3   OH2 9266   5.167   3.496   1.895
 3101TIP3    H1 9267   5.155   3.530   1.984
 3101TIP3    H2 9268   5.083   3.508   1.853
 3102TIP3   OH2 9269   1.184   5.674   5.679
 3102TIP3    H1 9270   1.272   5.666   5.716
 3102TIP3    H2 9271   1.125   5.656   5.752
 3103TIP3   OH2 9272   3.138   3.622   3.668
 3103TIP3    H1 9273   3.133   3.703   3.618
 3103TIP3    H2 9274   3.097   3.643   3.752
 3104TIP3   OH2 9275   4.564   0.479   1.841
 3104TIP3    H1 9276   4.568   0.477   1.745
 3104TIP3    H2 9277   4.565   0.386   1.866
 3105TIP3   OH2 9278   0.965   0.274   3.992
 3105TIP3    H1 9279   1.015   0.317   3.923
 3105TIP3    H2 9280   0.920   0.345   4.037
 3106TIP3   OH2 9281   4.076   6.367   1.821
 3106TIP3    H1 9282   4.054   6.276   1.802
 3106TIP3    H2 9283   4.090   6.370   1.915
 3107TIP3   OH2 9284   2.193   1.007   2.412
 3107TIP3    H1 9285   2.281   0.971   2.422
 3107TIP3    H2 9286   2.151   0.949   2.348
 3108TIP3   OH2 9287   2.064   4.128   0.993
 3108TIP3    H1 9288   2.047   4.205   0.940
 3108TIP3    H2 9289   2.087   4.163   1.079
 3109TIP3   OH2 9290   2.315   0.032   2.111
 3109TIP3    H1 9291   2.313  -0.007   2.199
 3109TIP3    H2 9292   2.280  -0.036   2.054
 3110TIP3   OH2 9293   4.341   4.136   3.694
 3110TIP3    H1 9294   4.320   4.094   3.611
 3110TIP3    H2 9295   4.424   4.181   3.678
 3111TIP3   OH2 9296   4.578   2.180   4.830
 3111TIP3    H1 9297   4.518   2.249   4.859
 3111TIP3    H2 9298   4.665   2.219   4.837
 3112TIP3   OH2 9299   5.224   0.129   4.388
 3112TIP3    H1 9300   5.300   0.078   4.417
 3112TIP3    H2 9301   5.153   0.066   4.383
 3113TIP3   OH2 9302   2.501   1.391   0.947
 3113TIP3    H1 9303   2.465   1.468   0.904
 3113TIP3    H2 9304   2.429   1.327   0.947
 3114TIP3   OH2 9305   4.617   0.217   5.429
 3114TIP3    H1 9306   4.628   0.250   5.340
 3114TIP3    H2 9307   4.610   0.122   5.418
 3115TIP3   OH2 9308   6.676   4.959   1.953
 3115TIP3    H1 9309   6.712   4.934   2.038
 3115TIP3    H2 9310   6.619   5.034   1.973
 3116TIP3   OH2 9311   6.091   1.395   3.400
 3116TIP3    H1 9312   6.148   1.468   3.426
 3116TIP3    H2 9313   6.003   1.432   3.401
 3117TIP3   OH2 9314   1.610   4.921   1.574
 3117TIP3    H1 9315   1.587   4.989   1.638
 3117TIP3    H2 9316   1.628   4.843   1.627
 3118TIP3   OH2 9317   5.507   2.977   0.675
 3118TIP3    H1 9318   5.412   2.986   0.664
 3118TIP3    H2 9319   5.543   3.005   0.591
 3119TIP3   OH2 9320   3.363   1.773   4.357
 3119TIP3    H1 9321   3.282   1.796   4.310
 3119TIP3    H2 9322   3.404   1.857   4.377
 3120TIP3   OH2 9323   2.579   3.758   3.720
 3120TIP3    H1 9324   2.611   3.669   3.703
 3120TIP3    H2 9325   2.651   3.800   3.767
 3121TIP3   OH2 9326   4.203   4.797   5.735
 3121TIP3    H1 9327   4.183   4.776   5.826
 3121TIP3    H2 9328   4.156   4.879   5.719
 3122TIP3   OH2 9329   3.511   1.769   3.033
 3122TIP3    H1 9330   3.552   1.709   2.972
 3122TIP3    H2 9331   3.548   1.855   3.011
 3123TIP3   OH2 9332   3.627   5.839   0.387
 3123TIP3    H1 9333   3.702   5.877   0.341
 3123TIP3    H2 9334   3.665   5.799   0.466
 3124TIP3   OH2 9335   4.324   4.980   2.996
 3124TIP3    H1 9336   4.322   4.888   2.970
 3124TIP3    H2 9337   4.388   4.984   3.067
 3125TIP3   OH2 9338   5.264   0.330   3.655
 3125TIP3    H1 9339   5.265   0.381   3.736
 3125TIP3    H2 9340   5.201   0.259   3.672
 3126TIP3   OH2 9341   0.689   6.513   4.797
 3126TIP3    H1 9342   0.608   6.506   4.847
 3126TIP3    H2 9343   0.719   6.422   4.786
 3127TIP3   OH2 9344   1.030   1.911   4.941
 3127TIP3    H1 9345   0.959   1.881   4.998
 3127TIP3    H2 9346   1.107   1.914   4.997
 3128TIP3   OH2 9347   1.523   4.640   5.720
 3128TIP3    H1 9348   1.455   4.633   5.787
 3128TIP3    H2 9349   1.499   4.575   5.654
 3129TIP3   OH2 9350   3.066   5.696   1.124
 3129TIP3    H1 9351   3.069   5.790   1.137
 3129TIP3    H2 9352   2.979   5.679   1.088
 3130TIP3   OH2 9353   5.702   0.729   4.681
 3130TIP3    H1 9354   5.642   0.704   4.751
 3130TIP3    H2 9355   5.704   0.824   4.684
 3131TIP3   OH2 9356   3.064   4.207   0.369
 3131TIP3    H1 9357   2.991   4.235   0.313
 3131TIP3    H2 9358   3.083   4.283   0.424
 3132TIP3   OH2 9359   5.792   1.467   2.150
 3132TIP3    H1 9360   5.811   1.533   2.217
 3132TIP3    H2 9361   5.697   1.473   2.137
 3133TIP3   OH2 9362   2.196   1.463   5.044
 3133TIP3    H1 9363   2.227   1.386   4.995
 3133TIP3    H2 9364   2.275   1.515   5.059
 3134TIP3   OH2 9365   4.570   4.958   5.228
 3134TIP3    H1 9366   4.519   5.034   5.256
 3134TIP3    H2 9367   4.633   4.993   5.166
 3135TIP3   OH2 9368   0.300   3.479   1.645
 3135TIP3    H1 9369   0.206   3.460   1.648
 3135TIP3    H2 9370   0.308   3.568   1.679
 3136TIP3   OH2 9371   2.071   6.703   3.267
 3136TIP3    H1 9372   2.039   6.616   3.242
 3136TIP3    H2 9373   2.106   6.691   3.355
 3137TIP3   OH2 9374   0.282   4.384   0.839
 3137TIP3    H1 9375   0.215   4.443   0.874
 3137TIP3    H2 9376   0.253   4.367   0.749
 3138TIP3   OH2 9377   3.646   6.020   2.663
 3138TIP3    H1 9378   3.607   6.046   2.747
 3138TIP3    H2 9379   3.674   5.930   2.676
 3139TIP3   OH2 9380   0.190   5.480   5.511
 3139TIP3    H1 9381   0.231   5.530   5.440
 3139TIP3    H2 9382   0.150   5.547   5.567
 3140TIP3   OH2 9383   2.161   3.005   2.211
 3140TIP3    H1 9384   2.137   2.966   2.295
 3140TIP3    H2 9385   2.240   3.056   2.229
 3141TIP3   OH2 9386   2.129   3.583   1.623
 3141TIP3    H1 9387   2.161   3.495   1.642
 3141TIP3    H2 9388   2.130   3.589   1.528
 3142TIP3   OH2 9389   4.301   2.567   0.046
 3142TIP3    H1 9390   4.225   2.603  -0.002
 3142TIP3    H2 9391   4.354   2.525  -0.022
 3143TIP3   OH2 9392   5.246   3.293   2.564
 3143TIP3    H1 9393   5.281   3.204   2.571
 3143TIP3    H2 9394   5.217   3.315   2.652
 3144TIP3   OH2 9395   7.252   2.481   3.332
 3144TIP3    H1 9396   7.161   2.511   3.332
 3144TIP3    H2 9397   7.252   2.404   3.388
 3145TIP3   OH2 9398   0.385   0.779   2.276
 3145TIP3    H1 9399   0.436   0.850   2.239
 3145TIP3    H2 9400   0.437   0.748   2.350
 3146TIP3   OH2 9401   3.274   5.732   5.774
 3146TIP3    H1 9402   3.209   5.792   5.810
 3146TIP3    H2 9403   3.315   5.781   5.703
 3147TIP3   OH2 9404   6.502   4.691   1.943
 3147TIP3    H1 9405   6.554   4.726   2.015
 3147TIP3    H2 9406   6.567   4.659   1.880
 3148TIP3   OH2 9407   2.744   6.470   2.589
 3148TIP3    H1 9408   2.737   6.550   2.536
 3148TIP3    H2 9409   2.654   6.442   2.603
 3149TIP3   OH2 9410   5.326   3.636   4.886
 3149TIP3    H1 9411   5.285   3.639   4.972
 3149TIP3    H2 9412   5.335   3.542   4.867
 3150TIP3   OH2 9413   7.083   3.701   4.214
 3150TIP3    H1 9414   7.011   3.661   4.262
 3150TIP3    H2 9415   7.090   3.651   4.133
 3151TIP3   OH2 9416   5.665   4.503   0.922
 3151TIP3    H1 9417   5.608   4.578   0.904
 3151TIP3    H2 9418   5.621   4.457   0.994
 3152TIP3   OH2 9419   4.206   0.112   1.570
 3152TIP3    H1 9420   4.118   0.085   1.545
 3152TIP3    H2 9421   4.197   0.150   1.657
 3153TIP3   OH2 9422   1.270   6.765   0.091
 3153TIP3    H1 9423   1.282   6.771   0.186
 3153TIP3    H2 9424   1.261   6.671   0.074
 3154TIP3   OH2 9425   2.369   2.287   2.300
 3154TIP3    H1 9426   2.321   2.218   2.346
 3154TIP3    H2 9427   2.305   2.356   2.287
 3155TIP3   OH2 9428   3.694   0.288   4.698
 3155TIP3    H1 9429   3.647   0.230   4.638
 3155TIP3    H2 9430   3.625   0.336   4.745
 3156TIP3   OH2 9431   3.190   4.905   3.963
 3156TIP3    H1 9432   3.172   4.998   3.951
 3156TIP3    H2 9433   3.286   4.900   3.971
 3157TIP3   OH2 9434   2.164   0.797   0.174
 3157TIP3    H1 9435   2.240   0.754   0.213
 3157TIP3    H2 9436   2.197   0.882   0.144
 3158TIP3   OH2 9437   6.970   3.588   3.446
 3158TIP3    H1 9438   6.906   3.605   3.378
 3158TIP3    H2 9439   7.028   3.521   3.410
 3159TIP3   OH2 9440   2.359   4.503   3.604
 3159TIP3    H1 9441   2.272   4.543   3.608
 3159TIP3    H2 9442   2.374   4.469   3.693
 3160TIP3   OH2 9443   0.042   1.477   2.143
 3160TIP3    H1 9444  -0.049   1.450   2.135
 3160TIP3    H2 9445   0.074   1.430   2.221
 3161TIP3   OH2 9446   2.975   1.641   0.844
 3161TIP3    H1 9447   2.967   1.558   0.891
 3161TIP3    H2 9448   2.916   1.632   0.769
 3162TIP3   OH2 9449   3.739   3.631   2.555
 3162TIP3    H1 9450   3.802   3.597   2.491
 3162TIP3    H2 9451   3.659   3.643   2.505
 3163TIP3   OH2 9452   1.015   4.240   5.692
 3163TIP3    H1 9453   1.027   4.195   5.775
 3163TIP3    H2 9454   0.953   4.310   5.711
 3164TIP3   OH2 9455   4.765   2.353   1.578
 3164TIP3    H1 9456   4.761   2.310   1.664
 3164TIP3    H2 9457   4.827   2.425   1.591
 3165TIP3   OH2 9458   6.910   2.170   5.606
 3165TIP3    H1 9459   6.889   2.240   5.668
 3165TIP3    H2 9460   6.978   2.119   5.650
 3166TIP3   OH2 9461   6.127   4.176   0.443
 3166TIP3    H1 9462   6.092   4.091   0.417
 3166TIP3    H2 9463   6.051   4.226   0.471
 3167TIP3   OH2 9464   3.210   1.027   1.730
 3167TIP3    H1 9465   3.259   0.957   1.687
 3167TIP3    H2 9466   3.146   0.982   1.785
 3168TIP3   OH2 9467   2.202   1.804   2.381
 3168TIP3    H1 9468   2.126   1.752   2.355
 3168TIP3    H2 9469   2.205   1.797   2.476
 3169TIP3   OH2 9470   4.202   3.187   0.315
 3169TIP3    H1 9471   4.296   3.205   0.308
 3169TIP3    H2 9472   4.177   3.159   0.227
 3170TIP3   OH2 9473   5.642   5.630   2.654
 3170TIP3    H1 9474   5.587   5.708   2.647
 3170TIP3    H2 9475   5.641   5.592   2.567
 3171TIP3   OH2 9476   0.865   2.322   2.320
 3171TIP3    H1 9477   0.820   2.272   2.252
 3171TIP3    H2 9478   0.841   2.278   2.402
 3172TIP3   OH2 9479   4.284   2.974   5.050
 3172TIP3    H1 9480   4.224   3.025   4.997
 3172TIP3    H2 9481   4.371   3.000   5.021
 3173TIP3   OH2 9482   4.321   2.103   0.826
 3173TIP3    H1 9483   4.270   2.104   0.907
 3173TIP3    H2 9484   4.328   2.195   0.800
 3174TIP3   OH2 9485   2.665   1.505   4.488
 3174TIP3    H1 9486   2.760   1.495   4.480
 3174TIP3    H2 9487   2.631   1.487   4.400
 3175TIP3   OH2 9488   6.724   6.161   2.860
 3175TIP3    H1 9489   6.761   6.195   2.779
 3175TIP3    H2 9490   6.656   6.100   2.832
 3176TIP3   OH2 9491   5.225   5.236   3.868
 3176TIP3    H1 9492   5.217   5.220   3.962
 3176TIP3    H2 9493   5.264   5.323   3.862
 3177TIP3   OH2 9494   1.588   6.581   1.353
 3177TIP3    H1 9495   1.596   6.632   1.434
 3177TIP3    H2 9496   1.634   6.499   1.371
 3178TIP3   OH2 9497   5.014   2.944   1.633
 3178TIP3    H1 9498   5.097   2.911   1.598
 3178TIP3    H2 9499   4.947   2.896   1.584
 3179TIP3   OH2 9500   7.123   4.064   3.081
 3179TIP3    H1 9501   7.071   4.100   3.153
 3179TIP3    H2 9502   7.149   4.140   3.029
 3180TIP3   OH2 9503   4.115   5.977   5.448
 3180TIP3    H1 9504   4.199   5.950   5.484
 3180TIP3    H2 9505   4.079   5.898   5.408
 3181TIP3   OH2 9506   3.140   0.855   3.470
 3181TIP3    H1 9507   3.060   0.909   3.467
 3181TIP3    H2 9508   3.202   0.901   3.415
 3182TIP3   OH2 9509   7.160   4.757   4.945
 3182TIP3    H1 9510   7.145   4.666   4.970
 3182TIP3    H2 9511   7.072   4.794   4.937
 3183TIP3   OH2 9512   6.353   5.764   0.293
 3183TIP3    H1 9513   6.412   5.741   0.365
 3183TIP3    H2 9514   6.302   5.837   0.327
 3184TIP3   OH2 9515   0.347   0.319   4.142
 3184TIP3    H1 9516   0.429   0.331   4.094
 3184TIP3    H2 9517   0.287   0.281   4.077
 3185TIP3   OH2 9518   3.562   3.040   0.467
 3185TIP3    H1 9519   3.611   2.961   0.490
 3185TIP3    H2 9520   3.625   3.095   0.420
 3186TIP3   OH2 9521   3.996   3.867   3.152
 3186TIP3    H1 9522   4.000   3.953   3.195
 3186TIP3    H2 9523   3.973   3.806   3.223
 3187TIP3   OH2 9524   0.567   6.713   1.067
 3187TIP3    H1 9525   0.546   6.625   1.037
 3187TIP3    H2 9526   0.506   6.729   1.139
 3188TIP3   OH2 9527   0.242   2.192   5.471
 3188TIP3    H1 9528   0.220   2.273   5.515
 3188TIP3    H2 9529   0.246   2.215   5.378
 3189TIP3   OH2 9530   6.223   5.455   3.230
 3189TIP3    H1 9531   6.304   5.501   3.207
 3189TIP3    H2 9532   6.249   5.364   3.241
 3190TIP3   OH2 9533   5.253   5.846   4.383
 3190TIP3    H1 9534   5.158   5.860   4.377
 3190TIP3    H2 9535   5.261   5.765   4.434
 3191TIP3   OH2 9536   2.007   0.051   1.313
 3191TIP3    H1 9537   2.022   0.143   1.334
 3191TIP3    H2 9538   2.044   0.040   1.225
 3192TIP3   OH2 9539   3.678   0.817   5.517
 3192TIP3    H1 9540   3.716   0.734   5.545
 3192TIP3    H2 9541   3.710   0.881   5.580
 3193TIP3   OH2 9542   4.674   2.812   5.372
 3193TIP3    H1 9543   4.756   2.792   5.417
 3193TIP3    H2 9544   4.642   2.728   5.339
 3194TIP3   OH2 9545   5.343   6.699   4.996
 3194TIP3    H1 9546   5.358   6.730   4.906
 3194TIP3    H2 9547   5.256   6.659   4.993
 3195TIP3   OH2 9548   5.785   4.652   2.710
 3195TIP3    H1 9549   5.807   4.700   2.790
 3195TIP3    H2 9550   5.697   4.681   2.689
 3196TIP3   OH2 9551   0.757   5.963   4.104
 3196TIP3    H1 9552   0.732   5.872   4.088
 3196TIP3    H2 9553   0.841   5.973   4.060
 3197TIP3   OH2 9554   1.313   3.772   0.904
 3197TIP3    H1 9555   1.317   3.817   0.820
 3197TIP3    H2 9556   1.403   3.748   0.923
 3198TIP3   OH2 9557   0.651   5.516   0.387
 3198TIP3    H1 9558   0.580   5.554   0.439
 3198TIP3    H2 9559   0.708   5.473   0.451
 3199TIP3   OH2 9560   6.709   2.213   3.853
 3199TIP3    H1 9561   6.652   2.150   3.897
 3199TIP3    H2 9562   6.746   2.164   3.779
 3200TIP3   OH2 9563   3.830   1.930   2.745
 3200TIP3    H1 9564   3.903   1.988   2.725
 3200TIP3    H2 9565   3.869   1.858   2.794
 3201TIP3   OH2 9566   0.904   0.981   2.720
 3201TIP3    H1 9567   0.936   0.988   2.810
 3201TIP3    H2 9568   0.965   0.920   2.678
 3202TIP3   OH2 9569   4.033   3.921   5.816
 3202TIP3    H1 9570   4.026   3.999   5.871
 3202TIP3    H2 9571   4.058   3.954   5.730
 3203TIP3   OH2 9572   1.629   2.744   4.394
 3203TIP3    H1 9573   1.553   2.733   4.337
 3203TIP3    H2 9574   1.690   2.797   4.343
 3204TIP3   OH2 9575   0.131   4.950   5.512
 3204TIP3    H1 9576   0.183   4.871   5.531
 3204TIP3    H2 9577   0.184   5.022   5.545
 3205TIP3   OH2 9578   1.024   1.571   2.932
 3205TIP3    H1 9579   1.086   1.506   2.965
 3205TIP3    H2 9580   0.951   1.567   2.994
 3206TIP3   OH2 9581   3.743   2.478   4.131
 3206TIP3    H1 9582   3.818   2.471   4.073
 3206TIP3    H2 9583   3.688   2.403   4.109
 3207TIP3   OH2 9584   2.042   5.836   5.239
 3207TIP3    H1 9585   2.033   5.740   5.242
 3207TIP3    H2 9586   2.120   5.854   5.292
 3208TIP3   OH2 9587   4.262   4.187   5.823
 3208TIP3    H1 9588   4.340   4.136   5.845
 3208TIP3    H2 9589   4.240   4.160   5.734
 3209TIP3   OH2 9590   2.414   1.491   5.854
 3209TIP3    H1 9591   2.494   1.523   5.813
 3209TIP3    H2 9592   2.352   1.564   5.848
 3210TIP3   OH2 9593   4.408   0.321   0.033
 3210TIP3    H1 9594   4.431   0.308   0.125
 3210TIP3    H2 9595   4.316   0.295   0.028
 3211TIP3   OH2 9596   5.714   4.529   0.392
 3211TIP3    H1 9597   5.704   4.597   0.325
 3211TIP3    H2 9598   5.706   4.576   0.475
 3212TIP3   OH2 9599   4.236   6.658   3.289
 3212TIP3    H1 9600   4.144   6.676   3.269
 3212TIP3    H2 9601   4.233   6.579   3.343
 3213TIP3   OH2 9602   2.970   4.852   0.936
 3213TIP3    H1 9603   2.901   4.915   0.960
 3213TIP3    H2 9604   2.999   4.881   0.849
 3214TIP3   OH2 9605   0.106   0.755   2.718
 3214TIP3    H1 9606   0.157   0.830   2.688
 3214TIP3    H2 9607   0.125   0.749   2.812
 3215TIP3   OH2 9608   0.445   6.049   0.999
 3215TIP3    H1 9609   0.485   5.982   1.056
 3215TIP3    H2 9610   0.515   6.111   0.982
 3216TIP3   OH2 9611   0.743   2.824   4.156
 3216TIP3    H1 9612   0.683   2.896   4.169
 3216TIP3    H2 9613   0.801   2.853   4.085
 3217TIP3   OH2 9614   3.482   2.692   0.716
 3217TIP3    H1 9615   3.575   2.711   0.708
 3217TIP3    H2 9616   3.451   2.683   0.626
 3218TIP3   OH2 9617   0.927   0.982   5.741
 3218TIP3    H1 9618   0.938   0.995   5.835
 3218TIP3    H2 9619   0.848   0.929   5.733
 3219TIP3   OH2 9620   2.308   5.777   2.481
 3219TIP3    H1 9621   2.396   5.738   2.480
 3219TIP3    H2 9622   2.323   5.867   2.511
 3220TIP3   OH2 9623   4.967   3.853   4.780
 3220TIP3    H1 9624   4.953   3.765   4.816
 3220TIP3    H2 9625   5.013   3.901   4.849
 3221TIP3   OH2 9626   3.636   5.891   3.480
 3221TIP3    H1 9627   3.565   5.827   3.479
 3221TIP3    H2 9628   3.602   5.965   3.530
 3222TIP3   OH2 9629   3.442   2.264   5.522
 3222TIP3    H1 9630   3.478   2.260   5.433
 3222TIP3    H2 9631   3.514   2.299   5.575
 3223TIP3   OH2 9632   3.166   4.081   1.541
 3223TIP3    H1 9633   3.074   4.095   1.564
 3223TIP3    H2 9634   3.163   4.032   1.459
 3224TIP3   OH2 9635   4.858   3.512   4.104
 3224TIP3    H1 9636   4.870   3.460   4.025
 3224TIP3    H2 9637   4.916   3.587   4.094
 3225TIP3   OH2 9638   6.720   5.743   2.689
 3225TIP3    H1 9639   6.809   5.779   2.687
 3225TIP3    H2 9640   6.732   5.653   2.721
 3226TIP3   OH2 9641   0.601   0.120   5.660
 3226TIP3    H1 9642   0.684   0.156   5.628
 3226TIP3    H2 9643   0.627   0.040   5.707
 3227TIP3   OH2 9644   6.788   2.848   0.975
 3227TIP3    H1 9645   6.810   2.797   1.053
 3227TIP3    H2 9646   6.742   2.925   1.008
 3228TIP3   OH2 9647   1.374   4.728   3.322
 3228TIP3    H1 9648   1.365   4.672   3.398
 3228TIP3    H2 9649   1.285   4.739   3.288
 3229TIP3   OH2 9650   5.625   4.924   0.759
 3229TIP3    H1 9651   5.659   5.002   0.714
 3229TIP3    H2 9652   5.537   4.911   0.723
 3230TIP3   OH2 9653   5.145   2.615   0.657
 3230TIP3    H1 9654   5.176   2.633   0.746
 3230TIP3    H2 9655   5.093   2.692   0.634
 3231TIP3   OH2 9656   3.669   0.220   5.409
 3231TIP3    H1 9657   3.593   0.168   5.438
 3231TIP3    H2 9658   3.654   0.235   5.316
 3232TIP3   OH2 9659   5.272   1.147   2.357
 3232TIP3    H1 9660   5.265   1.212   2.427
 3232TIP3    H2 9661   5.296   1.066   2.402
 3233TIP3   OH2 9662   6.227   4.845   4.031
 3233TIP3    H1 9663   6.240   4.753   4.051
 3233TIP3    H2 9664   6.302   4.869   3.977
 3234TIP3   OH2 9665   3.355   0.224   3.558
 3234TIP3    H1 9666   3.304   0.250   3.481
 3234TIP3    H2 9667   3.292   0.176   3.613
 3235TIP3   OH2 9668   5.232   0.717   2.604
 3235TIP3    H1 9669   5.146   0.680   2.586
 3235TIP3    H2 9670   5.232   0.735   2.698
 3236TIP3   OH2 9671   2.366   3.697   3.107
 3236TIP3    H1 9672   2.383   3.710   3.014
 3236TIP3    H2 9673   2.329   3.608   3.112
 3237TIP3   OH2 9674   7.160   4.298   1.646
 3237TIP3    H1 9675   7.075   4.258   1.666
 3237TIP3    H2 9676   7.188   4.255   1.565
 3238TIP3   OH2 9677   0.040   6.685   4.959
 3238TIP3    H1 9678   0.033   6.735   4.877
 3238TIP3    H2 9679  -0.044   6.700   5.003
 3239TIP3   OH2 9680   2.694   2.778   1.355
 3239TIP3    H1 9681   2.702   2.862   1.310
 3239TIP3    H2 9682   2.758   2.782   1.426
 3240TIP3   OH2 9683   6.591   6.096   5.529
 3240TIP3    H1 9684   6.545   6.020   5.566
 3240TIP3    H2 9685   6.547   6.113   5.446
 3241TIP3   OH2 9686   2.834   4.185   4.423
 3241TIP3    H1 9687   2.749   4.141   4.427
 3241TIP3    H2 9688   2.882   4.151   4.499
 3242TIP3   OH2 9689   6.887   2.720   3.348
 3242TIP3    H1 9690   6.942   2.751   3.420
 3242TIP3    H2 9691   6.817   2.785   3.341
 3243TIP3   OH2 9692   0.023   2.425   1.177
 3243TIP3    H1 9693   0.018   2.517   1.153
 3243TIP3    H2 9694   0.116   2.404   1.174
 3244TIP3   OH2 9695   3.089   5.891   2.379
 3244TIP3    H1 9696   3.142   5.928   2.449
 3244TIP3    H2 9697   3.109   5.797   2.380
 3245TIP3   OH2 9698   4.686   4.576   3.537
 3245TIP3    H1 9699   4.624   4.555   3.607
 3245TIP3    H2 9700   4.709   4.491   3.499
 3246TIP3   OH2 9701   4.731   5.083   4.160
 3246TIP3    H1 9702   4.711   5.169   4.198
 3246TIP3    H2 9703   4.767   5.103   4.074
 3247TIP3   OH2 9704   2.383   3.591   2.042
 3247TIP3    H1 9705   2.350   3.626   2.125
 3247TIP3    H2 9706   2.479   3.597   2.051
 3248TIP3   OH2 9707   0.652   3.442   5.048
 3248TIP3    H1 9708   0.727   3.497   5.068
 3248TIP3    H2 9709   0.660   3.424   4.954
 3249TIP3   OH2 9710   3.682   2.796   2.610
 3249TIP3    H1 9711   3.622   2.803   2.684
 3249TIP3    H2 9712   3.666   2.708   2.575
 3250TIP3   OH2 9713   2.585   3.462   4.553
 3250TIP3    H1 9714   2.552   3.547   4.522
 3250TIP3    H2 9715   2.599   3.475   4.647
 3251TIP3   OH2 9716   4.923   4.940   4.841
 3251TIP3    H1 9717   5.010   4.908   4.816
 3251TIP3    H2 9718   4.881   4.961   4.758
 3252TIP3   OH2 9719   2.186   3.757   4.824
 3252TIP3    H1 9720   2.137   3.709   4.758
 3252TIP3    H2 9721   2.256   3.800   4.776
 3253TIP3   OH2 9722   6.798   6.089   2.448
 3253TIP3    H1 9723   6.761   6.155   2.389
 3253TIP3    H2 9724   6.846   6.140   2.513
 3254TIP3   OH2 9725   3.349   6.340   2.398
 3254TIP3    H1 9726   3.425   6.397   2.391
 3254TIP3    H2 9727   3.385   6.254   2.420
 3255TIP3   OH2 9728   6.526   4.053   5.809
 3255TIP3    H1 9729   6.619   4.031   5.817
 3255TIP3    H2 9730   6.485   3.972   5.777
 3256TIP3   OH2 9731   4.402   3.613   5.349
 3256TIP3    H1 9732   4.398   3.559   5.270
 3256TIP3    H2 9733   4.411   3.550   5.421
 3257TIP3   OH2 9734   4.525   2.372   3.886
 3257TIP3    H1 9735   4.432   2.352   3.876
 3257TIP3    H2 9736   4.542   2.359   3.979
 3258TIP3   OH2 9737   4.290   4.438   2.262
 3258TIP3    H1 9738   4.340   4.480   2.331
 3258TIP3    H2 9739   4.320   4.481   2.181
 3259TIP3   OH2 9740   1.580   5.889   3.612
 3259TIP3    H1 9741   1.626   5.951   3.668
 3259TIP3    H2 9742   1.510   5.854   3.668
 3260TIP3   OH2 9743   0.281   6.371   5.658
 3260TIP3    H1 9744   0.375   6.359   5.647
 3260TIP3    H2 9745   0.268   6.466   5.650
 3261TIP3   OH2 9746   5.316   3.151   5.505
 3261TIP3    H1 9747   5.355   3.200   5.432
 3261TIP3    H2 9748   5.383   3.155   5.574
 3262TIP3   OH2 9749   1.232   4.036   5.464
 3262TIP3    H1 9750   1.318   4.020   5.502
 3262TIP3    H2 9751   1.227   4.131   5.453
 3263TIP3   OH2 9752   3.141   1.365   4.235
 3263TIP3    H1 9753   3.144   1.286   4.288
 3263TIP3    H2 9754   3.215   1.417   4.266
 3264TIP3   OH2 9755   4.321   4.326   3.887
 3264TIP3    H1 9756   4.265   4.255   3.856
 3264TIP3    H2 9757   4.405   4.284   3.906
 3265TIP3   OH2 9758   5.406   6.160   4.142
 3265TIP3    H1 9759   5.455   6.173   4.061
 3265TIP3    H2 9760   5.371   6.071   4.134
 3266TIP3   OH2 9761   1.919   1.446   3.833
 3266TIP3    H1 9762   2.010   1.458   3.861
 3266TIP3    H2 9763   1.873   1.522   3.868
 3267TIP3   OH2 9764   1.580   5.598   5.647
 3267TIP3    H1 9765   1.621   5.666   5.699
 3267TIP3    H2 9766   1.625   5.518   5.672
 3268TIP3   OH2 9767   1.456   3.475   5.503
 3268TIP3    H1 9768   1.485   3.431   5.583
 3268TIP3    H2 9769   1.409   3.408   5.454
 3269TIP3   OH2 9770   4.526   6.632   3.750
 3269TIP3    H1 9771   4.549   6.623   3.658
 3269TIP3    H2 9772   4.530   6.543   3.785
 3270TIP3   OH2 9773   2.702   3.751   4.650
 3270TIP3    H1 9774   2.670   3.786   4.567
 3270TIP3    H2 9775   2.710   3.657   4.635
 3271TIP3   OH2 9776   6.970   5.419   1.535
 3271TIP3    H1 9777   7.036   5.478   1.571
 3271TIP3    H2 9778   7.015   5.335   1.526
 3272TIP3   OH2 9779   0.615   1.127   0.994
 3272TIP3    H1 9780   0.525   1.099   1.009
 3272TIP3    H2 9781   0.621   1.213   1.037
 3273TIP3   OH2 9782   4.255   4.280   0.192
 3273TIP3    H1 9783   4.320   4.294   0.260
 3273TIP3    H2 9784   4.274   4.347   0.126
 3274TIP3   OH2 9785   4.413   1.368   4.305
 3274TIP3    H1 9786   4.468   1.297   4.272
 3274TIP3    H2 9787   4.346   1.379   4.237
 3275TIP3   OH2 9788   1.623   0.030   0.363
 3275TIP3    H1 9789   1.557   0.003   0.299
 3275TIP3    H2 9790   1.643  -0.050   0.412
 3276TIP3   OH2 9791   2.715   6.358   4.455
 3276TIP3    H1 9792   2.783   6.420   4.482
 3276TIP3    H2 9793   2.636   6.388   4.501
 3277TIP3   OH2 9794   1.804   1.777   0.679
 3277TIP3    H1 9795   1.762   1.852   0.638
 3277TIP3    H2 9796   1.741   1.747   0.745
 3278TIP3   OH2 9797   2.883   1.361   4.682
 3278TIP3    H1 9798   2.912   1.450   4.703
 3278TIP3    H2 9799   2.919   1.344   4.595
 3279TIP3   OH2 9800   2.154   1.438   1.783
 3279TIP3    H1 9801   2.196   1.496   1.719
 3279TIP3    H2 9802   2.060   1.448   1.767
 3280TIP3   OH2 9803   1.148   4.784   5.575
 3280TIP3    H1 9804   1.118   4.693   5.578
 3280TIP3    H2 9805   1.109   4.825   5.653
 3281TIP3   OH2 9806   1.719   1.424   5.116
 3281TIP3    H1 9807   1.745   1.334   5.096
 3281TIP3    H2 9808   1.624   1.419   5.128
 3282TIP3   OH2 9809   7.168   2.095   3.859
 3282TIP3    H1 9810   7.228   2.117   3.931
 3282TIP3    H2 9811   7.087   2.069   3.902
 3283TIP3   OH2 9812   2.729   1.986   0.321
 3283TIP3    H1 9813   2.662   2.044   0.283
 3283TIP3    H2 9814   2.703   1.898   0.294
 3284TIP3   OH2 9815   2.494   3.048   5.209
 3284TIP3    H1 9816   2.451   2.964   5.194
 3284TIP3    H2 9817   2.571   3.045   5.151
 3285TIP3   OH2 9818   3.881   6.031   5.828
 3285TIP3    H1 9819   3.956   6.070   5.781
 3285TIP3    H2 9820   3.828   6.107   5.854
 3286TIP3   OH2 9821   2.543   2.123   3.167
 3286TIP3    H1 9822   2.570   2.205   3.126
 3286TIP3    H2 9823   2.453   2.110   3.137
 3287TIP3   OH2 9824   6.870   5.864   5.379
 3287TIP3    H1 9825   6.781   5.838   5.357
 3287TIP3    H2 9826   6.908   5.787   5.419
 3288TIP3   OH2 9827   1.629   3.301   1.938
 3288TIP3    H1 9828   1.694   3.362   1.905
 3288TIP3    H2 9829   1.647   3.219   1.892
 3289TIP3   OH2 9830   5.226   4.439   5.410
 3289TIP3    H1 9831   5.290   4.412   5.476
 3289TIP3    H2 9832   5.256   4.398   5.329
 3290TIP3   OH2 9833   6.138   1.942   2.786
 3290TIP3    H1 9834   6.056   1.990   2.795
 3290TIP3    H2 9835   6.199   1.986   2.844
 3291TIP3   OH2 9836   0.163   1.187   0.923
 3291TIP3    H1 9837   0.222   1.258   0.902
 3291TIP3    H2 9838   0.100   1.225   0.984
 3292TIP3   OH2 9839   3.430   0.464   2.501
 3292TIP3    H1 9840   3.434   0.382   2.451
 3292TIP3    H2 9841   3.348   0.459   2.549
 3293TIP3   OH2 9842   2.729   3.901   1.210
 3293TIP3    H1 9843   2.698   3.945   1.290
 3293TIP3    H2 9844   2.660   3.839   1.189
 3294TIP3   OH2 9845   1.061   2.623   4.382
 3294TIP3    H1 9846   1.060   2.604   4.288
 3294TIP3    H2 9847   0.982   2.674   4.396
 3295TIP3   OH2 9848   1.506   2.862   1.030
 3295TIP3    H1 9849   1.582   2.898   0.985
 3295TIP3    H2 9850   1.543   2.801   1.094
 3296TIP3   OH2 9851   0.194   6.163   3.723
 3296TIP3    H1 9852   0.243   6.152   3.641
 3296TIP3    H2 9853   0.213   6.084   3.773
 3297TIP3   OH2 9854   3.508   4.219   1.962
 3297TIP3    H1 9855   3.578   4.197   1.900
 3297TIP3    H2 9856   3.441   4.261   1.909
 3298TIP3   OH2 9857   2.776   0.818   0.430
 3298TIP3    H1 9858   2.852   0.871   0.405
 3298TIP3    H2 9859   2.704   0.855   0.380
 3299TIP3   OH2 9860   2.465   0.610   1.822
 3299TIP3    H1 9861   2.543   0.584   1.774
 3299TIP3    H2 9862   2.448   0.700   1.795
 3300TIP3   OH2 9863   2.004   0.875   0.530
 3300TIP3    H1 9864   2.061   0.943   0.494
 3300TIP3    H2 9865   1.945   0.852   0.458
 3301TIP3   OH2 9866   2.111   6.754   5.453
 3301TIP3    H1 9867   2.026   6.797   5.465
 3301TIP3    H2 9868   2.126   6.708   5.536
 3302TIP3   OH2 9869   5.524   0.305   4.727
 3302TIP3    H1 9870   5.581   0.275   4.797
 3302TIP3    H2 9871   5.458   0.359   4.771
 3303TIP3   OH2 9872   3.526   1.622   0.969
 3303TIP3    H1 9873   3.483   1.602   0.885
 3303TIP3    H2 9874   3.480   1.699   1.002
 3304TIP3   OH2 9875   6.955   0.142   0.185
 3304TIP3    H1 9876   6.927   0.119   0.274
 3304TIP3    H2 9877   6.938   0.063   0.134
 3305TIP3   OH2 9878   3.459   5.110   3.839
 3305TIP3    H1 9879   3.486   5.139   3.752
 3305TIP3    H2 9880   3.372   5.147   3.852
 3306TIP3   OH2 9881   3.368   1.205   2.300
 3306TIP3    H1 9882   3.423   1.131   2.325
 3306TIP3    H2 9883   3.422   1.256   2.240
 3307TIP3   OH2 9884   3.488   6.758   4.345
 3307TIP3    H1 9885   3.458   6.763   4.435
 3307TIP3    H2 9886   3.472   6.667   4.319
 3308TIP3   OH2 9887   1.077   0.129   3.000
 3308TIP3    H1 9888   1.114   0.041   3.009
 3308TIP3    H2 9889   1.004   0.119   2.940
 3309TIP3   OH2 9890   6.889   5.623   0.323
 3309TIP3    H1 9891   6.950   5.687   0.357
 3309TIP3    H2 9892   6.807   5.671   0.312
 3310TIP3   OH2 9893   6.679   6.634   0.658
 3310TIP3    H1 9894   6.592   6.676   0.659
 3310TIP3    H2 9895   6.662   6.546   0.625
 3311TIP3   OH2 9896   6.490   6.179   3.687
 3311TIP3    H1 9897   6.492   6.265   3.730
 3311TIP3    H2 9898   6.577   6.142   3.705
 3312TIP3   OH2 9899   1.762   0.113   3.100
 3312TIP3    H1 9900   1.819   0.140   3.172
 3312TIP3    H2 9901   1.678   0.156   3.120
 3313TIP3   OH2 9902   3.219   5.590   0.216
 3313TIP3    H1 9903   3.314   5.581   0.228
 3313TIP3    H2 9904   3.201   5.542   0.134
 3314TIP3   OH2 9905   6.263   3.285   2.088
 3314TIP3    H1 9906   6.245   3.214   2.026
 3314TIP3    H2 9907   6.356   3.304   2.076
 3315TIP3   OH2 9908   6.995   4.120   0.267
 3315TIP3    H1 9909   6.966   4.046   0.214
 3315TIP3    H2 9910   7.034   4.181   0.204
 3316TIP3   OH2 9911   4.414   4.558   2.490
 3316TIP3    H1 9912   4.422   4.554   2.585
 3316TIP3    H2 9913   4.485   4.617   2.463
 3317TIP3   OH2 9914   0.981   1.222   2.588
 3317TIP3    H1 9915   0.955   1.138   2.626
 3317TIP3    H2 9916   0.909   1.281   2.609
 3318TIP3   OH2 9917   4.478   0.915   1.432
 3318TIP3    H1 9918   4.448   0.837   1.385
 3318TIP3    H2 9919   4.535   0.881   1.502
 3319TIP3   OH2 9920   3.695   4.573   5.733
 3319TIP3    H1 9921   3.744   4.495   5.758
 3319TIP3    H2 9922   3.758   4.645   5.744
 3320TIP3   OH2 9923   0.735   3.722   0.148
 3320TIP3    H1 9924   0.754   3.635   0.114
 3320TIP3    H2 9925   0.641   3.721   0.166
 3321TIP3   OH2 9926   6.192   3.141   4.351
 3321TIP3    H1 9927   6.256   3.206   4.322
 3321TIP3    H2 9928   6.108   3.173   4.319
 3322TIP3   OH2 9929   3.322   6.520   1.562
 3322TIP3    H1 9930   3.405   6.510   1.516
 3322TIP3    H2 9931   3.346   6.525   1.655
 3323TIP3   OH2 9932   6.015   6.667   2.765
 3323TIP3    H1 9933   6.078   6.612   2.811
 3323TIP3    H2 9934   6.033   6.756   2.796
 3324TIP3   OH2 9935   2.254   5.479   0.703
 3324TIP3    H1 9936   2.184   5.538   0.676
 3324TIP3    H2 9937   2.263   5.418   0.629
 3325TIP3   OH2 9938   6.317   4.701   1.271
 3325TIP3    H1 9939   6.378   4.641   1.312
 3325TIP3    H2 9940   6.372   4.766   1.226
 3326TIP3   OH2 9941   5.491   0.515   2.041
 3326TIP3    H1 9942   5.478   0.445   2.104
 3326TIP3    H2 9943   5.470   0.476   1.956
 3327TIP3   OH2 9944   2.770   3.548   1.210
 3327TIP3    H1 9945   2.820   3.529   1.130
 3327TIP3    H2 9946   2.799   3.481   1.272
 3328TIP3   OH2 9947   1.247   2.151   3.284
 3328TIP3    H1 9948   1.275   2.241   3.300
 3328TIP3    H2 9949   1.194   2.128   3.361
 3329TIP3   OH2 9950   2.527   1.133   4.676
 3329TIP3    H1 9951   2.509   1.221   4.642
 3329TIP3    H2 9952   2.449   1.083   4.652
 3330TIP3   OH2 9953   3.925   3.684   4.947
 3330TIP3    H1 9954   3.993   3.630   4.906
 3330TIP3    H2 9955   3.949   3.774   4.924
 3331TIP3   OH2 9956   5.344   4.047   2.070
 3331TIP3    H1 9957   5.300   4.013   2.147
 3331TIP3    H2 9958   5.378   4.133   2.098
 3332TIP3   OH2 9959   1.432   5.868   3.308
 3332TIP3    H1 9960   1.448   5.886   3.215
 3332TIP3    H2 9961   1.506   5.909   3.353
 3333TIP3   OH2 9962   0.094   1.869   2.605
 3333TIP3    H1 9963   0.082   1.777   2.579
 3333TIP3    H2 9964   0.175   1.868   2.656
 3334TIP3   OH2 9965   3.946   3.474   0.600
 3334TIP3    H1 9966   3.959   3.386   0.565
 3334TIP3    H2 9967   3.911   3.525   0.527
 3335TIP3   OH2 9968   7.263   1.119   3.497
 3335TIP3    H1 9969   7.192   1.122   3.433
 3335TIP3    H2 9970   7.228   1.065   3.569
 3336TIP3   OH2 9971   7.184   1.358   0.484
 3336TIP3    H1 9972   7.183   1.440   0.533
 3336TIP3    H2 9973   7.130   1.375   0.406
 3337TIP3   OH2 9974   0.471   5.078   5.866
 3337TIP3    H1 9975   0.436   5.003   5.914
 3337TIP3    H2 9976   0.558   5.050   5.838
 3338TIP3   OH2 9977   5.947   2.056   4.971
 3338TIP3    H1 9978   5.965   1.963   4.963
 3338TIP3    H2 9979   6.027   2.094   5.008
 3339TIP3   OH2 9980   2.692   6.522   4.814
 3339TIP3    H1 9981   2.740   6.440   4.820
 3339TIP3    H2 9982   2.758   6.586   4.787
 3340TIP3   OH2 9983   3.607   2.417   0.654
 3340TIP3    H1 9984   3.549   2.391   0.726
 3340TIP3    H2 9985   3.620   2.511   0.666
 3341TIP3   OH2 9986   3.578   2.011   1.871
 3341TIP3    H1 9987   3.622   2.012   1.786
 3341TIP3    H2 9988   3.640   1.967   1.929
 3342TIP3   OH2 9989   5.024   6.594   3.492
 3342TIP3    H1 9990   5.115   6.586   3.521
 3342TIP3    H2 9991   5.007   6.688   3.492
 3343TIP3   OH2 9992   4.003   1.979   4.931
 3343TIP3    H1 9993   3.937   1.974   4.861
 3343TIP3    H2 9994   4.040   1.891   4.935
 3344TIP3   OH2 9995   2.703   3.117   5.044
 3344TIP3    H1 9996   2.666   3.064   4.973
 3344TIP3    H2 9997   2.791   3.139   5.014
 3345TIP3   OH2 9998   6.472   1.769   3.676
 3345TIP3    H1 9999   6.377   1.765   3.683
 3345TIP3    H210000   6.504   1.738   3.761
 3346TIP3   OH210001   6.822   6.024   0.285
 3346TIP3    H110002   6.880   6.059   0.353
 3346TIP3    H210003   6.814   6.095   0.221
 3347TIP3   OH210004   1.796   4.334   2.860
 3347TIP3    H110005   1.877   4.372   2.825
 3347TIP3    H210006   1.825   4.261   2.914
 3348TIP3   OH210007   6.496   0.447   0.761
 3348TIP3    H110008   6.484   0.452   0.666
 3348TIP3    H210009   6.579   0.490   0.777
 3349TIP3   OH210010   1.166   3.197   0.943
 3349TIP3    H110011   1.188   3.290   0.936
 3349TIP3    H210012   1.244   3.157   0.982
 3350TIP3   OH210013   2.359   3.205   4.687
 3350TIP3    H110014   2.454   3.208   4.703
 3350TIP3    H210015   2.323   3.266   4.751
 3351TIP3   OH210016   6.952   1.451   0.705
 3351TIP3    H110017   6.874   1.431   0.652
 3351TIP3    H210018   6.936   1.408   0.789
 3352TIP3   OH210019   0.977   1.034   2.093
 3352TIP3    H110020   1.061   1.017   2.137
 3352TIP3    H210021   0.997   1.101   2.027
 3353TIP3   OH210022   6.464   0.473   3.803
 3353TIP3    H110023   6.375   0.462   3.836
 3353TIP3    H210024   6.489   0.386   3.773
 3354TIP3   OH210025   0.967   3.300   3.709
 3354TIP3    H110026   0.972   3.395   3.722
 3354TIP3    H210027   1.012   3.264   3.785
 3355TIP3   OH210028   3.021   4.885   3.712
 3355TIP3    H110029   3.052   4.912   3.799
 3355TIP3    H210030   3.087   4.919   3.651
 3356TIP3   OH210031   0.971   6.579   1.937
 3356TIP3    H110032   0.922   6.508   1.980
 3356TIP3    H210033   0.903   6.638   1.904
 3357TIP3   OH210034   2.918   0.300   0.917
 3357TIP3    H110035   2.994   0.248   0.891
 3357TIP3    H210036   2.935   0.386   0.879
 3358TIP3   OH210037   3.542   3.644   1.004
 3358TIP3    H110038   3.585   3.559   0.989
 3358TIP3    H210039   3.463   3.641   0.950
 3359TIP3   OH210040   0.604   2.564   3.536
 3359TIP3    H110041   0.662   2.555   3.611
 3359TIP3    H210042   0.607   2.478   3.493
 3360TIP3   OH210043   6.933   3.392   0.287
 3360TIP3    H110044   6.854   3.338   0.290
 3360TIP3    H210045   6.918   3.453   0.214
 3361TIP3   OH210046   5.696   5.076   0.526
 3361TIP3    H110047   5.744   5.006   0.481
 3361TIP3    H210048   5.676   5.139   0.457
 3362TIP3   OH210049   6.086   4.969   5.479
 3362TIP3    H110050   5.994   4.948   5.461
 3362TIP3    H210051   6.094   5.063   5.462
 3363TIP3   OH210052   3.525   3.231   5.884
 3363TIP3    H110053   3.507   3.232   5.790
 3363TIP3    H210054   3.501   3.318   5.914
 3364TIP3   OH210055   6.886   3.371   4.483
 3364TIP3    H110056   6.796   3.356   4.456
 3364TIP3    H210057   6.916   3.287   4.517
 3365TIP3   OH210058   6.505   1.418   1.858
 3365TIP3    H110059   6.521   1.338   1.908
 3365TIP3    H210060   6.411   1.434   1.867
 3366TIP3   OH210061   1.466   2.020   5.417
 3366TIP3    H110062   1.543   2.019   5.474
 3366TIP3    H210063   1.409   1.952   5.453
 3367TIP3   OH210064   3.738   6.559   3.294
 3367TIP3    H110065   3.663   6.609   3.262
 3367TIP3    H210066   3.764   6.603   3.374
 3368TIP3   OH210067   3.756   5.320   3.503
 3368TIP3    H110068   3.728   5.408   3.529
 3368TIP3    H210069   3.794   5.331   3.416
 3369TIP3   OH210070   2.136   0.629   5.638
 3369TIP3    H110071   2.098   0.620   5.551
 3369TIP3    H210072   2.163   0.720   5.644
 3370TIP3   OH210073   5.819   6.008   0.672
 3370TIP3    H110074   5.840   5.924   0.631
 3370TIP3    H210075   5.750   5.988   0.735
 3371TIP3   OH210076   5.964   3.609   0.423
 3371TIP3    H110077   5.935   3.688   0.468
 3371TIP3    H210078   6.021   3.641   0.353
 3372TIP3   OH210079   2.494   1.323   3.904
 3372TIP3    H110080   2.485   1.283   3.817
 3372TIP3    H210081   2.491   1.417   3.887
 3373TIP3   OH210082   0.764   1.809   2.878
 3373TIP3    H110083   0.849   1.851   2.869
 3373TIP3    H210084   0.718   1.860   2.945
 3374TIP3   OH210085   5.751   6.678   2.718
 3374TIP3    H110086   5.840   6.645   2.718
 3374TIP3    H210087   5.705   6.627   2.785
 3375TIP3   OH210088   5.587   4.093   1.141
 3375TIP3    H110089   5.629   4.007   1.141
 3375TIP3    H210090   5.522   4.088   1.211
 3376TIP3   OH210091   4.399   3.425   2.966
 3376TIP3    H110092   4.367   3.354   2.910
 3376TIP3    H210093   4.361   3.405   3.052
 3377TIP3   OH210094   7.039   6.325   5.449
 3377TIP3    H110095   6.987   6.245   5.457
 3377TIP3    H210096   7.130   6.295   5.462
 3378TIP3   OH210097   6.037   2.560   4.823
 3378TIP3    H110098   6.125   2.524   4.834
 3378TIP3    H210099   5.980   2.495   4.863
 3379TIP3   OH210100   0.418   0.624   0.913
 3379TIP3    H110101   0.484   0.649   0.978
 3379TIP3    H210102   0.341   0.600   0.964
 3380TIP3   OH210103   6.185   2.131   5.077
 3380TIP3    H110104   6.236   2.060   5.038
 3380TIP3    H210105   6.244   2.172   5.140
 3381TIP3   OH210106   0.265   4.080   2.920
 3381TIP3    H110107   0.244   4.089   3.013
 3381TIP3    H210108   0.206   4.141   2.876
 3382TIP3   OH210109   1.772   3.543   0.970
 3382TIP3    H110110   1.797   3.502   0.888
 3382TIP3    H210111   1.789   3.476   1.037
 3383TIP3   OH210112   3.200   5.499   2.735
 3383TIP3    H110113   3.206   5.594   2.736
 3383TIP3    H210114   3.161   5.477   2.820
 3384TIP3   OH210115   4.497   6.679   0.657
 3384TIP3    H110116   4.496   6.750   0.722
 3384TIP3    H210117   4.409   6.642   0.660
 3385TIP3   OH210118   1.315   2.211   0.709
 3385TIP3    H110119   1.329   2.227   0.803
 3385TIP3    H210120   1.349   2.290   0.666
 3386TIP3   OH210121   2.319   1.197   0.843
 3386TIP3    H110122   2.315   1.137   0.918
 3386TIP3    H210123   2.238   1.183   0.796
 3387TIP3   OH210124   7.089   1.511   5.338
 3387TIP3    H110125   7.074   1.419   5.360
 3387TIP3    H210126   7.068   1.516   5.244
 3388TIP3   OH210127   6.619   4.890   2.613
 3388TIP3    H110128   6.622   4.844   2.697
 3388TIP3    H210129   6.527   4.915   2.603
 3389TIP3   OH210130   0.400   0.622   4.837
 3389TIP3    H110131   0.317   0.610   4.883
 3389TIP3    H210132   0.375   0.657   4.751
 3390TIP3   OH210133   3.504   5.592   0.292
 3390TIP3    H110134   3.523   5.684   0.312
 3390TIP3    H210135   3.488   5.552   0.377
 3391TIP3   OH210136   3.020   0.969   0.473
 3391TIP3    H110137   3.033   0.883   0.513
 3391TIP3    H210138   3.087   0.974   0.405
 3392TIP3   OH210139   5.239   5.943   1.835
 3392TIP3    H110140   5.235   5.907   1.746
 3392TIP3    H210141   5.314   6.003   1.832
 3393TIP3   OH210142   1.286   6.239   4.459
 3393TIP3    H110143   1.310   6.161   4.409
 3393TIP3    H210144   1.301   6.215   4.551
 3394TIP3   OH210145   2.710   4.815   0.336
 3394TIP3    H110146   2.711   4.822   0.241
 3394TIP3    H210147   2.633   4.761   0.356
 3395TIP3   OH210148   4.473   0.745   5.846
 3395TIP3    H110149   4.437   0.688   5.779
 3395TIP3    H210150   4.397   0.769   5.900
 3396TIP3   OH210151   2.191   4.967   5.081
 3396TIP3    H110152   2.170   4.962   4.988
 3396TIP3    H210153   2.107   4.964   5.125
 3397TIP3   OH210154   3.516   3.089   2.013
 3397TIP3    H110155   3.548   3.175   1.985
 3397TIP3    H210156   3.582   3.028   1.982
 3398TIP3   OH210157   3.408   0.006   4.321
 3398TIP3    H110158   3.333   0.060   4.294
 3398TIP3    H210159   3.479   0.069   4.335
 3399TIP3   OH210160   4.973   6.622   5.305
 3399TIP3    H110161   5.064   6.626   5.334
 3399TIP3    H210162   4.935   6.705   5.332
 3400TIP3   OH210163   1.237   0.426   1.491
 3400TIP3    H110164   1.225   0.495   1.426
 3400TIP3    H210165   1.332   0.413   1.495
 3401TIP3   OH210166   2.855   4.029   5.053
 3401TIP3    H110167   2.760   4.028   5.041
 3401TIP3    H210168   2.889   4.003   4.967
 3402TIP3   OH210169   1.884   5.495   3.215
 3402TIP3    H110170   1.969   5.465   3.246
 3402TIP3    H210171   1.901   5.525   3.125
 3403TIP3   OH210172   6.134   0.116   3.256
 3403TIP3    H110173   6.152   0.166   3.336
 3403TIP3    H210174   6.057   0.063   3.278
 3404TIP3   OH210175   5.454   6.136   1.479
 3404TIP3    H110176   5.397   6.062   1.455
 3404TIP3    H210177   5.457   6.133   1.575
 3405TIP3   OH210178   5.119   2.050   0.485
 3405TIP3    H110179   5.069   1.975   0.518
 3405TIP3    H210180   5.173   2.077   0.560
 3406TIP3   OH210181   0.668   3.616   2.741
 3406TIP3    H110182   0.618   3.691   2.710
 3406TIP3    H210183   0.613   3.574   2.806
 3407TIP3   OH210184   1.725   2.255   3.431
 3407TIP3    H110185   1.715   2.205   3.351
 3407TIP3    H210186   1.780   2.200   3.488
 3408TIP3   OH210187   5.688   1.761   0.282
 3408TIP3    H110188   5.686   1.834   0.220
 3408TIP3    H210189   5.597   1.752   0.312
 3409TIP3   OH210190   2.361   0.115   0.906
 3409TIP3    H110191   2.451   0.119   0.938
 3409TIP3    H210192   2.325   0.202   0.923
 3410TIP3   OH210193   5.068   6.494   0.012
 3410TIP3    H110194   5.103   6.562   0.070
 3410TIP3    H210195   5.008   6.541  -0.046
 3411TIP3   OH210196   6.835   2.877   5.568
 3411TIP3    H110197   6.780   2.868   5.490
 3411TIP3    H210198   6.912   2.925   5.538
 3412TIP3   OH210199   5.012   1.752   2.972
 3412TIP3    H110200   5.039   1.667   3.007
 3412TIP3    H210201   5.092   1.789   2.934
 3413TIP3   OH210202   1.323   0.708   0.706
 3413TIP3    H110203   1.334   0.789   0.755
 3413TIP3    H210204   1.233   0.711   0.673
 3414TIP3   OH210205   6.413   6.698   2.660
 3414TIP3    H110206   6.442   6.732   2.576
 3414TIP3    H210207   6.356   6.623   2.638
 3415TIP3   OH210208   0.047   0.665   4.681
 3415TIP3    H110209   0.004   0.635   4.601
 3415TIP3    H210210   0.073   0.755   4.662
 3416TIP3   OH210211   1.021   4.209   3.870
 3416TIP3    H110212   1.085   4.237   3.805
 3416TIP3    H210213   1.072   4.188   3.948
 3417TIP3   OH210214   6.815   4.916   1.717
 3417TIP3    H110215   6.777   4.942   1.801
 3417TIP3    H210216   6.796   4.823   1.710
 3418TIP3   OH210217   5.298   1.423   5.760
 3418TIP3    H110218   5.211   1.462   5.762
 3418TIP3    H210219   5.358   1.497   5.770
 3419TIP3   OH210220   5.345   2.286   4.231
 3419TIP3    H110221   5.369   2.208   4.281
 3419TIP3    H210222   5.267   2.319   4.276
 3420TIP3   OH210223   6.343   1.858   1.915
 3420TIP3    H110224   6.289   1.797   1.964
 3420TIP3    H210225   6.285   1.933   1.897
 3421TIP3   OH210226   5.759   0.442   1.543
 3421TIP3    H110227   5.806   0.407   1.467
 3421TIP3    H210228   5.758   0.370   1.606
 3422TIP3   OH210229   3.501   2.542   1.647
 3422TIP3    H110230   3.414   2.580   1.635
 3422TIP3    H210231   3.561   2.612   1.622
 3423TIP3   OH210232   2.349   1.857   1.452
 3423TIP3    H110233   2.410   1.783   1.445
 3423TIP3    H210234   2.273   1.830   1.400
 3424TIP3   OH210235   0.896   2.364   1.441
 3424TIP3    H110236   0.961   2.323   1.498
 3424TIP3    H210237   0.918   2.332   1.354
 3425TIP3   OH210238   2.580   1.241   5.745
 3425TIP3    H110239   2.589   1.336   5.733
 3425TIP3    H210240   2.573   1.230   5.840
 3426TIP3   OH210241   6.604   2.419   5.311
 3426TIP3    H110242   6.565   2.506   5.303
 3426TIP3    H210243   6.656   2.408   5.232
 3427TIP3   OH210244   5.616   4.813   4.892
 3427TIP3    H110245   5.682   4.812   4.822
 3427TIP3    H210246   5.576   4.726   4.889
 3428TIP3   OH210247   2.438   3.861   5.721
 3428TIP3    H110248   2.522   3.827   5.690
 3428TIP3    H210249   2.412   3.802   5.791
 3429TIP3   OH210250   3.550   1.764   5.687
 3429TIP3    H110251   3.576   1.710   5.762
 3429TIP3    H210252   3.593   1.722   5.612
 3430TIP3   OH210253   0.989   5.944   0.316
 3430TIP3    H110254   0.945   6.025   0.341
 3430TIP3    H210255   0.920   5.877   0.317
 3431TIP3   OH210256   0.528   0.552   5.054
 3431TIP3    H110257   0.511   0.629   5.108
 3431TIP3    H210258   0.488   0.573   4.969
 3432TIP3   OH210259   2.180   2.941   2.991
 3432TIP3    H110260   2.152   2.892   2.914
 3432TIP3    H210261   2.267   2.973   2.968
 3433TIP3   OH210262   5.448   1.372   3.199
 3433TIP3    H110263   5.479   1.442   3.141
 3433TIP3    H210264   5.398   1.314   3.141
 3434TIP3   OH210265   4.706   1.785   4.635
 3434TIP3    H110266   4.678   1.775   4.726
 3434TIP3    H210267   4.758   1.706   4.618
 3435TIP3   OH210268   4.665   0.908   1.965
 3435TIP3    H110269   4.622   0.826   1.990
 3435TIP3    H210270   4.751   0.904   2.005
 3436TIP3   OH210271   5.654   3.240   4.099
 3436TIP3    H110272   5.635   3.233   4.192
 3436TIP3    H210273   5.667   3.149   4.070
 3437TIP3   OH210274   1.271   5.829   1.284
 3437TIP3    H110275   1.246   5.872   1.203
 3437TIP3    H210276   1.239   5.887   1.353
 3438TIP3   OH210277   3.545   6.118   2.896
 3438TIP3    H110278   3.571   6.196   2.945
 3438TIP3    H210279   3.560   6.045   2.957
 3439TIP3   OH210280   0.834   6.771   4.862
 3439TIP3    H110281   0.767   6.703   4.858
 3439TIP3    H210282   0.819   6.824   4.783
 3440TIP3   OH210283   1.694   4.721   3.096
 3440TIP3    H110284   1.767   4.698   3.038
 3440TIP3    H210285   1.621   4.737   3.036
 3441TIP3   OH210286   3.440   1.191   3.607
 3441TIP3    H110287   3.375   1.130   3.642
 3441TIP3    H210288   3.389   1.261   3.567
 3442TIP3   OH210289   6.597   5.257   1.575
 3442TIP3    H110290   6.503   5.254   1.595
 3442TIP3    H210291   6.629   5.333   1.623
 3443TIP3   OH210292   3.407   1.741   2.211
 3443TIP3    H110293   3.391   1.835   2.212
 3443TIP3    H210294   3.370   1.709   2.293
 3444TIP3   OH210295   1.590   3.457   5.227
 3444TIP3    H110296   1.520   3.505   5.273
 3444TIP3    H210297   1.589   3.370   5.266
 3445TIP3   OH210298   3.886   0.122   2.495
 3445TIP3    H110299   3.913   0.034   2.469
 3445TIP3    H210300   3.842   0.109   2.579
 3446TIP3   OH210301   4.174   1.072   2.935
 3446TIP3    H110302   4.112   0.999   2.927
 3446TIP3    H210303   4.251   1.033   2.979
 3447TIP3   OH210304   4.620   0.966   4.616
 3447TIP3    H110305   4.599   1.027   4.687
 3447TIP3    H210306   4.549   0.977   4.553
 3448TIP3   OH210307   3.898   4.919   1.842
 3448TIP3    H110308   3.817   4.868   1.848
 3448TIP3    H210309   3.950   4.889   1.917
 3449TIP3   OH210310   0.239   3.651   0.454
 3449TIP3    H110311   0.280   3.566   0.439
 3449TIP3    H210312   0.261   3.672   0.545
 3450TIP3   OH210313   6.522   2.165   4.871
 3450TIP3    H110314   6.446   2.107   4.870
 3450TIP3    H210315   6.509   2.222   4.795
 3451TIP3   OH210316   0.128   4.032   5.676
 3451TIP3    H110317   0.125   4.091   5.600
 3451TIP3    H210318   0.041   3.992   5.678
 3452TIP3   OH210319   0.395   2.117   1.673
 3452TIP3    H110320   0.421   2.031   1.637
 3452TIP3    H210321   0.431   2.118   1.761
 3453TIP3   OH210322   7.191   1.598   2.589
 3453TIP3    H110323   7.107   1.633   2.621
 3453TIP3    H210324   7.171   1.508   2.564
 3454TIP3   OH210325   2.232   2.962   3.524
 3454TIP3    H110326   2.149   3.010   3.520
 3454TIP3    H210327   2.213   2.878   3.484
 3455TIP3   OH210328   3.374   2.323   4.784
 3455TIP3    H110329   3.302   2.379   4.814
 3455TIP3    H210330   3.332   2.241   4.759
 3456TIP3   OH210331   6.799   0.531   4.835
 3456TIP3    H110332   6.813   0.624   4.852
 3456TIP3    H210333   6.713   0.527   4.793
 3457TIP3   OH210334   2.507   2.459   3.043
 3457TIP3    H110335   2.487   2.457   3.137
 3457TIP3    H210336   2.427   2.428   3.001
 3458TIP3   OH210337   4.056   0.116   4.948
 3458TIP3    H110338   4.134   0.083   4.993
 3458TIP3    H210339   3.985   0.061   4.980
 3459TIP3   OH210340   3.324   4.638   3.935
 3459TIP3    H110341   3.407   4.621   3.889
 3459TIP3    H210342   3.281   4.706   3.885
 3460TIP3   OH210343   0.913   5.383   4.507
 3460TIP3    H110344   0.849   5.324   4.547
 3460TIP3    H210345   0.937   5.444   4.577
 3461TIP3   OH210346   6.520   2.772   2.555
 3461TIP3    H110347   6.463   2.792   2.630
 3461TIP3    H210348   6.506   2.679   2.538
 3462TIP3   OH210349   4.079   6.618   5.360
 3462TIP3    H110350   4.084   6.527   5.331
 3462TIP3    H210351   4.062   6.612   5.454
 3463TIP3   OH210352   5.306   2.764   2.291
 3463TIP3    H110353   5.344   2.842   2.250
 3463TIP3    H210354   5.242   2.732   2.228
 3464TIP3   OH210355   5.903   1.385   4.934
 3464TIP3    H110356   5.855   1.302   4.940
 3464TIP3    H210357   5.886   1.416   4.845
 3465TIP3   OH210358   0.662   3.060   0.863
 3465TIP3    H110359   0.647   2.997   0.933
 3465TIP3    H210360   0.732   3.116   0.897
 3466TIP3   OH210361   1.661   5.298   3.570
 3466TIP3    H110362   1.672   5.233   3.501
 3466TIP3    H210363   1.628   5.376   3.525
 3467TIP3   OH210364   1.438   0.050   0.153
 3467TIP3    H110365   1.446   0.139   0.120
 3467TIP3    H210366   1.362   0.051   0.210
 3468TIP3   OH210367   3.564   0.323   3.939
 3468TIP3    H110368   3.488   0.327   3.996
 3468TIP3    H210369   3.528   0.333   3.850
 3469TIP3   OH210370   2.428   6.192   1.199
 3469TIP3    H110371   2.459   6.102   1.194
 3469TIP3    H210372   2.336   6.187   1.171
 3470TIP3   OH210373   2.989   6.552   2.233
 3470TIP3    H110374   2.924   6.514   2.174
 3470TIP3    H210375   3.073   6.532   2.193
 3471TIP3   OH210376   5.718   5.122   0.043
 3471TIP3    H110377   5.723   5.144   0.136
 3471TIP3    H210378   5.747   5.201  -0.002
 3472TIP3   OH210379   4.968   0.644   0.108
 3472TIP3    H110380   5.031   0.716   0.114
 3472TIP3    H210381   4.991   0.599   0.027
 3473TIP3   OH210382   2.631   1.619   4.003
 3473TIP3    H110383   2.640   1.712   3.984
 3473TIP3    H210384   2.714   1.580   3.976
 3474TIP3   OH210385   0.862   1.494   1.512
 3474TIP3    H110386   0.928   1.561   1.497
 3474TIP3    H210387   0.787   1.541   1.547
 3475TIP3   OH210388   6.719   2.081   1.451
 3475TIP3    H110389   6.718   2.164   1.499
 3475TIP3    H210390   6.764   2.020   1.509
 3476TIP3   OH210391   5.225   4.455   3.270
 3476TIP3    H110392   5.251   4.389   3.207
 3476TIP3    H210393   5.301   4.513   3.277
 3477TIP3   OH210394   2.102   4.900   4.068
 3477TIP3    H110395   2.178   4.858   4.026
 3477TIP3    H210396   2.060   4.830   4.118
 3478TIP3   OH210397   6.844   1.955   3.615
 3478TIP3    H110398   6.856   1.874   3.565
 3478TIP3    H210399   6.750   1.973   3.608
 3479TIP3   OH210400   3.938   2.308   3.285
 3479TIP3    H110401   3.914   2.393   3.324
 3479TIP3    H210402   3.889   2.244   3.337
 3480TIP3   OH210403   5.058   3.124   5.521
 3480TIP3    H110404   5.056   3.067   5.443
 3480TIP3    H210405   5.149   3.153   5.527
 3481TIP3   OH210406   0.085   5.768   1.477
 3481TIP3    H110407   0.073   5.783   1.383
 3481TIP3    H210408   0.090   5.855   1.515
 3482TIP3   OH210409   0.570   2.295   4.236
 3482TIP3    H110410   0.653   2.296   4.284
 3482TIP3    H210411   0.563   2.383   4.198
 3483TIP3   OH210412   3.128   6.072   5.275
 3483TIP3    H110413   3.181   6.076   5.355
 3483TIP3    H210414   3.057   6.134   5.290
 3484TIP3   OH210415   6.611   5.545   3.468
 3484TIP3    H110416   6.531   5.502   3.496
 3484TIP3    H210417   6.658   5.565   3.549
 3485TIP3   OH210418   0.102   1.803   3.980
 3485TIP3    H110419   0.181   1.757   3.954
 3485TIP3    H210420   0.129   1.857   4.055
 3486TIP3   OH210421   6.466   4.008   0.487
 3486TIP3    H110422   6.467   4.084   0.544
 3486TIP3    H210423   6.416   3.942   0.535
 3487TIP3   OH210424   3.209   2.973   5.678
 3487TIP3    H110425   3.293   2.944   5.714
 3487TIP3    H210426   3.147   2.963   5.750
 3488TIP3   OH210427   0.072   3.157   0.086
 3488TIP3    H110428  -0.019   3.129   0.076
 3488TIP3    H210429   0.074   3.247   0.053
 3489TIP3   OH210430   6.282   2.537   2.504
 3489TIP3    H110431   6.208   2.503   2.453
 3489TIP3    H210432   6.242   2.584   2.577
 3490TIP3   OH210433   3.488   4.670   2.171
 3490TIP3    H110434   3.576   4.707   2.162
 3490TIP3    H210435   3.439   4.738   2.217
 3491TIP3   OH210436   3.789   4.774   0.210
 3491TIP3    H110437   3.806   4.708   0.143
 3491TIP3    H210438   3.703   4.810   0.188
 3492TIP3   OH210439   6.018   2.826   4.825
 3492TIP3    H110440   6.032   2.733   4.806
 3492TIP3    H210441   5.933   2.847   4.787
 3493TIP3   OH210442   2.836   4.643   2.475
 3493TIP3    H110443   2.752   4.675   2.507
 3493TIP3    H210444   2.898   4.713   2.496
 3494TIP3   OH210445   4.241   5.317   3.927
 3494TIP3    H110446   4.217   5.227   3.949
 3494TIP3    H210447   4.316   5.308   3.868
 3495TIP3   OH210448   6.383   1.571   2.778
 3495TIP3    H110449   6.437   1.643   2.811
 3495TIP3    H210450   6.365   1.517   2.855
 3496TIP3   OH210451   0.944   6.009   1.994
 3496TIP3    H110452   0.891   6.002   2.073
 3496TIP3    H210453   0.900   6.074   1.940
 3497TIP3   OH210454   1.696   4.593   4.351
 3497TIP3    H110455   1.739   4.532   4.411
 3497TIP3    H210456   1.647   4.652   4.408
 3498TIP3   OH210457   6.535   5.376   3.837
 3498TIP3    H110458   6.455   5.428   3.844
 3498TIP3    H210459   6.508   5.297   3.789
 3499TIP3   OH210460   5.872   6.174   4.776
 3499TIP3    H110461   5.821   6.194   4.697
 3499TIP3    H210462   5.856   6.247   4.835
 3500TIP3   OH210463   2.384   1.023   4.331
 3500TIP3    H110464   2.304   1.076   4.323
 3500TIP3    H210465   2.451   1.086   4.355
 3501TIP3   OH210466   2.163   4.900   3.284
 3501TIP3    H110467   2.176   4.808   3.264
 3501TIP3    H210468   2.165   4.904   3.380
 3502TIP3   OH210469   6.691   5.770   1.131
 3502TIP3    H110470   6.721   5.735   1.047
 3502TIP3    H210471   6.639   5.700   1.169
 3503TIP3   OH210472   4.085   3.605   2.423
 3503TIP3    H110473   4.021   3.580   2.357
 3503TIP3    H210474   4.127   3.523   2.448
 3504TIP3   OH210475   2.513   0.320   3.601
 3504TIP3    H110476   2.557   0.378   3.538
 3504TIP3    H210477   2.537   0.232   3.573
 3505TIP3   OH210478   4.397   6.013   4.587
 3505TIP3    H110479   4.461   5.946   4.608
 3505TIP3    H210480   4.442   6.071   4.525
 3506TIP3   OH210481   5.417   3.426   1.996
 3506TIP3    H110482   5.338   3.434   1.942
 3506TIP3    H210483   5.403   3.485   2.069
 3507TIP3   OH210484   2.905   6.276   2.640
 3507TIP3    H110485   2.834   6.339   2.627
 3507TIP3    H210486   2.960   6.286   2.563
 3508TIP3   OH210487   5.351   5.312   4.512
 3508TIP3    H110488   5.303   5.394   4.511
 3508TIP3    H210489   5.423   5.326   4.449
 3509TIP3   OH210490   6.563   6.337   2.588
 3509TIP3    H110491   6.531   6.412   2.537
 3509TIP3    H210492   6.489   6.276   2.590
 3510TIP3   OH210493   6.183   0.581   5.854
 3510TIP3    H110494   6.217   0.497   5.823
 3510TIP3    H210495   6.257   0.641   5.846
 3511TIP3   OH210496   5.291   1.750   5.879
 3511TIP3    H110497   5.209   1.714   5.847
 3511TIP3    H210498   5.265   1.823   5.936
 3512TIP3   OH210499   4.488   4.502   2.021
 3512TIP3    H110500   4.569   4.522   1.973
 3512TIP3    H210501   4.424   4.483   1.953
 3513TIP3   OH210502   3.791   0.034   4.923
 3513TIP3    H110503   3.752   0.024   4.836
 3513TIP3    H210504   3.716   0.036   4.983
 3514TIP3   OH210505   1.494   0.533   5.534
 3514TIP3    H110506   1.517   0.444   5.560
 3514TIP3    H210507   1.529   0.588   5.605
 3515TIP3   OH210508   0.188   5.065   1.217
 3515TIP3    H110509   0.219   5.046   1.128
 3515TIP3    H210510   0.266   5.058   1.272
 3516TIP3   OH210511   5.710   1.494   0.875
 3516TIP3    H110512   5.662   1.526   0.951
 3516TIP3    H210513   5.744   1.409   0.903
 3517TIP3   OH210514   5.979   6.348   0.471
 3517TIP3    H110515   5.975   6.409   0.397
 3517TIP3    H210516   5.959   6.263   0.432
 3518TIP3   OH210517   5.400   3.490   4.218
 3518TIP3    H110518   5.486   3.488   4.261
 3518TIP3    H210519   5.380   3.398   4.200
 3519TIP3   OH210520   5.030   3.541   2.489
 3519TIP3    H110521   4.965   3.482   2.528
 3519TIP3    H210522   5.050   3.604   2.559
 3520TIP3   OH210523   4.996   1.410   4.485
 3520TIP3    H110524   4.979   1.320   4.456
 3520TIP3    H210525   5.090   1.422   4.471
 3521TIP3   OH210526   1.558   3.444   5.763
 3521TIP3    H110527   1.636   3.486   5.729
 3521TIP3    H210528   1.507   3.515   5.803
 3522TIP3   OH210529   2.473   2.865   2.437
 3522TIP3    H110530   2.417   2.809   2.383
 3522TIP3    H210531   2.467   2.951   2.396
 3523TIP3   OH210532   6.176   0.558   0.254
 3523TIP3    H110533   6.184   0.557   0.159
 3523TIP3    H210534   6.152   0.468   0.277
 3524TIP3   OH210535   0.959   3.811   3.545
 3524TIP3    H110536   0.925   3.870   3.613
 3524TIP3    H210537   1.005   3.869   3.484
 3525TIP3   OH210538   6.660   4.488   4.440
 3525TIP3    H110539   6.578   4.519   4.400
 3525TIP3    H210540   6.697   4.428   4.375
 3526TIP3   OH210541   7.180   5.863   5.361
 3526TIP3    H110542   7.184   5.834   5.270
 3526TIP3    H210543   7.087   5.870   5.380
 3527TIP3   OH210544   6.215   0.126   0.287
 3527TIP3    H110545   6.144   0.064   0.267
 3527TIP3    H210546   6.171   0.200   0.329
 3528TIP3   OH210547   2.223   4.037   2.836
 3528TIP3    H110548   2.232   4.039   2.932
 3528TIP3    H210549   2.190   3.950   2.817
 3529TIP3   OH210550   5.555   1.532   4.015
 3529TIP3    H110551   5.639   1.540   3.970
 3529TIP3    H210552   5.491   1.566   3.952
 3530TIP3   OH210553   0.125   0.607   4.930
 3530TIP3    H110554   0.081   0.611   4.845
 3530TIP3    H210555   0.142   0.698   4.953
 3531TIP3   OH210556   0.165   3.059   2.033
 3531TIP3    H110557   0.148   3.108   1.953
 3531TIP3    H210558   0.248   3.094   2.066
 3532TIP3   OH210559   4.224   4.851   0.918
 3532TIP3    H110560   4.218   4.907   0.996
 3532TIP3    H210561   4.148   4.793   0.924
 3533TIP3   OH210562   5.749   2.954   1.968
 3533TIP3    H110563   5.662   2.992   1.978
 3533TIP3    H210564   5.809   3.028   1.971
 3534TIP3   OH210565   7.100   5.359   5.644
 3534TIP3    H110566   7.178   5.408   5.620
 3534TIP3    H210567   7.076   5.311   5.565
 3535TIP3   OH210568   4.486   3.486   2.545
 3535TIP3    H110569   4.529   3.403   2.566
 3535TIP3    H210570   4.475   3.483   2.450
 3536TIP3   OH210571   1.565   3.334   4.709
 3536TIP3    H110572   1.602   3.254   4.672
 3536TIP3    H210573   1.640   3.392   4.722
 3537TIP3   OH210574   6.685   2.052   5.512
 3537TIP3    H110575   6.767   2.099   5.528
 3537TIP3    H210576   6.628   2.078   5.584
 3538TIP3   OH210577   4.116   4.817   4.920
 3538TIP3    H110578   4.189   4.793   4.977
 3538TIP3    H210579   4.093   4.736   4.875
 3539TIP3   OH210580   2.178   3.223   5.640
 3539TIP3    H110581   2.181   3.138   5.598
 3539TIP3    H210582   2.183   3.286   5.568
 3540TIP3   OH210583   2.440   2.684   0.926
 3540TIP3    H110584   2.483   2.766   0.950
 3540TIP3    H210585   2.511   2.626   0.899
 3541TIP3   OH210586   1.374   2.277   0.972
 3541TIP3    H110587   1.369   2.343   1.040
 3541TIP3    H210588   1.466   2.277   0.945
 3542TIP3   OH210589   1.094   6.823   1.126
 3542TIP3    H110590   1.115   6.856   1.039
 3542TIP3    H210591   1.072   6.731   1.113
 3543TIP3   OH210592   1.102   0.463   3.813
 3543TIP3    H110593   1.087   0.546   3.858
 3543TIP3    H210594   1.128   0.488   3.725
 3544TIP3   OH210595   2.850   5.667   1.479
 3544TIP3    H110596   2.822   5.752   1.512
 3544TIP3    H210597   2.946   5.671   1.482
 3545TIP3   OH210598   3.994   4.748   1.241
 3545TIP3    H110599   4.030   4.833   1.265
 3545TIP3    H210600   3.913   4.741   1.292
 3546TIP3   OH210601   6.043   2.540   2.188
 3546TIP3    H110602   6.028   2.635   2.179
 3546TIP3    H210603   6.038   2.524   2.282
 3547TIP3   OH210604   4.906   2.273   2.564
 3547TIP3    H110605   4.918   2.199   2.623
 3547TIP3    H210606   4.904   2.234   2.477
 3548TIP3   OH210607   3.585   1.491   2.620
 3548TIP3    H110608   3.633   1.510   2.539
 3548TIP3    H210609   3.586   1.395   2.626
 3549TIP3   OH210610   0.952   2.357   3.522
 3549TIP3    H110611   0.880   2.298   3.543
 3549TIP3    H210612   0.925   2.402   3.443
 3550TIP3   OH210613   3.147   6.092   4.852
 3550TIP3    H110614   3.113   6.081   4.940
 3550TIP3    H210615   3.119   6.180   4.826
 3551TIP3   OH210616   6.032   5.139   0.337
 3551TIP3    H110617   5.974   5.064   0.345
 3551TIP3    H210618   5.977   5.208   0.300
 3552TIP3   OH210619   5.997   3.296   2.626
 3552TIP3    H110620   6.084   3.302   2.667
 3552TIP3    H210621   5.936   3.311   2.698
 3553TIP3   OH210622   1.465   4.262   0.885
 3553TIP3    H110623   1.414   4.341   0.901
 3553TIP3    H210624   1.442   4.203   0.957
 3554TIP3   OH210625   6.389   1.521   3.429
 3554TIP3    H110626   6.476   1.517   3.469
 3554TIP3    H210627   6.366   1.614   3.431
 3555TIP3   OH210628   4.161   4.646   4.164
 3555TIP3    H110629   4.067   4.661   4.178
 3555TIP3    H210630   4.185   4.709   4.096
 3556TIP3   OH210631   4.825   3.694   2.918
 3556TIP3    H110632   4.774   3.674   2.840
 3556TIP3    H210633   4.762   3.692   2.989
 3557TIP3   OH210634   6.095   6.224   2.288
 3557TIP3    H110635   6.183   6.231   2.251
 3557TIP3    H210636   6.073   6.314   2.312
 3558TIP3   OH210637   5.160   3.929   5.382
 3558TIP3    H110638   5.094   3.860   5.397
 3558TIP3    H210639   5.111   4.000   5.340
 3559TIP3   OH210640   2.283   2.948   3.989
 3559TIP3    H110641   2.212   2.929   4.050
 3559TIP3    H210642   2.240   2.965   3.906
 3560TIP3   OH210643   1.538   0.746   3.538
 3560TIP3    H110644   1.521   0.655   3.565
 3560TIP3    H210645   1.630   0.747   3.514
 3561TIP3   OH210646   0.494   2.070   2.341
 3561TIP3    H110647   0.518   2.115   2.422
 3561TIP3    H210648   0.424   2.124   2.304
 3562TIP3   OH210649   1.001   4.850   5.815
 3562TIP3    H110650   0.976   4.758   5.819
 3562TIP3    H210651   1.038   4.868   5.901
 3563TIP3   OH210652   7.023   0.423   4.717
 3563TIP3    H110653   6.945   0.458   4.759
 3563TIP3    H210654   7.060   0.497   4.668
 3564TIP3   OH210655   2.277   5.792   3.079
 3564TIP3    H110656   2.346   5.774   3.143
 3564TIP3    H210657   2.291   5.728   3.009
 3565TIP3   OH210658   5.731   4.107   4.136
 3565TIP3    H110659   5.762   4.158   4.211
 3565TIP3    H210660   5.719   4.172   4.067
 3566TIP3   OH210661   4.594   3.030   5.626
 3566TIP3    H110662   4.504   3.006   5.604
 3566TIP3    H210663   4.590   3.123   5.646
 3567TIP3   OH210664   0.451   1.912   0.598
 3567TIP3    H110665   0.429   1.914   0.505
 3567TIP3    H210666   0.371   1.882   0.641
 3568TIP3   OH210667   4.061   3.026   0.708
 3568TIP3    H110668   4.152   2.996   0.714
 3568TIP3    H210669   4.022   3.003   0.792
 3569TIP3   OH210670   2.907   4.326   2.102
 3569TIP3    H110671   2.880   4.402   2.155
 3569TIP3    H210672   2.877   4.347   2.013
 3570TIP3   OH210673   0.390   1.758   4.462
 3570TIP3    H110674   0.430   1.714   4.537
 3570TIP3    H210675   0.444   1.836   4.449
 3571TIP3   OH210676   3.791   1.765   5.273
 3571TIP3    H110677   3.764   1.857   5.269
 3571TIP3    H210678   3.767   1.737   5.362
 3572TIP3   OH210679   2.858   5.205   3.025
 3572TIP3    H110680   2.917   5.137   3.056
 3572TIP3    H210681   2.782   5.158   2.990
 3573TIP3   OH210682   1.602   3.697   5.468
 3573TIP3    H110683   1.563   3.610   5.477
 3573TIP3    H210684   1.696   3.680   5.455
 3574TIP3   OH210685   4.131   5.023   1.665
 3574TIP3    H110686   4.091   4.951   1.713
 3574TIP3    H210687   4.225   5.016   1.684
 3575TIP3   OH210688   0.184   4.244   3.376
 3575TIP3    H110689   0.109   4.294   3.406
 3575TIP3    H210690   0.155   4.201   3.296
 3576TIP3   OH210691   1.658   6.155   4.448
 3576TIP3    H110692   1.625   6.158   4.358
 3576TIP3    H210693   1.744   6.115   4.441
 3577TIP3   OH210694   1.055   0.807   3.512
 3577TIP3    H110695   1.103   0.834   3.433
 3577TIP3    H210696   0.967   0.787   3.481
 3578TIP3   OH210697   0.601   1.204   2.742
 3578TIP3    H110698   0.691   1.219   2.772
 3578TIP3    H210699   0.593   1.258   2.663
 3579TIP3   OH210700   7.116   0.214   2.839
 3579TIP3    H110701   7.160   0.232   2.756
 3579TIP3    H210702   7.151   0.130   2.867
 3580TIP3   OH210703   1.152   1.321   1.428
 3580TIP3    H110704   1.210   1.397   1.433
 3580TIP3    H210705   1.092   1.332   1.502
 3581TIP3   OH210706   7.187   1.394   2.873
 3581TIP3    H110707   7.099   1.430   2.880
 3581TIP3    H210708   7.198   1.342   2.953
 3582TIP3   OH210709   4.838   2.354   0.842
 3582TIP3    H110710   4.921   2.335   0.886
 3582TIP3    H210711   4.807   2.268   0.811
 3583TIP3   OH210712   0.638   0.259   1.161
 3583TIP3    H110713   0.576   0.279   1.232
 3583TIP3    H210714   0.724   0.257   1.204
 3584TIP3   OH210715   5.349   2.052   1.998
 3584TIP3    H110716   5.270   2.056   1.944
 3584TIP3    H210717   5.359   1.959   2.018
 3585TIP3   OH210718   6.955   6.791   1.066
 3585TIP3    H110719   6.894   6.746   1.008
 3585TIP3    H210720   6.996   6.857   1.011
 3586TIP3   OH210721   4.788   3.287   5.362
 3586TIP3    H110722   4.719   3.237   5.318
 3586TIP3    H210723   4.751   3.310   5.447
 3587TIP3   OH210724   4.859   4.601   5.850
 3587TIP3    H110725   4.800   4.651   5.793
 3587TIP3    H210726   4.908   4.544   5.790
 3588TIP3   OH210727   5.254   2.204   5.341
 3588TIP3    H110728   5.266   2.139   5.271
 3588TIP3    H210729   5.342   2.240   5.354
 3589TIP3   OH210730   3.777   1.799   1.921
 3589TIP3    H110731   3.840   1.761   1.861
 3589TIP3    H210732   3.693   1.765   1.893
 3590TIP3   OH210733   0.990   1.158   1.062
 3590TIP3    H110734   0.968   1.124   1.149
 3590TIP3    H210735   1.080   1.188   1.070
 3591TIP3   OH210736   5.301   5.565   0.588
 3591TIP3    H110737   5.313   5.574   0.682
 3591TIP3    H210738   5.315   5.654   0.553
 3592TIP3   OH210739   6.776   4.126   5.604
 3592TIP3    H110740   6.692   4.097   5.568
 3592TIP3    H210741   6.783   4.081   5.688
 3593TIP3   OH210742   1.622   2.585   0.942
 3593TIP3    H110743   1.703   2.541   0.968
 3593TIP3    H210744   1.648   2.677   0.931
 3594TIP3   OH210745   2.872   3.064   4.770
 3594TIP3    H110746   2.784   3.029   4.774
 3594TIP3    H210747   2.901   3.068   4.861
 3595TIP3   OH210748   6.860   5.299   4.663
 3595TIP3    H110749   6.781   5.274   4.710
 3595TIP3    H210750   6.864   5.238   4.589
 3596TIP3   OH210751   2.825   5.738   5.746
 3596TIP3    H110752   2.888   5.759   5.815
 3596TIP3    H210753   2.869   5.763   5.665
 3597TIP3   OH210754   3.868   6.673   3.530
 3597TIP3    H110755   3.946   6.699   3.579
 3597TIP3    H210756   3.795   6.706   3.582
 3598TIP3   OH210757   4.016   5.184   3.515
 3598TIP3    H110758   3.959   5.243   3.465
 3598TIP3    H210759   4.046   5.237   3.590
 3599TIP3   OH210760   0.587   2.503   1.788
 3599TIP3    H110761   0.633   2.436   1.737
 3599TIP3    H210762   0.521   2.454   1.838
 3600TIP3   OH210763   2.600   2.717   2.158
 3600TIP3    H110764   2.602   2.812   2.150
 3600TIP3    H210765   2.671   2.687   2.102
 3601TIP3   OH210766   1.593   2.360   2.015
 3601TIP3    H110767   1.628   2.358   2.104
 3601TIP3    H210768   1.556   2.448   2.005
 3602TIP3   OH210769   0.269   4.866   0.597
 3602TIP3    H110770   0.320   4.832   0.523
 3602TIP3    H210771   0.245   4.955   0.571
 3603TIP3   OH210772   0.202   1.627   0.363
 3603TIP3    H110773   0.133   1.684   0.397
 3603TIP3    H210774   0.158   1.544   0.345
 3604TIP3   OH210775   0.819   2.987   2.532
 3604TIP3    H110776   0.910   3.003   2.554
 3604TIP3    H210777   0.820   2.966   2.439
 3605TIP3   OH210778   6.112   3.494   3.209
 3605TIP3    H110779   6.091   3.522   3.120
 3605TIP3    H210780   6.082   3.403   3.213
 3606TIP3   OH210781   4.912   1.656   1.868
 3606TIP3    H110782   5.008   1.650   1.864
 3606TIP3    H210783   4.892   1.736   1.819
 3607TIP3   OH210784   2.873   1.542   2.033
 3607TIP3    H110785   2.896   1.632   2.010
 3607TIP3    H210786   2.840   1.549   2.123
 3608TIP3   OH210787   2.440   0.683   3.330
 3608TIP3    H110788   2.354   0.719   3.353
 3608TIP3    H210789   2.438   0.674   3.235
 3609TIP3   OH210790   6.985   2.443   5.758
 3609TIP3    H110791   7.032   2.460   5.676
 3609TIP3    H210792   6.893   2.457   5.737
 3610TIP3   OH210793   3.640   1.502   4.712
 3610TIP3    H110794   3.603   1.436   4.653
 3610TIP3    H210795   3.635   1.583   4.662
 3611TIP3   OH210796   7.004   0.368   1.121
 3611TIP3    H110797   6.944   0.346   1.050
 3611TIP3    H210798   7.053   0.444   1.088
 3612TIP3   OH210799   6.374   1.289   4.888
 3612TIP3    H110800   6.468   1.294   4.870
 3612TIP3    H210801   6.365   1.213   4.945
 3613TIP3   OH210802   6.497   6.455   5.601
 3613TIP3    H110803   6.524   6.391   5.534
 3613TIP3    H210804   6.463   6.402   5.673
 3614TIP3   OH210805   1.675   4.147   3.598
 3614TIP3    H110806   1.710   4.078   3.654
 3614TIP3    H210807   1.620   4.102   3.534
 3615TIP3   OH210808   4.738   4.559   5.128
 3615TIP3    H110809   4.794   4.629   5.162
 3615TIP3    H210810   4.693   4.597   5.053
 3616TIP3   OH210811   4.832   5.468   3.287
 3616TIP3    H110812   4.738   5.453   3.276
 3616TIP3    H210813   4.868   5.381   3.300
 3617TIP3   OH210814   0.494   1.471   2.923
 3617TIP3    H110815   0.457   1.527   2.855
 3617TIP3    H210816   0.452   1.386   2.911
 3618TIP3   OH210817   4.973   1.118   0.707
 3618TIP3    H110818   5.028   1.180   0.755
 3618TIP3    H210819   4.922   1.173   0.647
 3619TIP3   OH210820   5.276   2.677   1.928
 3619TIP3    H110821   5.344   2.631   1.978
 3619TIP3    H210822   5.299   2.769   1.937
 3620TIP3   OH210823   4.261   6.132   1.020
 3620TIP3    H110824   4.210   6.179   1.086
 3620TIP3    H210825   4.204   6.061   0.992
 3621TIP3   OH210826   4.013   6.715   1.475
 3621TIP3    H110827   3.958   6.648   1.517
 3621TIP3    H210828   4.069   6.666   1.415
 3622TIP3   OH210829   6.416   6.660   1.600
 3622TIP3    H110830   6.379   6.633   1.516
 3622TIP3    H210831   6.454   6.579   1.636
 3623TIP3   OH210832   3.320   0.512   0.205
 3623TIP3    H110833   3.309   0.459   0.126
 3623TIP3    H210834   3.231   0.534   0.232
 3624TIP3   OH210835   0.250   0.064   3.470
 3624TIP3    H110836   0.257   0.160   3.473
 3624TIP3    H210837   0.166   0.048   3.427
 3625TIP3   OH210838   0.622   4.115   5.790
 3625TIP3    H110839   0.568   4.079   5.861
 3625TIP3    H210840   0.691   4.050   5.778
 3626TIP3   OH210841   3.681   5.032   4.269
 3626TIP3    H110842   3.700   5.123   4.247
 3626TIP3    H210843   3.588   5.022   4.249
 3627TIP3   OH210844   2.829   2.066   4.430
 3627TIP3    H110845   2.785   2.040   4.350
 3627TIP3    H210846   2.791   2.152   4.452
 3628TIP3   OH210847   3.762   1.836   3.470
 3628TIP3    H110848   3.729   1.791   3.392
 3628TIP3    H210849   3.842   1.789   3.492
 3629TIP3   OH210850   1.416   4.058   3.745
 3629TIP3    H110851   1.427   3.990   3.678
 3629TIP3    H210852   1.467   4.132   3.712
 3630TIP3   OH210853   0.014   2.691   4.173
 3630TIP3    H110854   0.091   2.709   4.121
 3630TIP3    H210855   0.000   2.597   4.163
 3631TIP3   OH210856   5.566   1.077   2.996
 3631TIP3    H110857   5.585   0.984   2.997
 3631TIP3    H210858   5.547   1.098   2.905
 3632TIP3   OH210859   0.665   2.338   5.088
 3632TIP3    H110860   0.619   2.326   5.171
 3632TIP3    H210861   0.718   2.417   5.102
 3633TIP3   OH210862   3.645   6.117   4.970
 3633TIP3    H110863   3.644   6.047   5.036
 3633TIP3    H210864   3.733   6.115   4.934
 3634TIP3   OH210865   0.329   4.871   2.731
 3634TIP3    H110866   0.397   4.937   2.722
 3634TIP3    H210867   0.358   4.816   2.804
 3635TIP3   OH210868   0.084   2.828   4.597
 3635TIP3    H110869   0.138   2.757   4.563
 3635TIP3    H210870   0.055   2.875   4.519
 3636TIP3   OH210871   5.980   3.067   2.471
 3636TIP3    H110872   5.971   3.156   2.505
 3636TIP3    H210873   6.023   3.018   2.542
 3637TIP3   OH210874   3.008   4.461   5.522
 3637TIP3    H110875   3.023   4.553   5.546
 3637TIP3    H210876   2.956   4.426   5.594
 3638TIP3   OH210877   4.537   5.082   5.550
 3638TIP3    H110878   4.462   5.135   5.524
 3638TIP3    H210879   4.499   5.003   5.588
 3639TIP3   OH210880   5.095   5.257   4.971
 3639TIP3    H110881   5.149   5.183   4.999
 3639TIP3    H210882   5.014   5.246   5.020
 3640TIP3   OH210883   1.068   3.302   0.588
 3640TIP3    H110884   1.163   3.289   0.588
 3640TIP3    H210885   1.032   3.216   0.563
 3641TIP3   OH210886   3.643   2.192   3.203
 3641TIP3    H110887   3.637   2.279   3.164
 3641TIP3    H210888   3.571   2.143   3.164
 3642TIP3   OH210889   7.060   0.826   2.787
 3642TIP3    H110890   7.056   0.772   2.866
 3642TIP3    H210891   7.139   0.797   2.742
 3643TIP3   OH210892   5.469   2.592   0.945
 3643TIP3    H110893   5.517   2.517   0.979
 3643TIP3    H210894   5.488   2.662   1.007
 3644TIP3   OH210895   2.525   2.969   2.030
 3644TIP3    H110896   2.521   2.890   1.975
 3644TIP3    H210897   2.548   3.039   1.969
 3645TIP3   OH210898   2.486   0.987   0.356
 3645TIP3    H110899   2.508   1.056   0.294
 3645TIP3    H210900   2.521   1.016   0.440
 3646TIP3   OH210901   1.545   4.213   4.368
 3646TIP3    H110902   1.624   4.191   4.416
 3646TIP3    H210903   1.562   4.185   4.278
 3647TIP3   OH210904   6.469   3.837   2.622
 3647TIP3    H110905   6.485   3.754   2.666
 3647TIP3    H210906   6.544   3.891   2.644
 3648TIP3   OH210907   7.020   0.810   3.212
 3648TIP3    H110908   6.948   0.869   3.233
 3648TIP3    H210909   7.062   0.791   3.296
 3649TIP3   OH210910   2.808   0.446   5.294
 3649TIP3    H110911   2.846   0.494   5.220
 3649TIP3    H210912   2.881   0.395   5.330
 3650TIP3   OH210913   4.957   4.475   5.426
 3650TIP3    H110914   5.051   4.462   5.411
 3650TIP3    H210915   4.932   4.542   5.363
 3651TIP3   OH210916   0.376   2.637   0.460
 3651TIP3    H110917   0.305   2.697   0.436
 3651TIP3    H210918   0.447   2.695   0.487
 3652TIP3   OH210919   3.331   0.734   1.952
 3652TIP3    H110920   3.236   0.741   1.955
 3652TIP3    H210921   3.349   0.641   1.966
 3653TIP3   OH210922   6.660   1.647   2.545
 3653TIP3    H110923   6.658   1.742   2.557
 3653TIP3    H210924   6.696   1.635   2.457
 3654TIP3   OH210925   2.409   2.681   3.482
 3654TIP3    H110926   2.431   2.659   3.572
 3654TIP3    H210927   2.489   2.718   3.446
 3655TIP3   OH210928   3.405   5.100   4.196
 3655TIP3    H110929   3.359   5.060   4.123
 3655TIP3    H210930   3.399   5.194   4.180
 3656TIP3   OH210931   3.164   1.419   5.108
 3656TIP3    H110932   3.168   1.466   5.191
 3656TIP3    H210933   3.110   1.474   5.052
 3657TIP3   OH210934   5.312   1.387   3.505
 3657TIP3    H110935   5.373   1.341   3.562
 3657TIP3    H210936   5.336   1.361   3.417
 3658TIP3   OH210937   0.044   2.632   3.867
 3658TIP3    H110938   0.028   2.540   3.848
 3658TIP3    H210939  -0.043   2.672   3.866
 3659TIP3   OH210940   3.237   0.250   4.049
 3659TIP3    H110941   3.254   0.258   4.143
 3659TIP3    H210942   3.185   0.327   4.027
 3660TIP3   OH210943   3.256   6.615   1.208
 3660TIP3    H110944   3.235   6.657   1.292
 3660TIP3    H210945   3.279   6.687   1.150
 3661TIP3   OH210946   2.138   0.275   2.156
 3661TIP3    H110947   2.096   0.241   2.076
 3661TIP3    H210948   2.227   0.241   2.152
 3662TIP3   OH210949   0.314   5.288   3.252
 3662TIP3    H110950   0.373   5.351   3.294
 3662TIP3    H210951   0.373   5.230   3.203
 3663TIP3   OH210952   2.460   1.779   4.379
 3663TIP3    H110953   2.427   1.858   4.422
 3663TIP3    H210954   2.393   1.713   4.397
 3664TIP3   OH210955   6.127   5.663   5.702
 3664TIP3    H110956   6.042   5.696   5.730
 3664TIP3    H210957   6.112   5.628   5.615
 3665TIP3   OH210958   0.576   0.356   1.441
 3665TIP3    H110959   0.592   0.443   1.477
 3665TIP3    H210960   0.664   0.319   1.428
 3666TIP3   OH210961   3.779   4.487   3.633
 3666TIP3    H110962   3.810   4.472   3.543
 3666TIP3    H210963   3.692   4.448   3.635
 3667TIP3   OH210964   4.576   0.508   0.600
 3667TIP3    H110965   4.529   0.574   0.651
 3667TIP3    H210966   4.591   0.549   0.515
 3668TIP3   OH210967   4.967   3.920   2.648
 3668TIP3    H110968   5.005   3.998   2.608
 3668TIP3    H210969   4.876   3.921   2.619
 3669TIP3   OH210970   7.254   3.512   0.223
 3669TIP3    H110971   7.337   3.537   0.264
 3669TIP3    H210972   7.215   3.450   0.285
 3670TIP3   OH210973   2.958   1.253   5.574
 3670TIP3    H110974   2.899   1.239   5.500
 3670TIP3    H210975   2.919   1.201   5.645
 3671TIP3   OH210976   5.035   1.953   4.282
 3671TIP3    H110977   5.126   1.923   4.277
 3671TIP3    H210978   5.008   1.932   4.372
 3672TIP3   OH210979   4.314   5.009   0.123
 3672TIP3    H110980   4.247   4.952   0.083
 3672TIP3    H210981   4.264   5.066   0.180
 3673TIP3   OH210982   1.634   3.683   4.796
 3673TIP3    H110983   1.663   3.708   4.708
 3673TIP3    H210984   1.618   3.766   4.841
 3674TIP3   OH210985   2.831   0.505   2.282
 3674TIP3    H110986   2.844   0.580   2.224
 3674TIP3    H210987   2.766   0.535   2.345
 3675TIP3   OH210988   2.486   2.229   4.954
 3675TIP3    H110989   2.453   2.200   5.040
 3675TIP3    H210990   2.446   2.167   4.892
 3676TIP3   OH210991   6.812   6.618   3.439
 3676TIP3    H110992   6.743   6.565   3.480
 3676TIP3    H210993   6.800   6.604   3.345
 3677TIP3   OH210994   1.107   4.930   2.338
 3677TIP3    H110995   1.201   4.932   2.356
 3677TIP3    H210996   1.096   4.987   2.261
 3678TIP3   OH210997   6.225   6.779   3.227
 3678TIP3    H110998   6.257   6.869   3.227
 3678TIP3    H210999   6.296   6.728   3.189
 3679TIP3   OH211000   1.804   3.894   5.267
 3679TIP3    H111001   1.794   3.977   5.219
 3679TIP3    H211002   1.746   3.833   5.223
 3680TIP3   OH211003   6.203   0.790   2.117
 3680TIP3    H111004   6.237   0.878   2.100
 3680TIP3    H211005   6.280   0.735   2.122
 3681TIP3   OH211006   4.354   6.606   1.743
 3681TIP3    H111007   4.295   6.581   1.672
 3681TIP3    H211008   4.298   6.655   1.804
 3682TIP3   OH211009   6.515   5.746   0.514
 3682TIP3    H111010   6.558   5.827   0.543
 3682TIP3    H211011   6.489   5.702   0.595
 3683TIP3   OH211012   1.285   6.245   5.680
 3683TIP3    H111013   1.360   6.252   5.621
 3683TIP3    H211014   1.234   6.324   5.664
 3684TIP3   OH211015   5.272   1.831   4.198
 3684TIP3    H111016   5.225   1.750   4.184
 3684TIP3    H211017   5.364   1.804   4.207
 3685TIP3   OH211018   3.976   1.453   5.572
 3685TIP3    H111019   3.958   1.380   5.512
 3685TIP3    H211020   4.064   1.482   5.549
 3686TIP3   OH211021   1.475   1.270   5.549
 3686TIP3    H111022   1.509   1.181   5.551
 3686TIP3    H211023   1.411   1.270   5.478
 3687TIP3   OH211024   0.262   0.262   4.876
 3687TIP3    H111025   0.236   0.255   4.968
 3687TIP3    H211026   0.187   0.303   4.833
 3688TIP3   OH211027   5.372   1.755   0.255
 3688TIP3    H111028   5.350   1.709   0.174
 3688TIP3    H211029   5.371   1.687   0.323
 3689TIP3   OH211030   3.583   2.842   2.875
 3689TIP3    H111031   3.550   2.836   2.965
 3689TIP3    H211032   3.673   2.811   2.880
 3690TIP3   OH211033   4.912   6.317   0.132
 3690TIP3    H111034   4.982   6.379   0.111
 3690TIP3    H211035   4.842   6.337   0.070
 3691TIP3   OH211036   3.461   2.783   0.335
 3691TIP3    H111037   3.401   2.736   0.393
 3691TIP3    H211038   3.423   2.871   0.328
 3692TIP3   OH211039   7.199   4.791   3.046
 3692TIP3    H111040   7.232   4.876   3.074
 3692TIP3    H211041   7.234   4.730   3.111
 3693TIP3   OH211042   3.880   1.724   2.915
 3693TIP3    H111043   3.942   1.692   2.980
 3693TIP3    H211044   3.796   1.690   2.944
 3694TIP3   OH211045   1.919   1.195   0.394
 3694TIP3    H111046   1.956   1.282   0.378
 3694TIP3    H211047   1.913   1.156   0.307
 3695TIP3   OH211048   6.479   3.479   4.864
 3695TIP3    H111049   6.565   3.455   4.831
 3695TIP3    H211050   6.481   3.454   4.956
 3696TIP3   OH211051   6.584   1.980   3.946
 3696TIP3    H111052   6.657   1.918   3.938
 3696TIP3    H211053   6.506   1.925   3.949
 3697TIP3   OH211054   4.333   0.413   4.437
 3697TIP3    H111055   4.308   0.396   4.528
 3697TIP3    H211056   4.321   0.328   4.393
 3698TIP3   OH211057   6.372   4.285   5.785
 3698TIP3    H111058   6.446   4.226   5.799
 3698TIP3    H211059   6.306   4.257   5.849
 3699TIP3   OH211060   0.767   5.215   0.247
 3699TIP3    H111061   0.851   5.250   0.277
 3699TIP3    H211062   0.732   5.284   0.191
 3700TIP3   OH211063   2.995   3.502   2.193
 3700TIP3    H111064   3.034   3.548   2.267
 3700TIP3    H211065   2.906   3.483   2.222
 3701TIP3   OH211066   1.651   4.640   2.337
 3701TIP3    H111067   1.737   4.663   2.303
 3701TIP3    H211068   1.656   4.546   2.354
 3702TIP3   OH211069   1.367   3.506   2.302
 3702TIP3    H111070   1.424   3.446   2.255
 3702TIP3    H211071   1.322   3.555   2.233
 3703TIP3   OH211072   2.299   4.117   2.566
 3703TIP3    H111073   2.203   4.119   2.577
 3703TIP3    H211074   2.331   4.083   2.649
 3704TIP3   OH211075   3.828   3.051   2.625
 3704TIP3    H111076   3.908   3.034   2.576
 3704TIP3    H211077   3.772   2.975   2.606
 3705TIP3   OH211078   6.482   1.368   0.208
 3705TIP3    H111079   6.491   1.316   0.128
 3705TIP3    H211080   6.450   1.305   0.273
 3706TIP3   OH211081   5.604   0.473   5.380
 3706TIP3    H111082   5.649   0.466   5.296
 3706TIP3    H211083   5.673   0.468   5.446
 3707TIP3   OH211084   4.095   3.121   3.665
 3707TIP3    H111085   4.155   3.194   3.682
 3707TIP3    H211086   4.113   3.057   3.733
 3708TIP3   OH211087   3.862   1.772   0.872
 3708TIP3    H111088   3.938   1.824   0.847
 3708TIP3    H211089   3.816   1.827   0.936
 3709TIP3   OH211090   1.285   4.544   1.904
 3709TIP3    H111091   1.194   4.523   1.885
 3709TIP3    H211092   1.293   4.535   1.999
 3710TIP3   OH211093   5.669   0.415   2.548
 3710TIP3    H111094   5.582   0.446   2.523
 3710TIP3    H211095   5.665   0.405   2.643
 3711TIP3   OH211096   6.999   2.646   2.752
 3711TIP3    H111097   6.916   2.689   2.773
 3711TIP3    H211098   6.987   2.555   2.781
 3712TIP3   OH211099   5.625   0.205   3.365
 3712TIP3    H111100   5.585   0.245   3.442
 3712TIP3    H211101   5.553   0.198   3.302
 3713TIP3   OH211102   2.479   2.410   5.748
 3713TIP3    H111103   2.552   2.349   5.739
 3713TIP3    H211104   2.501   2.482   5.690
 3714TIP3   OH211105   4.069   5.781   4.687
 3714TIP3    H111106   4.043   5.809   4.774
 3714TIP3    H211107   4.079   5.863   4.637
 3715TIP3   OH211108   4.347   2.948   5.601
 3715TIP3    H111109   4.335   2.853   5.606
 3715TIP3    H211110   4.308   2.973   5.517
 3716TIP3   OH211111   1.995   2.190   2.740
 3716TIP3    H111112   1.939   2.132   2.688
 3716TIP3    H211113   1.936   2.257   2.774
 3717TIP3   OH211114   6.996   3.893   4.815
 3717TIP3    H111115   6.934   3.959   4.846
 3717TIP3    H211116   7.002   3.907   4.721
 3718TIP3   OH211117   2.811   5.169   4.190
 3718TIP3    H111118   2.750   5.098   4.171
 3718TIP3    H211119   2.846   5.149   4.277
 3719TIP3   OH211120   2.732   1.708   5.045
 3719TIP3    H111121   2.689   1.749   4.970
 3719TIP3    H211122   2.819   1.685   5.013
 3720TIP3   OH211123   1.623   2.600   5.588
 3720TIP3    H111124   1.542   2.556   5.565
 3720TIP3    H211125   1.688   2.566   5.527
 3721TIP3   OH211126   4.903   1.666   3.351
 3721TIP3    H111127   4.812   1.691   3.366
 3721TIP3    H211128   4.948   1.748   3.329
 3722TIP3   OH211129   0.780   0.976   3.779
 3722TIP3    H111130   0.845   1.044   3.798
 3722TIP3    H211131   0.742   0.955   3.864
 3723TIP3   OH211132   6.479   0.385   2.732
 3723TIP3    H111133   6.538   0.439   2.679
 3723TIP3    H211134   6.455   0.312   2.674
 3724TIP3   OH211135   2.937   4.731   5.771
 3724TIP3    H111136   2.987   4.744   5.851
 3724TIP3    H211137   2.959   4.642   5.743
 3725TIP3   OH211138   4.545   5.819   4.692
 3725TIP3    H111139   4.622   5.765   4.676
 3725TIP3    H211140   4.509   5.785   4.774
 3726TIP3   OH211141   3.783   6.292   2.791
 3726TIP3    H111142   3.779   6.294   2.695
 3726TIP3    H211143   3.823   6.208   2.811
 3727TIP3   OH211144   6.675   1.705   5.570
 3727TIP3    H111145   6.704   1.736   5.656
 3727TIP3    H211146   6.750   1.719   5.513
 3728TIP3   OH211147   5.358   5.030   1.655
 3728TIP3    H111148   5.418   4.968   1.695
 3728TIP3    H211149   5.280   5.027   1.711
 3729TIP3   OH211150   4.052   0.811   3.781
 3729TIP3    H111151   4.063   0.832   3.873
 3729TIP3    H211152   3.960   0.787   3.772
 3730TIP3   OH211153   6.835   1.921   3.277
 3730TIP3    H111154   6.780   1.978   3.224
 3730TIP3    H211155   6.924   1.952   3.261
 3731TIP3   OH211156   2.955   3.175   1.271
 3731TIP3    H111157   3.021   3.105   1.274
 3731TIP3    H211158   3.005   3.253   1.245
 3732TIP3   OH211159   4.204   2.738   5.146
 3732TIP3    H111160   4.119   2.758   5.187
 3732TIP3    H211161   4.236   2.823   5.117
 3733TIP3   OH211162   1.704   5.742   4.633
 3733TIP3    H111163   1.734   5.812   4.691
 3733TIP3    H211164   1.610   5.756   4.626
 3734TIP3   OH211165   3.047   2.848   5.110
 3734TIP3    H111166   3.053   2.840   5.205
 3734TIP3    H211167   3.137   2.845   5.079
 3735TIP3   OH211168   3.518   4.923   5.754
 3735TIP3    H111169   3.471   4.840   5.745
 3735TIP3    H211170   3.611   4.898   5.755
 3736TIP3   OH211171   6.484   2.427   2.775
 3736TIP3    H111172   6.422   2.380   2.831
 3736TIP3    H211173   6.539   2.476   2.836
 3737TIP3   OH211174   3.601   4.306   1.507
 3737TIP3    H111175   3.515   4.288   1.545
 3737TIP3    H211176   3.585   4.312   1.413
 3738TIP3   OH211177   3.482   4.292   4.589
 3738TIP3    H111178   3.571   4.316   4.615
 3738TIP3    H211179   3.439   4.376   4.570
 3739TIP3   OH211180   4.883   4.055   5.312
 3739TIP3    H111181   4.872   4.136   5.263
 3739TIP3    H211182   4.794   4.029   5.336
 3740TIP3   OH211183   1.312   4.933   4.089
 3740TIP3    H111184   1.240   4.918   4.150
 3740TIP3    H211185   1.365   5.002   4.131
 3741TIP3   OH211186   3.033   4.931   2.267
 3741TIP3    H111187   3.058   4.858   2.210
 3741TIP3    H211188   2.937   4.930   2.266
 3742TIP3   OH211189   0.560   5.452   2.387
 3742TIP3    H111190   0.604   5.401   2.455
 3742TIP3    H211191   0.509   5.517   2.435
 3743TIP3   OH211192   2.743   4.400   0.176
 3743TIP3    H111193   2.704   4.447   0.103
 3743TIP3    H211194   2.783   4.322   0.137
 3744TIP3   OH211195   5.804   3.083   5.277
 3744TIP3    H111196   5.729   3.067   5.220
 3744TIP3    H211197   5.849   3.157   5.238
 3745TIP3   OH211198   3.669   6.195   4.149
 3745TIP3    H111199   3.686   6.101   4.152
 3745TIP3    H211200   3.578   6.204   4.179
 3746TIP3   OH211201   4.969   4.872   0.227
 3746TIP3    H111202   4.902   4.896   0.163
 3746TIP3    H211203   5.038   4.938   0.216
 3747TIP3   OH211204   2.106   4.324   1.492
 3747TIP3    H111205   2.100   4.419   1.500
 3747TIP3    H211206   2.033   4.291   1.544
 3748TIP3   OH211207   2.844   2.316   3.139
 3748TIP3    H111208   2.806   2.263   3.069
 3748TIP3    H211209   2.794   2.398   3.137
 3749TIP3   OH211210   2.515   2.129   0.541
 3749TIP3    H111211   2.441   2.095   0.590
 3749TIP3    H211212   2.592   2.089   0.582
 3750TIP3   OH211213   5.397   4.198   1.797
 3750TIP3    H111214   5.410   4.212   1.703
 3750TIP3    H211215   5.391   4.103   1.807
 3751TIP3   OH211216   3.078   3.854   2.530
 3751TIP3    H111217   2.991   3.874   2.565
 3751TIP3    H211218   3.089   3.915   2.457
 3752TIP3   OH211219   1.206   1.326   1.131
 3752TIP3    H111220   1.214   1.310   1.225
 3752TIP3    H211221   1.289   1.366   1.106
 3753TIP3   OH211222   4.667   3.293   3.817
 3753TIP3    H111223   4.580   3.296   3.859
 3753TIP3    H211224   4.675   3.204   3.785
 3754TIP3   OH211225   1.076   6.442   1.475
 3754TIP3    H111226   1.075   6.450   1.570
 3754TIP3    H211227   1.167   6.426   1.452
 3755TIP3   OH211228   0.191   6.240   4.712
 3755TIP3    H111229   0.277   6.210   4.742
 3755TIP3    H211230   0.186   6.210   4.621
 3756TIP3   OH211231   7.044   5.442   0.198
 3756TIP3    H111232   7.013   5.353   0.216
 3756TIP3    H211233   6.997   5.497   0.261
 3757TIP3   OH211234   3.219   3.216   2.266
 3757TIP3    H111235   3.217   3.254   2.178
 3757TIP3    H211236   3.289   3.264   2.311
 3758TIP3   OH211237   7.193   1.027   3.743
 3758TIP3    H111238   7.201   1.095   3.810
 3758TIP3    H211239   7.152   0.953   3.789
 3759TIP3   OH211240   1.708   4.366   2.425
 3759TIP3    H111241   1.687   4.277   2.453
 3759TIP3    H211242   1.800   4.362   2.399
 3760TIP3   OH211243   1.149   4.345   5.279
 3760TIP3    H111244   1.195   4.318   5.200
 3760TIP3    H211245   1.088   4.413   5.250
 3761TIP3   OH211246   6.608   2.004   2.997
 3761TIP3    H111247   6.622   1.912   3.020
 3761TIP3    H211248   6.643   2.053   3.072
 3762TIP3   OH211249   0.678   4.141   5.398
 3762TIP3    H111250   0.659   4.222   5.445
 3762TIP3    H211251   0.773   4.140   5.389
 3763TIP3   OH211252   0.367   5.791   0.153
 3763TIP3    H111253   0.442   5.849   0.158
 3763TIP3    H211254   0.403   5.706   0.124
 3764TIP3   OH211255   0.353   0.174   1.480
 3764TIP3    H111256   0.414   0.247   1.491
 3764TIP3    H211257   0.310   0.165   1.565
 3765TIP3   OH211258   0.998   6.156   0.052
 3765TIP3    H111259   1.037   6.134  -0.032
 3765TIP3    H211260   1.072   6.164   0.112
 3766TIP3   OH211261   6.530   0.650   0.527
 3766TIP3    H111262   6.565   0.662   0.438
 3766TIP3    H211263   6.602   0.677   0.585
 3767TIP3   OH211264   6.431   5.144   3.707
 3767TIP3    H111265   6.375   5.066   3.709
 3767TIP3    H211266   6.520   5.110   3.699
 3768TIP3   OH211267   2.198   0.329   5.671
 3768TIP3    H111268   2.208   0.321   5.576
 3768TIP3    H211269   2.164   0.418   5.684
 3769TIP3   OH211270   6.769   5.429   2.203
 3769TIP3    H111271   6.686   5.382   2.210
 3769TIP3    H211272   6.824   5.371   2.149
 3770TIP3   OH211273   5.970   6.130   2.692
 3770TIP3    H111274   5.919   6.196   2.739
 3770TIP3    H211275   5.909   6.058   2.679
 3771TIP3   OH211276   0.435   6.520   4.922
 3771TIP3    H111277   0.382   6.575   4.865
 3771TIP3    H211278   0.386   6.439   4.930
 3772TIP3   OH211279   3.360   4.587   5.354
 3772TIP3    H111280   3.418   4.569   5.280
 3772TIP3    H211281   3.420   4.609   5.426
 3773TIP3   OH211282   6.499   5.126   4.554
 3773TIP3    H111283   6.529   5.081   4.632
 3773TIP3    H211284   6.580   5.148   4.506
 3774TIP3   OH211285   4.006   0.686   2.353
 3774TIP3    H111286   3.962   0.769   2.335
 3774TIP3    H211287   3.941   0.634   2.400
 3775TIP3   OH211288   1.269   0.216   5.085
 3775TIP3    H111289   1.310   0.202   5.000
 3775TIP3    H211290   1.222   0.135   5.103
 3776TIP3   OH211291   0.147   1.484   3.845
 3776TIP3    H111292   0.164   1.475   3.752
 3776TIP3    H211293   0.210   1.549   3.875
 3777TIP3   OH211294   6.982   0.323   1.672
 3777TIP3    H111295   7.051   0.388   1.690
 3777TIP3    H211296   7.017   0.270   1.601
 3778TIP3   OH211297   0.295   5.711   4.010
 3778TIP3    H111298   0.314   5.728   4.103
 3778TIP3    H211299   0.373   5.665   3.979
 3779TIP3   OH211300   4.230   3.830   2.691
 3779TIP3    H111301   4.172   3.864   2.759
 3779TIP3    H211302   4.247   3.740   2.716
 3780TIP3   OH211303   1.876   1.371   3.217
 3780TIP3    H111304   1.944   1.403   3.276
 3780TIP3    H211305   1.893   1.414   3.134
 3781TIP3   OH211306   3.795   5.936   5.586
 3781TIP3    H111307   3.849   5.858   5.602
 3781TIP3    H211308   3.795   5.982   5.670
 3782TIP3   OH211309   0.343   3.828   5.559
 3782TIP3    H111310   0.309   3.787   5.480
 3782TIP3    H211311   0.278   3.896   5.580
 3783TIP3   OH211312   6.219   6.454   2.652
 3783TIP3    H111313   6.225   6.482   2.743
 3783TIP3    H211314   6.240   6.360   2.655
 3784TIP3   OH211315   2.272   0.483   4.707
 3784TIP3    H111316   2.331   0.554   4.683
 3784TIP3    H211317   2.187   0.525   4.717
 3785TIP3   OH211318   1.127   2.645   0.650
 3785TIP3    H111319   1.169   2.698   0.718
 3785TIP3    H211320   1.199   2.593   0.613
 3786TIP3   OH211321   0.373   0.675   4.552
 3786TIP3    H111322   0.467   0.678   4.532
 3786TIP3    H211323   0.331   0.660   4.468
 3787TIP3   OH211324   4.310   1.260   4.036
 3787TIP3    H111325   4.318   1.177   3.988
 3787TIP3    H211326   4.223   1.257   4.075
 3788TIP3   OH211327   3.009   4.160   3.424
 3788TIP3    H111328   3.006   4.154   3.520
 3788TIP3    H211329   3.087   4.111   3.400
 3789TIP3   OH211330   4.561   0.879   4.986
 3789TIP3    H111331   4.508   0.841   5.056
 3789TIP3    H211332   4.626   0.811   4.966
 3790TIP3   OH211333   1.056   4.323   1.044
 3790TIP3    H111334   0.961   4.318   1.049
 3790TIP3    H211335   1.074   4.395   0.983
 3791TIP3   OH211336   2.696   5.656   1.856
 3791TIP3    H111337   2.621   5.607   1.823
 3791TIP3    H211338   2.700   5.636   1.949
 3792TIP3   OH211339   2.397   0.202   3.006
 3792TIP3    H111340   2.468   0.251   3.047
 3792TIP3    H211341   2.439   0.124   2.970
 3793TIP3   OH211342   3.423   1.963   5.811
 3793TIP3    H111343   3.489   1.914   5.762
 3793TIP3    H211344   3.382   2.020   5.746
 3794TIP3   OH211345   0.361   2.791   0.891
 3794TIP3    H111346   0.364   2.695   0.895
 3794TIP3    H211347   0.445   2.819   0.927
 3795TIP3   OH211348   3.210   6.504   2.078
 3795TIP3    H111349   3.224   6.465   1.992
 3795TIP3    H211350   3.293   6.492   2.124
 3796TIP3   OH211351   5.387   3.203   3.915
 3796TIP3    H111352   5.406   3.214   4.008
 3796TIP3    H211353   5.467   3.164   3.878
 3797TIP3   OH211354   1.369   0.028   4.042
 3797TIP3    H111355   1.313   0.090   4.089
 3797TIP3    H211356   1.356   0.050   3.950
 3798TIP3   OH211357   2.322   6.092   5.417
 3798TIP3    H111358   2.400   6.069   5.467
 3798TIP3    H211359   2.265   6.016   5.425
 3799TIP3   OH211360   7.124   1.973   1.791
 3799TIP3    H111361   7.129   1.880   1.813
 3799TIP3    H211362   7.061   2.010   1.853
 3800TIP3   OH211363   1.000   5.497   0.698
 3800TIP3    H111364   1.046   5.519   0.617
 3800TIP3    H211365   0.922   5.449   0.668
 3801TIP3   OH211366   6.183   3.693   0.282
 3801TIP3    H111367   6.222   3.745   0.212
 3801TIP3    H211368   6.229   3.720   0.361
 3802TIP3   OH211369   6.025   6.061   1.463
 3802TIP3    H111370   5.931   6.071   1.475
 3802TIP3    H211371   6.052   6.002   1.534
 3803TIP3   OH211372   1.144   2.043   5.173
 3803TIP3    H111373   1.165   2.103   5.244
 3803TIP3    H211374   1.227   2.027   5.129
 3804TIP3   OH211375   6.672   2.669   3.599
 3804TIP3    H111376   6.640   2.619   3.524
 3804TIP3    H211377   6.692   2.602   3.665
 3805TIP3   OH211378   0.446   6.563   5.852
 3805TIP3    H111379   0.432   6.618   5.775
 3805TIP3    H211380   0.540   6.544   5.851
 3806TIP3   OH211381   4.226   5.072   2.526
 3806TIP3    H111382   4.257   4.989   2.562
 3806TIP3    H211383   4.145   5.049   2.480
 3807TIP3   OH211384   1.270   0.567   5.383
 3807TIP3    H111385   1.361   0.555   5.410
 3807TIP3    H211386   1.220   0.510   5.442
 3808TIP3   OH211387   5.223   3.938   1.514
 3808TIP3    H111388   5.143   3.887   1.529
 3808TIP3    H211389   5.265   3.943   1.600
 3809TIP3   OH211390   5.421   0.516   2.556
 3809TIP3    H111391   5.379   0.588   2.603
 3809TIP3    H211392   5.366   0.440   2.574
 3810TIP3   OH211393   0.536   6.683   0.335
 3810TIP3    H111394   0.463   6.744   0.326
 3810TIP3    H211395   0.495   6.597   0.345
 3811TIP3   OH211396   4.814   0.440   4.429
 3811TIP3    H111397   4.770   0.455   4.512
 3811TIP3    H211398   4.875   0.369   4.447
 3812TIP3   OH211399   6.196   0.519   2.404
 3812TIP3    H111400   6.191   0.447   2.342
 3812TIP3    H211401   6.290   0.532   2.420
 3813TIP3   OH211402   6.285   4.549   5.764
 3813TIP3    H111403   6.303   4.612   5.833
 3813TIP3    H211404   6.315   4.465   5.799
 3814TIP3   OH211405   1.597   1.353   2.852
 3814TIP3    H111406   1.605   1.366   2.947
 3814TIP3    H211407   1.663   1.287   2.832
 3815TIP3   OH211408   1.467   6.263   5.105
 3815TIP3    H111409   1.469   6.352   5.140
 3815TIP3    H211410   1.508   6.209   5.172
 3816TIP3   OH211411   6.031   2.898   0.849
 3816TIP3    H111412   6.053   2.817   0.895
 3816TIP3    H211413   5.982   2.869   0.772
 3817TIP3   OH211414   6.677   4.208   3.510
 3817TIP3    H111415   6.730   4.213   3.431
 3817TIP3    H211416   6.730   4.250   3.577
 3818TIP3   OH211417   4.117   6.436   2.683
 3818TIP3    H111418   4.040   6.491   2.666
 3818TIP3    H211419   4.112   6.368   2.616
 3819TIP3   OH211420   4.161   2.317   3.885
 3819TIP3    H111421   4.174   2.328   3.980
 3819TIP3    H211422   4.191   2.399   3.847
 3820TIP3   OH211423   0.468   4.658   2.432
 3820TIP3    H111424   0.502   4.569   2.437
 3820TIP3    H211425   0.546   4.714   2.442
 3821TIP3   OH211426   1.035   0.214   1.679
 3821TIP3    H111427   1.095   0.144   1.706
 3821TIP3    H211428   0.959   0.168   1.643
 3822TIP3   OH211429   5.066   0.080   2.066
 3822TIP3    H111430   5.158   0.106   2.074
 3822TIP3    H211431   5.069  -0.012   2.039
 3823TIP3   OH211432   5.267   4.275   4.445
 3823TIP3    H111433   5.271   4.180   4.448
 3823TIP3    H211434   5.230   4.294   4.358
 3824TIP3   OH211435   6.311   1.401   5.509
 3824TIP3    H111436   6.385   1.441   5.555
 3824TIP3    H211437   6.236   1.421   5.565
 3825TIP3   OH211438   0.998   2.694   3.358
 3825TIP3    H111439   1.053   2.692   3.280
 3825TIP3    H211440   0.909   2.679   3.325
 3826TIP3   OH211441   6.763   5.565   3.219
 3826TIP3    H111442   6.725   5.550   3.306
 3826TIP3    H211443   6.819   5.642   3.230
 3827TIP3   OH211444   0.287   6.188   0.820
 3827TIP3    H111445   0.325   6.216   0.737
 3827TIP3    H211446   0.360   6.146   0.866
 3828TIP3   OH211447   0.540   2.246   3.804
 3828TIP3    H111448   0.503   2.275   3.721
 3828TIP3    H211449   0.599   2.174   3.780
 3829TIP3   OH211450   1.467   0.969   4.983
 3829TIP3    H111451   1.395   0.922   5.024
 3829TIP3    H211452   1.529   0.901   4.957
 3830TIP3   OH211453   4.159   6.753   1.946
 3830TIP3    H111454   4.097   6.686   1.976
 3830TIP3    H211455   4.119   6.787   1.866
 3831TIP3   OH211456   1.880   3.002   2.655
 3831TIP3    H111457   1.818   2.947   2.606
 3831TIP3    H211458   1.892   2.956   2.738
 3832TIP3   OH211459   4.685   1.466   4.971
 3832TIP3    H111460   4.620   1.531   4.945
 3832TIP3    H211461   4.633   1.395   5.009
 3833TIP3   OH211462   3.345   1.412   5.564
 3833TIP3    H111463   3.300   1.342   5.515
 3833TIP3    H211464   3.408   1.365   5.619
 3834TIP3   OH211465   2.535   4.305   4.703
 3834TIP3    H111466   2.510   4.376   4.763
 3834TIP3    H211467   2.558   4.349   4.622
 3835TIP3   OH211468   0.564   2.809   5.790
 3835TIP3    H111469   0.571   2.874   5.719
 3835TIP3    H211470   0.475   2.777   5.784
 3836TIP3   OH211471   2.418   3.392   3.394
 3836TIP3    H111472   2.504   3.357   3.372
 3836TIP3    H211473   2.366   3.380   3.314
 3837TIP3   OH211474   5.884   3.811   2.033
 3837TIP3    H111475   5.894   3.718   2.054
 3837TIP3    H211476   5.919   3.856   2.110
 3838TIP3   OH211477   0.018   6.104   0.953
 3838TIP3    H111478  -0.036   6.087   0.876
 3838TIP3    H211479   0.062   6.187   0.933
 3839TIP3   OH211480   0.004   4.325   4.704
 3839TIP3    H111481  -0.013   4.302   4.613
 3839TIP3    H211482   0.023   4.419   4.702
 3840TIP3   OH211483   2.199   4.633   4.685
 3840TIP3    H111484   2.150   4.695   4.739
 3840TIP3    H211485   2.281   4.620   4.732
 3841TIP3   OH211486   4.519   3.961   0.471
 3841TIP3    H111487   4.532   3.866   0.480
 3841TIP3    H211488   4.531   3.978   0.378
 3842TIP3   OH211489   2.722   1.299   1.862
 3842TIP3    H111490   2.660   1.344   1.919
 3842TIP3    H211491   2.757   1.367   1.805
 3843TIP3   OH211492   0.050   1.820   5.240
 3843TIP3    H111493   0.128   1.856   5.283
 3843TIP3    H211494   0.085   1.758   5.175
 3844TIP3   OH211495   4.705   1.025   2.409
 3844TIP3    H111496   4.675   1.025   2.318
 3844TIP3    H211497   4.782   0.968   2.409
 3845TIP3   OH211498   1.617   1.340   3.127
 3845TIP3    H111499   1.700   1.323   3.172
 3845TIP3    H211500   1.591   1.427   3.157
 3846TIP3   OH211501   0.417   5.709   3.394
 3846TIP3    H111502   0.335   5.698   3.442
 3846TIP3    H211503   0.470   5.633   3.420
 3847TIP3   OH211504   6.743   0.077   5.000
 3847TIP3    H111505   6.722   0.045   5.088
 3847TIP3    H211506   6.730   0.172   5.006
 3848TIP3   OH211507   4.503   5.553   1.724
 3848TIP3    H111508   4.558   5.621   1.685
 3848TIP3    H211509   4.551   5.471   1.708
 3849TIP3   OH211510   4.928   1.560   5.065
 3849TIP3    H111511   4.840   1.548   5.031
 3849TIP3    H211512   4.970   1.475   5.051
 3850TIP3   OH211513   5.841   4.499   4.801
 3850TIP3    H111514   5.888   4.423   4.837
 3850TIP3    H211515   5.910   4.552   4.761
 3851TIP3   OH211516   5.550   1.112   5.089
 3851TIP3    H111517   5.534   1.187   5.146
 3851TIP3    H211518   5.560   1.038   5.149
 3852TIP3   OH211519   0.003   3.147   1.447
 3852TIP3    H111520   0.072   3.089   1.478
 3852TIP3    H211521   0.048   3.217   1.400
 3853TIP3   OH211522   2.728   0.655   1.596
 3853TIP3    H111523   2.784   0.612   1.531
 3853TIP3    H211524   2.735   0.748   1.576
 3854TIP3   OH211525   4.101   3.897   1.381
 3854TIP3    H111526   4.162   3.967   1.355
 3854TIP3    H211527   4.070   3.924   1.467
 3855TIP3   OH211528   1.931   3.269   1.616
 3855TIP3    H111529   1.860   3.238   1.560
 3855TIP3    H211530   2.010   3.251   1.566
 3856TIP3   OH211531   3.163   4.362   5.141
 3856TIP3    H111532   3.176   4.432   5.206
 3856TIP3    H211533   3.223   4.384   5.069
 3857TIP3   OH211534   6.362   3.665   2.944
 3857TIP3    H111535   6.295   3.671   2.876
 3857TIP3    H211536   6.443   3.644   2.897
 3858TIP3   OH211537   2.479   0.244   0.080
 3858TIP3    H111538   2.508   0.158   0.050
 3858TIP3    H211539   2.475   0.236   0.175
 3859TIP3   OH211540   1.448   3.854   3.579
 3859TIP3    H111541   1.422   3.810   3.497
 3859TIP3    H211542   1.491   3.785   3.630
 3860TIP3   OH211543   4.357   5.484   5.511
 3860TIP3    H111544   4.297   5.558   5.519
 3860TIP3    H211545   4.340   5.449   5.423
 3861TIP3   OH211546   2.444   1.545   4.870
 3861TIP3    H111547   2.404   1.522   4.786
 3861TIP3    H211548   2.531   1.578   4.847
 3862TIP3   OH211549   1.661   1.319   1.697
 3862TIP3    H111550   1.720   1.284   1.630
 3862TIP3    H211551   1.671   1.260   1.771
 3863TIP3   OH211552   0.228   4.148   1.201
 3863TIP3    H111553   0.161   4.204   1.163
 3863TIP3    H211554   0.230   4.071   1.144
 3864TIP3   OH211555   5.994   2.118   2.341
 3864TIP3    H111556   5.933   2.056   2.381
 3864TIP3    H211557   6.060   2.135   2.408
 3865TIP3   OH211558   0.832   3.223   4.298
 3865TIP3    H111559   0.771   3.169   4.248
 3865TIP3    H211560   0.783   3.301   4.321
 3866TIP3   OH211561   3.785   2.511   2.197
 3866TIP3    H111562   3.783   2.578   2.129
 3866TIP3    H211563   3.770   2.429   2.151
 3867TIP3   OH211564   5.397   4.688   0.514
 3867TIP3    H111565   5.318   4.742   0.516
 3867TIP3    H211566   5.372   4.613   0.460
 3868TIP3   OH211567   4.181   1.474   1.012
 3868TIP3    H111568   4.125   1.446   1.084
 3868TIP3    H211569   4.215   1.559   1.039
 3869TIP3   OH211570   4.237   4.608   3.007
 3869TIP3    H111571   4.190   4.529   2.980
 3869TIP3    H211572   4.169   4.669   3.034
 3870TIP3   OH211573   6.963   2.999   2.971
 3870TIP3    H111574   7.032   3.048   2.926
 3870TIP3    H211575   6.937   3.056   3.044
 3871TIP3   OH211576   1.779   6.597   5.471
 3871TIP3    H111577   1.832   6.549   5.408
 3871TIP3    H211578   1.784   6.688   5.442
 3872TIP3   OH211579   4.767   2.913   5.116
 3872TIP3    H111580   4.718   2.898   5.197
 3872TIP3    H211581   4.777   2.826   5.078
 3873TIP3   OH211582   3.540   4.366   5.483
 3873TIP3    H111583   3.580   4.313   5.552
 3873TIP3    H211584   3.564   4.456   5.506
 3874TIP3   OH211585   7.004   0.666   0.339
 3874TIP3    H111586   7.027   0.757   0.319
 3874TIP3    H211587   7.018   0.619   0.257
 3875TIP3   OH211588   1.698   0.469   0.245
 3875TIP3    H111589   1.638   0.454   0.319
 3875TIP3    H211590   1.687   0.562   0.224
 3876TIP3   OH211591   6.556   1.461   5.656
 3876TIP3    H111592   6.593   1.535   5.609
 3876TIP3    H211593   6.484   1.498   5.708
 3877TIP3   OH211594   1.880   3.487   2.395
 3877TIP3    H111595   1.973   3.477   2.375
 3877TIP3    H211596   1.854   3.403   2.431
 3878TIP3   OH211597   0.869   5.900   3.559
 3878TIP3    H111598   0.912   5.865   3.637
 3878TIP3    H211599   0.928   5.968   3.527
 3879TIP3   OH211600   5.359   2.003   3.401
 3879TIP3    H111601   5.281   2.000   3.346
 3879TIP3    H211602   5.345   2.079   3.458
 3880TIP3   OH211603   0.852   1.283   2.911
 3880TIP3    H111604   0.845   1.378   2.916
 3880TIP3    H211605   0.945   1.264   2.926
 3881TIP3   OH211606   1.102   1.597   1.081
 3881TIP3    H111607   1.128   1.625   0.993
 3881TIP3    H211608   1.129   1.505   1.086
 3882TIP3   OH211609   3.944   1.522   0.844
 3882TIP3    H111610   3.911   1.604   0.879
 3882TIP3    H211611   4.026   1.506   0.891
 3883TIP3   OH211612   2.928   2.267   5.752
 3883TIP3    H111613   2.948   2.209   5.826
 3883TIP3    H211614   2.833   2.266   5.746
 3884TIP3   OH211615   5.812   0.114   5.527
 3884TIP3    H111616   5.741   0.140   5.586
 3884TIP3    H211617   5.804   0.173   5.453
 3885TIP3   OH211618   0.998   0.967   0.854
 3885TIP3    H111619   1.009   0.885   0.903
 3885TIP3    H211620   0.976   1.032   0.920
 3886TIP3   OH211621   0.114   0.775   5.774
 3886TIP3    H111622   0.065   0.757   5.854
 3886TIP3    H211623   0.201   0.801   5.804
 3887TIP3   OH211624   1.072   0.038   3.916
 3887TIP3    H111625   1.028   0.111   3.959
 3887TIP3    H211626   1.069  -0.033   3.980
 3888TIP3   OH211627   0.933   0.739   3.766
 3888TIP3    H111628   0.976   0.743   3.680
 3888TIP3    H211629   0.876   0.816   3.768
 3889TIP3   OH211630   3.778   0.639   0.476
 3889TIP3    H111631   3.690   0.675   0.488
 3889TIP3    H211632   3.802   0.603   0.561
 3890TIP3   OH211633   4.708   3.601   2.695
 3890TIP3    H111634   4.662   3.522   2.665
 3890TIP3    H211635   4.640   3.669   2.695
 3891TIP3   OH211636   3.642   0.628   3.949
 3891TIP3    H111637   3.628   0.540   3.916
 3891TIP3    H211638   3.696   0.616   4.027
 3892TIP3   OH211639   4.462   1.355   2.679
 3892TIP3    H111640   4.547   1.352   2.723
 3892TIP3    H211641   4.446   1.264   2.653
 3893TIP3   OH211642   4.362   0.724   3.562
 3893TIP3    H111643   4.413   0.750   3.485
 3893TIP3    H211644   4.325   0.805   3.595
 3894TIP3   OH211645   4.613   1.086   2.651
 3894TIP3    H111646   4.649   1.063   2.565
 3894TIP3    H211647   4.541   1.024   2.663
 3895TIP3   OH211648   5.098   4.266   3.897
 3895TIP3    H111649   5.103   4.279   3.991
 3895TIP3    H211650   5.024   4.319   3.869
 3896TIP3   OH211651   6.353   5.154   2.843
 3896TIP3    H111652   6.379   5.241   2.872
 3896TIP3    H211653   6.399   5.094   2.902
 3897TIP3   OH211654   3.457   5.504   3.314
 3897TIP3    H111655   3.475   5.411   3.325
 3897TIP3    H211656   3.439   5.514   3.221
 3898TIP3   OH211657   1.329   0.497   4.054
 3898TIP3    H111658   1.337   0.573   4.112
 3898TIP3    H211659   1.321   0.534   3.966
 3899TIP3   OH211660   3.827   1.283   4.488
 3899TIP3    H111661   3.821   1.368   4.444
 3899TIP3    H211662   3.814   1.219   4.419
 3900TIP3   OH211663   4.208   1.934   3.187
 3900TIP3    H111664   4.180   2.021   3.156
 3900TIP3    H211665   4.125   1.888   3.204
 3901TIP3   OH211666   0.001   3.791   0.420
 3901TIP3    H111667   0.016   3.832   0.335
 3901TIP3    H211668   0.070   3.725   0.428
 3902TIP3   OH211669   7.170   0.508   4.465
 3902TIP3    H111670   7.127   0.516   4.380
 3902TIP3    H211671   7.238   0.441   4.451
 3903TIP3   OH211672   5.068   2.793   4.963
 3903TIP3    H111673   5.054   2.760   4.875
 3903TIP3    H211674   4.998   2.754   5.015
 3904TIP3   OH211675   6.420   4.109   4.498
 3904TIP3    H111676   6.470   4.126   4.579
 3904TIP3    H211677   6.389   4.195   4.471
 3905TIP3   OH211678   0.319   5.077   1.471
 3905TIP3    H111679   0.381   5.149   1.480
 3905TIP3    H211680   0.370   4.999   1.491
 3906TIP3   OH211681   0.645   3.159   4.615
 3906TIP3    H111682   0.728   3.125   4.582
 3906TIP3    H211683   0.629   3.110   4.695
 3907TIP3   OH211684   3.689   5.292   2.970
 3907TIP3    H111685   3.714   5.230   3.038
 3907TIP3    H211686   3.594   5.285   2.963
 3908TIP3   OH211687   6.490   4.875   1.131
 3908TIP3    H111688   6.539   4.921   1.199
 3908TIP3    H211689   6.555   4.824   1.084
 3909TIP3   OH211690   3.950   2.514   2.800
 3909TIP3    H111691   3.996   2.453   2.742
 3909TIP3    H211692   3.928   2.461   2.877
 3910TIP3   OH211693   5.311   4.758   5.035
 3910TIP3    H111694   5.394   4.713   5.055
 3910TIP3    H211695   5.292   4.733   4.945
 3911TIP3   OH211696   2.439   2.942   1.241
 3911TIP3    H111697   2.520   2.986   1.213
 3911TIP3    H211698   2.465   2.851   1.253
 3912TIP3   OH211699   5.030   1.484   5.305
 3912TIP3    H111700   5.001   1.535   5.229
 3912TIP3    H211701   5.102   1.431   5.272
 3913TIP3   OH211702   5.246   6.315   3.496
 3913TIP3    H111703   5.296   6.395   3.479
 3913TIP3    H211704   5.283   6.281   3.577
 3914TIP3   OH211705   2.063   5.600   5.797
 3914TIP3    H111706   1.999   5.569   5.861
 3914TIP3    H211707   2.137   5.630   5.849
 3915TIP3   OH211708   2.609   0.817   4.940
 3915TIP3    H111709   2.559   0.745   4.901
 3915TIP3    H211710   2.549   0.856   5.003
 3916TIP3   OH211711   1.604   6.686   3.988
 3916TIP3    H111712   1.522   6.699   3.939
 3916TIP3    H211713   1.597   6.744   4.063
 3917TIP3   OH211714   4.653   4.831   3.628
 3917TIP3    H111715   4.647   4.742   3.593
 3917TIP3    H211716   4.662   4.887   3.551
 3918TIP3   OH211717   3.244   0.842   0.335
 3918TIP3    H111718   3.285   0.763   0.299
 3918TIP3    H211719   3.314   0.907   0.336
 3919TIP3   OH211720   1.765   2.250   1.360
 3919TIP3    H111721   1.717   2.332   1.374
 3919TIP3    H211722   1.840   2.256   1.419
 3920TIP3   OH211723   2.170   1.204   5.639
 3920TIP3    H111724   2.232   1.260   5.594
 3920TIP3    H211725   2.186   1.220   5.732
 3921TIP3   OH211726   2.920   3.106   0.878
 3921TIP3    H111727   2.858   3.049   0.832
 3921TIP3    H211728   2.990   3.047   0.907
 3922TIP3   OH211729   2.680   2.258   1.140
 3922TIP3    H111730   2.766   2.218   1.130
 3922TIP3    H211731   2.647   2.223   1.223
 3923TIP3   OH211732   4.571   2.725   4.972
 3923TIP3    H111733   4.654   2.736   4.925
 3923TIP3    H211734   4.521   2.804   4.952
 3924TIP3   OH211735   7.012   3.894   5.296
 3924TIP3    H111736   7.063   3.972   5.274
 3924TIP3    H211737   6.922   3.916   5.271
 3925TIP3   OH211738   6.519   0.465   5.227
 3925TIP3    H111739   6.611   0.487   5.218
 3925TIP3    H211740   6.474   0.550   5.227
 3926TIP3   OH211741   4.606   4.260   4.560
 3926TIP3    H111742   4.613   4.244   4.466
 3926TIP3    H211743   4.572   4.349   4.567
 3927TIP3   OH211744   6.780   1.802   3.901
 3927TIP3    H111745   6.862   1.802   3.950
 3927TIP3    H211746   6.806   1.778   3.812
 3928TIP3   OH211747   3.078   4.004   4.058
 3928TIP3    H111748   3.085   4.099   4.044
 3928TIP3    H211749   2.986   3.990   4.078
 3929TIP3   OH211750   0.122   4.156   2.085
 3929TIP3    H111751   0.126   4.251   2.093
 3929TIP3    H211752   0.096   4.141   1.995
 3930TIP3   OH211753   5.940   4.180   3.774
 3930TIP3    H111754   5.995   4.101   3.774
 3930TIP3    H211755   5.850   4.147   3.773
 3931TIP3   OH211756   5.047   1.544   0.751
 3931TIP3    H111757   5.013   1.625   0.789
 3931TIP3    H211758   5.004   1.475   0.801
 3932TIP3   OH211759   2.743   1.853   2.683
 3932TIP3    H111760   2.661   1.901   2.698
 3932TIP3    H211761   2.737   1.823   2.592
 3933TIP3   OH211762   0.843   6.627   1.017
 3933TIP3    H111763   0.876   6.618   1.107
 3933TIP3    H211764   0.758   6.671   1.027
 3934TIP3   OH211765   4.867   2.409   2.992
 3934TIP3    H111766   4.901   2.363   2.915
 3934TIP3    H211767   4.885   2.350   3.065
 3935TIP3   OH211768   2.460   0.919   3.900
 3935TIP3    H111769   2.531   0.864   3.869
 3935TIP3    H211770   2.502   0.986   3.953
 3936TIP3   OH211771   1.812   3.090   5.141
 3936TIP3    H111772   1.807   2.995   5.126
 3936TIP3    H211773   1.822   3.099   5.235
 3937TIP3   OH211774   5.289   6.053   3.767
 3937TIP3    H111775   5.257   6.000   3.840
 3937TIP3    H211776   5.381   6.069   3.788
 3938TIP3   OH211777   2.258   3.533   3.739
 3938TIP3    H111778   2.300   3.587   3.805
 3938TIP3    H211779   2.164   3.547   3.752
 3939TIP3   OH211780   5.847   6.073   3.439
 3939TIP3    H111781   5.873   6.044   3.526
 3939TIP3    H211782   5.829   6.167   3.449
 3940TIP3   OH211783   2.311   0.131   1.454
 3940TIP3    H111784   2.343   0.058   1.507
 3940TIP3    H211785   2.237   0.165   1.504
 3941TIP3   OH211786   5.490   6.687   5.836
 3941TIP3    H111787   5.515   6.655   5.922
 3941TIP3    H211788   5.545   6.637   5.775
 3942TIP3   OH211789   0.168   0.446   2.640
 3942TIP3    H111790   0.227   0.515   2.672
 3942TIP3    H211791   0.083   0.488   2.634
 3943TIP3   OH211792   2.516   1.255   1.699
 3943TIP3    H111793   2.443   1.246   1.760
 3943TIP3    H211794   2.594   1.238   1.751
 3944TIP3   OH211795   0.483   3.849   4.659
 3944TIP3    H111796   0.497   3.910   4.586
 3944TIP3    H211797   0.560   3.860   4.715
 3945TIP3   OH211798   5.152   2.539   5.250
 3945TIP3    H111799   5.133   2.584   5.332
 3945TIP3    H211800   5.247   2.538   5.245
 3946TIP3   OH211801   3.285   2.617   0.457
 3946TIP3    H111802   3.232   2.584   0.530
 3946TIP3    H211803   3.284   2.546   0.393
 3947TIP3   OH211804   0.021   6.128   5.775
 3947TIP3    H111805   0.079   6.073   5.828
 3947TIP3    H211806  -0.060   6.132   5.825
 3948TIP3   OH211807   3.881   0.492   4.638
 3948TIP3    H111808   3.893   0.541   4.720
 3948TIP3    H211809   3.836   0.411   4.664
 3949TIP3   OH211810   6.025   5.321   2.029
 3949TIP3    H111811   5.994   5.233   2.049
 3949TIP3    H211812   5.964   5.379   2.074
 3950TIP3   OH211813   5.621   5.358   3.319
 3950TIP3    H111814   5.527   5.360   3.302
 3950TIP3    H211815   5.638   5.437   3.370
 3951TIP3   OH211816   2.744   4.745   1.281
 3951TIP3    H111817   2.679   4.723   1.215
 3951TIP3    H211818   2.699   4.738   1.364
 3952TIP3   OH211819   2.605   6.563   5.135
 3952TIP3    H111820   2.652   6.645   5.122
 3952TIP3    H211821   2.533   6.566   5.071
 3953TIP3   OH211822   4.461   0.863   4.268
 3953TIP3    H111823   4.401   0.907   4.328
 3953TIP3    H211824   4.420   0.777   4.253
 3954TIP3   OH211825   3.068   4.992   3.072
 3954TIP3    H111826   3.055   4.994   3.167
 3954TIP3    H211827   3.083   4.899   3.052
 3955TIP3   OH211828   4.787   5.501   2.798
 3955TIP3    H111829   4.725   5.572   2.815
 3955TIP3    H211830   4.779   5.483   2.705
 3956TIP3   OH211831   2.082   4.401   5.676
 3956TIP3    H111832   2.083   4.313   5.714
 3956TIP3    H211833   2.058   4.458   5.749
 3957TIP3   OH211834   0.991   3.604   3.715
 3957TIP3    H111835   0.922   3.621   3.778
 3957TIP3    H211836   0.973   3.666   3.643
 3958TIP3   OH211837   3.786   0.816   0.099
 3958TIP3    H111838   3.769   0.893   0.153
 3958TIP3    H211839   3.701   0.773   0.089
 3959TIP3   OH211840   1.054   0.527   0.759
 3959TIP3    H111841   1.133   0.485   0.726
 3959TIP3    H211842   1.059   0.617   0.727
 3960TIP3   OH211843   4.264   0.155   4.325
 3960TIP3    H111844   4.266   0.076   4.379
 3960TIP3    H211845   4.184   0.201   4.353
 3961TIP3   OH211846   6.700   4.524   2.656
 3961TIP3    H111847   6.635   4.478   2.603
 3961TIP3    H211848   6.662   4.527   2.743
 3962TIP3   OH211849   3.490   5.235   3.600
 3962TIP3    H111850   3.474   5.231   3.506
 3962TIP3    H211851   3.585   5.243   3.608
 3963TIP3   OH211852   0.027   6.755   3.673
 3963TIP3    H111853   0.082   6.766   3.594
 3963TIP3    H211854  -0.063   6.759   3.640
 3964TIP3   OH211855   4.957   6.244   3.525
 3964TIP3    H111856   5.044   6.264   3.491
 3964TIP3    H211857   4.969   6.232   3.619
 3965TIP3   OH211858   3.296   3.808   2.262
 3965TIP3    H111859   3.283   3.754   2.184
 3965TIP3    H211860   3.389   3.829   2.261
 3966TIP3   OH211861   4.060   2.744   5.821
 3966TIP3    H111862   3.997   2.731   5.892
 3966TIP3    H211863   4.030   2.687   5.751
 3967TIP3   OH211864   4.011   4.760   3.057
 3967TIP3    H111865   3.939   4.700   3.032
 3967TIP3    H211866   4.030   4.808   2.977
 3968TIP3   OH211867   1.977   5.567   4.665
 3968TIP3    H111868   1.964   5.661   4.657
 3968TIP3    H211869   1.891   5.533   4.691
 3969TIP3   OH211870   4.345   6.569   0.079
 3969TIP3    H111871   4.319   6.546  -0.010
 3969TIP3    H211872   4.418   6.630   0.068
 3970TIP3   OH211873   1.878   0.998   3.673
 3970TIP3    H111874   1.887   1.070   3.735
 3970TIP3    H211875   1.883   0.919   3.727
 3971TIP3   OH211876   5.965   4.642   1.867
 3971TIP3    H111877   6.026   4.583   1.912
 3971TIP3    H211878   5.892   4.587   1.842
 3972TIP3   OH211879   0.354   5.786   4.640
 3972TIP3    H111880   0.298   5.732   4.584
 3972TIP3    H211881   0.349   5.746   4.726
 3973TIP3   OH211882   4.833   5.436   4.051
 3973TIP3    H111883   4.771   5.396   3.992
 3973TIP3    H211884   4.913   5.383   4.043
 3974TIP3   OH211885   4.905   2.609   5.591
 3974TIP3    H111886   4.935   2.544   5.654
 3974TIP3    H211887   4.814   2.628   5.617
 3975TIP3   OH211888   5.604   6.464   4.144
 3975TIP3    H111889   5.588   6.537   4.204
 3975TIP3    H211890   5.608   6.387   4.201
 3976TIP3   OH211891   3.472   1.089   0.141
 3976TIP3    H111892   3.527   1.037   0.200
 3976TIP3    H211893   3.406   1.128   0.198
 3977TIP3   OH211894   2.201   5.182   2.832
 3977TIP3    H111895   2.205   5.087   2.825
 3977TIP3    H211896   2.260   5.203   2.905
 3978TIP3   OH211897   2.182   3.752   0.459
 3978TIP3    H111898   2.155   3.812   0.527
 3978TIP3    H211899   2.118   3.765   0.388
 3979TIP3   OH211900   6.123   1.344   0.050
 3979TIP3    H111901   6.058   1.284   0.012
 3979TIP3    H211902   6.104   1.344   0.144
 3980TIP3   OH211903   5.391   2.900   2.092
 3980TIP3    H111904   5.462   2.954   2.058
 3980TIP3    H211905   5.312   2.934   2.049
 3981TIP3   OH211906   4.403   5.287   0.845
 3981TIP3    H111907   4.437   5.209   0.888
 3981TIP3    H211908   4.322   5.259   0.803
 3982TIP3   OH211909   6.116   5.424   4.252
 3982TIP3    H111910   6.105   5.354   4.316
 3982TIP3    H211911   6.151   5.497   4.303
 3983TIP3   OH211912   0.489   0.866   4.780
 3983TIP3    H111913   0.584   0.875   4.778
 3983TIP3    H211914   0.473   0.781   4.819
 3984TIP3   OH211915   6.562   6.329   0.583
 3984TIP3    H111916   6.497   6.281   0.635
 3984TIP3    H211917   6.510   6.392   0.533
 3985TIP3   OH211918   4.637   5.729   3.246
 3985TIP3    H111919   4.592   5.646   3.231
 3985TIP3    H211920   4.647   5.732   3.341
 3986TIP3   OH211921   1.807   4.517   1.587
 3986TIP3    H111922   1.817   4.439   1.532
 3986TIP3    H211923   1.776   4.585   1.527
 3987TIP3   OH211924   3.303   1.777   0.612
 3987TIP3    H111925   3.282   1.792   0.705
 3987TIP3    H211926   3.254   1.699   0.589
 3988TIP3   OH211927   4.282   1.697   5.329
 3988TIP3    H111928   4.349   1.638   5.293
 3988TIP3    H211929   4.200   1.663   5.294
 3989TIP3   OH211930   4.054   1.263   0.430
 3989TIP3    H111931   4.088   1.190   0.379
 3989TIP3    H211932   3.966   1.236   0.457
 3990TIP3   OH211933   5.417   6.363   4.595
 3990TIP3    H111934   5.358   6.287   4.585
 3990TIP3    H211935   5.360   6.433   4.625
 3991TIP3   OH211936   5.683   3.585   2.635
 3991TIP3    H111937   5.597   3.553   2.662
 3991TIP3    H211938   5.671   3.608   2.543
 3992TIP3   OH211939   6.260   2.892   0.262
 3992TIP3    H111940   6.167   2.879   0.244
 3992TIP3    H211941   6.279   2.835   0.336
 3993TIP3   OH211942   3.377   1.497   4.317
 3993TIP3    H111943   3.385   1.592   4.308
 3993TIP3    H211944   3.438   1.461   4.253
 3994TIP3   OH211945   2.093   2.122   4.988
 3994TIP3    H111946   2.116   2.210   5.018
 3994TIP3    H211947   2.000   2.113   5.009
 3995TIP3   OH211948   2.149   0.610   2.577
 3995TIP3    H111949   2.194   0.632   2.659
 3995TIP3    H211950   2.087   0.681   2.563
 3996TIP3   OH211951   1.207   0.571   3.547
 3996TIP3    H111952   1.194   0.665   3.540
 3996TIP3    H211953   1.288   0.561   3.596
 3997TIP3   OH211954   1.447   1.545   4.842
 3997TIP3    H111955   1.436   1.500   4.758
 3997TIP3    H211956   1.470   1.477   4.904
 3998TIP3   OH211957   4.518   1.200   4.780
 3998TIP3    H111958   4.430   1.185   4.814
 3998TIP3    H211959   4.505   1.256   4.704
 3999TIP3   OH211960   5.475   2.626   3.902
 3999TIP3    H111961   5.380   2.623   3.908
 3999TIP3    H211962   5.493   2.650   3.811
 4000TIP3   OH211963   5.526   4.924   5.763
 4000TIP3    H111964   5.450   4.942   5.708
 4000TIP3    H211965   5.516   4.983   5.838
 4001TIP3   OH211966   0.751   1.266   5.795
 4001TIP3    H111967   0.726   1.190   5.742
 4001TIP3    H211968   0.844   1.251   5.816
 4002TIP3   OH211969   1.667   0.984   0.350
 4002TIP3    H111970   1.661   1.069   0.393
 4002TIP3    H211971   1.598   0.932   0.391
 4003TIP3   OH211972   4.148   5.729   0.241
 4003TIP3    H111973   4.226   5.674   0.230
 4003TIP3    H211974   4.111   5.734   0.153
 4004TIP3   OH211975   0.289   5.686   0.923
 4004TIP3    H111976   0.312   5.595   0.944
 4004TIP3    H211977   0.236   5.715   0.997
 4005TIP3   OH211978   4.313   6.132   5.350
 4005TIP3    H111979   4.239   6.075   5.327
 4005TIP3    H211980   4.390   6.076   5.338
 4006TIP3   OH211981   1.747   0.561   0.596
 4006TIP3    H111982   1.836   0.525   0.602
 4006TIP3    H211983   1.760   0.650   0.564
 4007TIP3   OH211984   1.346   3.151   4.756
 4007TIP3    H111985   1.430   3.196   4.747
 4007TIP3    H211986   1.326   3.117   4.669
 4008TIP3   OH211987   1.782   2.686   2.093
 4008TIP3    H111988   1.717   2.663   2.160
 4008TIP3    H211989   1.746   2.764   2.051
 4009TIP3   OH211990   1.162   4.501   5.525
 4009TIP3    H111991   1.202   4.417   5.547
 4009TIP3    H211992   1.094   4.479   5.461
 4010TIP3   OH211993   3.069   2.671   1.718
 4010TIP3    H111994   3.100   2.691   1.807
 4010TIP3    H211995   3.140   2.622   1.678
 4011TIP3   OH211996   5.285   5.801   0.438
 4011TIP3    H111997   5.204   5.837   0.401
 4011TIP3    H211998   5.349   5.872   0.429
 4012TIP3   OH211999   5.935   4.753   3.370
 4012TIP3    H112000   5.962   4.801   3.448
 4012TIP3    H212001   5.845   4.782   3.355
 4013TIP3   OH212002   1.619   6.453   4.474
 4013TIP3    H112003   1.682   6.426   4.407
 4013TIP3    H212004   1.549   6.496   4.425
 4014TIP3   OH212005   3.131   2.687   4.526
 4014TIP3    H112006   3.110   2.601   4.563
 4014TIP3    H212007   3.047   2.731   4.519
 4015TIP3   OH212008   0.769   2.968   3.310
 4015TIP3    H112009   0.784   2.876   3.286
 4015TIP3    H212010   0.771   3.015   3.226
 4016TIP3   OH212011   3.856   4.865   2.446
 4016TIP3    H112012   3.788   4.826   2.391
 4016TIP3    H212013   3.819   4.863   2.534
 4017TIP3   OH212014   1.571   1.455   0.355
 4017TIP3    H112015   1.634   1.515   0.396
 4017TIP3    H212016   1.485   1.491   0.379
 4018TIP3   OH212017   0.926   0.693   1.552
 4018TIP3    H112018   0.846   0.684   1.603
 4018TIP3    H212019   0.930   0.613   1.499
 4019TIP3   OH212020   5.528   5.266   4.313
 4019TIP3    H112021   5.528   5.319   4.233
 4019TIP3    H212022   5.620   5.249   4.331
 4020TIP3   OH212023   0.026   4.574   1.650
 4020TIP3    H112024   0.041   4.479   1.653
 4020TIP3    H212025   0.113   4.611   1.638
 4021TIP3   OH212026   3.263   3.481   3.073
 4021TIP3    H112027   3.316   3.549   3.031
 4021TIP3    H212028   3.178   3.523   3.088
 4022TIP3   OH212029   5.138   1.429   1.179
 4022TIP3    H112030   5.189   1.476   1.244
 4022TIP3    H212031   5.158   1.337   1.194
 4023TIP3   OH212032   3.272   4.303   5.862
 4023TIP3    H112033   3.336   4.238   5.890
 4023TIP3    H212034   3.300   4.327   5.773
 4024TIP3   OH212035   5.607   0.766   4.082
 4024TIP3    H112036   5.522   0.801   4.106
 4024TIP3    H212037   5.642   0.728   4.163
 4025TIP3   OH212038   1.602   4.233   1.300
 4025TIP3    H112039   1.552   4.218   1.380
 4025TIP3    H212040   1.664   4.161   1.297
 4026TIP3   OH212041   5.331   0.333   3.142
 4026TIP3    H112042   5.285   0.304   3.222
 4026TIP3    H212043   5.353   0.424   3.159
 4027TIP3   OH212044   3.280   3.526   5.822
 4027TIP3    H112045   3.244   3.462   5.761
 4027TIP3    H212046   3.272   3.610   5.777
 4028TIP3   OH212047   2.506   3.337   3.033
 4028TIP3    H112048   2.415   3.352   3.057
 4028TIP3    H212049   2.532   3.418   2.989
 4029TIP3   OH212050   6.968   2.547   3.877
 4029TIP3    H112051   7.019   2.482   3.829
 4029TIP3    H212052   6.985   2.527   3.969
 4030TIP3   OH212053   1.634   3.054   0.204
 4030TIP3    H112054   1.540   3.067   0.217
 4030TIP3    H212055   1.642   3.033   0.111
 4031TIP3   OH212056   6.836   2.229   5.312
 4031TIP3    H112057   6.782   2.236   5.233
 4031TIP3    H212058   6.773   2.222   5.384
 4032TIP3   OH212059   1.211   1.515   5.061
 4032TIP3    H112060   1.272   1.508   4.987
 4032TIP3    H212061   1.263   1.488   5.137
 4033TIP3   OH212062   4.544   5.508   2.163
 4033TIP3    H112063   4.582   5.485   2.247
 4033TIP3    H212064   4.516   5.599   2.173
 4034TIP3   OH212065   3.644   1.555   2.912
 4034TIP3    H112066   3.647   1.518   2.824
 4034TIP3    H212067   3.636   1.479   2.970
 4035TIP3   OH212068   2.263   6.039   2.978
 4035TIP3    H112069   2.259   6.088   3.059
 4035TIP3    H212070   2.265   5.947   3.005
 4036TIP3   OH212071   0.862   5.885   2.410
 4036TIP3    H112072   0.820   5.826   2.348
 4036TIP3    H212073   0.854   5.840   2.495
 4037TIP3   OH212074   5.516   5.138   2.452
 4037TIP3    H112075   5.604   5.161   2.423
 4037TIP3    H212076   5.461   5.211   2.422
 4038TIP3   OH212077   0.662   3.185   2.624
 4038TIP3    H112078   0.709   3.105   2.600
 4038TIP3    H212079   0.710   3.255   2.580
 4039TIP3   OH212080   3.741   2.981   5.432
 4039TIP3    H112081   3.723   2.890   5.408
 4039TIP3    H212082   3.774   3.021   5.351
 4040TIP3   OH212083   2.674   2.831   3.481
 4040TIP3    H112084   2.760   2.807   3.518
 4040TIP3    H212085   2.692   2.848   3.389
 4041TIP3   OH212086   6.267   2.873   1.830
 4041TIP3    H112087   6.204   2.944   1.821
 4041TIP3    H212088   6.225   2.811   1.889
 4042TIP3   OH212089   4.695   2.609   0.730
 4042TIP3    H112090   4.743   2.532   0.762
 4042TIP3    H212091   4.673   2.658   0.810
 4043TIP3   OH212092   1.807   2.287   1.854
 4043TIP3    H112093   1.863   2.358   1.885
 4043TIP3    H212094   1.723   2.303   1.898
 4044TIP3   OH212095   0.678   0.177   1.724
 4044TIP3    H112096   0.587   0.201   1.707
 4044TIP3    H212097   0.714   0.158   1.637
 4045TIP3   OH212098   7.033   1.212   5.306
 4045TIP3    H112099   6.949   1.198   5.349
 4045TIP3    H212100   7.098   1.199   5.375
 4046TIP3   OH212101   5.924   1.916   4.261
 4046TIP3    H112102   5.952   1.987   4.203
 4046TIP3    H212103   5.836   1.942   4.290
 4047TIP3   OH212104   1.350   5.800   2.085
 4047TIP3    H112105   1.444   5.799   2.067
 4047TIP3    H212106   1.327   5.893   2.084
 4048TIP3   OH212107   0.174   1.345   0.286
 4048TIP3    H112108   0.134   1.345   0.374
 4048TIP3    H212109   0.187   1.252   0.266
 4049TIP3   OH212110   5.898   1.133   0.048
 4049TIP3    H112111   5.841   1.170   0.116
 4049TIP3    H212112   5.837   1.093  -0.015
 4050TIP3   OH212113   6.982   4.041   2.719
 4050TIP3    H112114   7.072   4.015   2.735
 4050TIP3    H212115   6.975   4.129   2.755
 4051TIP3   OH212116   1.883   0.454   5.688
 4051TIP3    H112117   1.927   0.430   5.607
 4051TIP3    H212118   1.871   0.548   5.683
 4052TIP3   OH212119   2.004   3.453   2.888
 4052TIP3    H112120   2.054   3.464   2.969
 4052TIP3    H212121   1.929   3.512   2.898
 4053TIP3   OH212122   1.722   5.460   0.357
 4053TIP3    H112123   1.678   5.451   0.442
 4053TIP3    H212124   1.687   5.540   0.320
 4054TIP3   OH212125   1.339   1.555   0.515
 4054TIP3    H112126   1.276   1.497   0.473
 4054TIP3    H212127   1.311   1.643   0.491
 4055TIP3   OH212128   4.956   0.261   0.933
 4055TIP3    H112129   4.921   0.198   0.869
 4055TIP3    H212130   4.880   0.285   0.986
 4056TIP3   OH212131   3.601   2.293   1.595
 4056TIP3    H112132   3.595   2.389   1.590
 4056TIP3    H212133   3.522   2.267   1.643
 4057TIP3   OH212134   3.932   3.053   2.306
 4057TIP3    H112135   3.926   2.990   2.234
 4057TIP3    H212136   3.970   3.131   2.267
 4058TIP3   OH212137   4.324   5.202   4.686
 4058TIP3    H112138   4.370   5.220   4.604
 4058TIP3    H212139   4.251   5.264   4.685
 4059TIP3   OH212140   5.749   4.703   5.219
 4059TIP3    H112141   5.771   4.615   5.250
 4059TIP3    H212142   5.827   4.731   5.171
 4060TIP3   OH212143   0.488   1.347   4.368
 4060TIP3    H112144   0.459   1.361   4.458
 4060TIP3    H212145   0.454   1.261   4.345
 4061TIP3   OH212146   3.803   0.604   4.196
 4061TIP3    H112147   3.894   0.618   4.169
 4061TIP3    H212148   3.771   0.691   4.219
 4062TIP3   OH212149   2.617   4.398   1.491
 4062TIP3    H112150   2.555   4.465   1.463
 4062TIP3    H212151   2.699   4.445   1.504
 4063TIP3   OH212152   4.433   5.225   5.273
 4063TIP3    H112153   4.479   5.225   5.189
 4063TIP3    H212154   4.340   5.234   5.250
 4064TIP3   OH212155   0.581   1.364   1.111
 4064TIP3    H112156   0.522   1.439   1.123
 4064TIP3    H212157   0.652   1.379   1.173
 4065TIP3   OH212158   4.840   1.538   4.756
 4065TIP3    H112159   4.790   1.490   4.690
 4065TIP3    H212160   4.787   1.532   4.836
 4066TIP3   OH212161   3.529   6.582   0.298
 4066TIP3    H112162   3.497   6.620   0.216
 4066TIP3    H212163   3.461   6.519   0.323
 4067TIP3   OH212164   2.644   5.420   5.310
 4067TIP3    H112165   2.653   5.336   5.355
 4067TIP3    H212166   2.607   5.479   5.376
 4068TIP3   OH212167   3.929   3.580   4.507
 4068TIP3    H112168   3.849   3.631   4.492
 4068TIP3    H212169   3.931   3.516   4.436
 4069TIP3   OH212170   1.819   4.874   4.371
 4069TIP3    H112171   1.910   4.852   4.351
 4069TIP3    H212172   1.818   4.889   4.466
 4070TIP3   OH212173   4.218   3.335   1.482
 4070TIP3    H112174   4.220   3.359   1.390
 4070TIP3    H212175   4.209   3.418   1.529
 4071TIP3   OH212176   6.245   6.128   2.802
 4071TIP3    H112177   6.165   6.162   2.843
 4071TIP3    H212178   6.280   6.066   2.865
 4072TIP3   OH212179   5.255   5.599   1.118
 4072TIP3    H112180   5.299   5.552   1.047
 4072TIP3    H212181   5.319   5.599   1.190
 4073TIP3   OH212182   4.991   5.456   0.499
 4073TIP3    H112183   5.061   5.470   0.434
 4073TIP3    H212184   4.940   5.383   0.464
 4074TIP3   OH212185   3.732   1.479   4.308
 4074TIP3    H112186   3.699   1.543   4.371
 4074TIP3    H212187   3.764   1.531   4.234
 4075TIP3   OH212188   1.810   5.655   0.117
 4075TIP3    H112189   1.898   5.683   0.090
 4075TIP3    H212190   1.763   5.737   0.136
 4076TIP3   OH212191   3.868   2.972   5.680
 4076TIP3    H112192   3.823   2.982   5.596
 4076TIP3    H212193   3.924   2.896   5.669
 4077TIP3   OH212194   5.396   4.570   1.957
 4077TIP3    H112195   5.328   4.504   1.945
 4077TIP3    H212196   5.478   4.521   1.948
 4078TIP3   OH212197   3.939   2.739   4.936
 4078TIP3    H112198   3.986   2.700   5.009
 4078TIP3    H212199   3.853   2.761   4.973
 4079TIP3   OH212200   6.567   4.331   5.028
 4079TIP3    H112201   6.618   4.295   5.100
 4079TIP3    H212202   6.585   4.272   4.954
 4080TIP3   OH212203   1.433   4.514   5.465
 4080TIP3    H112204   1.447   4.519   5.370
 4080TIP3    H212205   1.339   4.524   5.476
 4081TIP3   OH212206   1.082   5.534   1.907
 4081TIP3    H112207   1.169   5.498   1.922
 4081TIP3    H212208   1.095   5.629   1.907
 4082TIP3   OH212209   0.532   4.516   3.702
 4082TIP3    H112210   0.606   4.479   3.750
 4082TIP3    H212211   0.472   4.547   3.770
 4083TIP3   OH212212   5.787   6.122   4.533
 4083TIP3    H112213   5.709   6.083   4.494
 4083TIP3    H212214   5.820   6.056   4.594
 4084TIP3   OH212215   2.929   1.540   4.380
 4084TIP3    H112216   2.980   1.493   4.315
 4084TIP3    H212217   2.995   1.581   4.436
 4085TIP3   OH212218   4.584   0.680   2.364
 4085TIP3    H112219   4.601   0.588   2.385
 4085TIP3    H212220   4.489   0.685   2.352
 4086TIP3   OH212221   1.959   3.252   4.648
 4086TIP3    H112222   1.941   3.255   4.741
 4086TIP3    H212223   2.046   3.212   4.642
 4087TIP3   OH212224   3.786   4.823   4.014
 4087TIP3    H112225   3.775   4.757   4.082
 4087TIP3    H212226   3.829   4.777   3.942
 4088TIP3   OH212227   5.805   5.900   4.813
 4088TIP3    H112228   5.820   5.990   4.842
 4088TIP3    H212229   5.869   5.848   4.862
 4089TIP3   OH212230   4.441   4.837   5.634
 4089TIP3    H112231   4.356   4.802   5.663
 4089TIP3    H212232   4.449   4.807   5.543
 4090TIP3   OH212233   3.149   5.224   5.857
 4090TIP3    H112234   3.236   5.232   5.897
 4090TIP3    H212235   3.134   5.130   5.850
 4091TIP3   OH212236   7.041   6.031   1.910
 4091TIP3    H112237   6.948   6.011   1.918
 4091TIP3    H212238   7.085   5.957   1.952
 4092TIP3   OH212239   5.363   3.561   2.559
 4092TIP3    H112240   5.350   3.468   2.539
 4092TIP3    H212241   5.352   3.567   2.654
 4093TIP3   OH212242   7.177   5.704   1.235
 4093TIP3    H112243   7.190   5.749   1.152
 4093TIP3    H212244   7.094   5.739   1.269
 4094TIP3   OH212245   5.940   5.939   1.988
 4094TIP3    H112246   5.986   5.911   2.067
 4094TIP3    H212247   5.894   6.019   2.014
 4095TIP3   OH212248   3.969   4.565   0.397
 4095TIP3    H112249   3.981   4.527   0.483
 4095TIP3    H212250   3.880   4.600   0.398
 4096TIP3   OH212251   6.672   1.549   0.964
 4096TIP3    H112252   6.671   1.641   0.938
 4096TIP3    H212253   6.609   1.544   1.036
 4097TIP3   OH212254   2.371   0.845   1.734
 4097TIP3    H112255   2.338   0.909   1.797
 4097TIP3    H212256   2.387   0.895   1.654
 4098TIP3   OH212257   4.017   5.542   1.792
 4098TIP3    H112258   3.958   5.558   1.865
 4098TIP3    H212259   4.044   5.629   1.763
 4099TIP3   OH212260   3.278   5.802   0.366
 4099TIP3    H112261   3.225   5.881   0.356
 4099TIP3    H212262   3.224   5.732   0.331
 4100TIP3   OH212263   2.613   3.673   0.318
 4100TIP3    H112264   2.573   3.600   0.364
 4100TIP3    H212265   2.633   3.638   0.231
 4101TIP3   OH212266   0.018   6.665   1.757
 4101TIP3    H112267   0.049   6.686   1.669
 4101TIP3    H212268   0.039   6.573   1.768
 4102TIP3   OH212269   2.213   2.250   5.800
 4102TIP3    H112270   2.294   2.279   5.757
 4102TIP3    H212271   2.216   2.155   5.796
 4103TIP3   OH212272   4.602   3.245   0.529
 4103TIP3    H112273   4.604   3.278   0.439
 4103TIP3    H212274   4.625   3.321   0.583
 4104TIP3   OH212275   7.127   1.136   5.009
 4104TIP3    H112276   7.072   1.177   5.076
 4104TIP3    H212277   7.077   1.144   4.929
 4105TIP3   OH212278   6.560   5.925   2.404
 4105TIP3    H112279   6.646   5.947   2.440
 4105TIP3    H212280   6.572   5.837   2.366
 4106TIP3   OH212281   1.694   4.824   5.404
 4106TIP3    H112282   1.703   4.809   5.498
 4106TIP3    H212283   1.615   4.877   5.396
 4107TIP3   OH212284   6.214   5.189   5.710
 4107TIP3    H112285   6.211   5.094   5.721
 4107TIP3    H212286   6.140   5.221   5.761
 4108TIP3   OH212287   5.218   3.005   4.800
 4108TIP3    H112288   5.165   3.080   4.826
 4108TIP3    H212289   5.166   2.929   4.828
 4109TIP3   OH212290   4.999   1.662   2.206
 4109TIP3    H112291   5.040   1.584   2.245
 4109TIP3    H212292   4.980   1.636   2.116
 4110TIP3   OH212293   1.646   0.406   3.856
 4110TIP3    H112294   1.629   0.313   3.840
 4110TIP3    H212295   1.727   0.408   3.908
 4111TIP3   OH212296   1.258   1.658   2.036
 4111TIP3    H112297   1.243   1.728   2.099
 4111TIP3    H212298   1.349   1.669   2.010
 4112TIP3   OH212299   3.068   3.392   1.128
 4112TIP3    H112300   3.013   3.460   1.089
 4112TIP3    H212301   3.147   3.438   1.155
 4113TIP3   OH212302   5.617   6.605   3.777
 4113TIP3    H112303   5.700   6.652   3.770
 4113TIP3    H212304   5.576   6.642   3.856
 4114TIP3   OH212305   2.082   1.767   3.675
 4114TIP3    H112306   2.163   1.719   3.690
 4114TIP3    H212307   2.091   1.847   3.728
 4115TIP3   OH212308   3.825   6.084   5.361
 4115TIP3    H112309   3.845   6.015   5.424
 4115TIP3    H212310   3.748   6.052   5.313
 4116TIP3   OH212311   1.982   6.191   1.760
 4116TIP3    H112312   2.032   6.186   1.679
 4116TIP3    H212313   2.010   6.115   1.811
 4117TIP3   OH212314   1.810   4.291   4.960
 4117TIP3    H112315   1.855   4.371   4.934
 4117TIP3    H212316   1.856   4.263   5.039
 4118TIP3   OH212317   4.548   4.872   1.656
 4118TIP3    H112318   4.509   4.860   1.743
 4118TIP3    H212319   4.540   4.966   1.639
 4119TIP3   OH212320   0.563   0.077   0.583
 4119TIP3    H112321   0.591   0.038   0.500
 4119TIP3    H212322   0.622   0.040   0.648
 4120TIP3   OH212323   1.330   1.158   3.622
 4120TIP3    H112324   1.291   1.241   3.596
 4120TIP3    H212325   1.358   1.172   3.713
 4121TIP3   OH212326   2.753   1.800   2.409
 4121TIP3    H112327   2.758   1.839   2.322
 4121TIP3    H212328   2.660   1.786   2.424
 4122TIP3   OH212329   1.736   4.709   1.426
 4122TIP3    H112330   1.684   4.784   1.455
 4122TIP3    H212331   1.697   4.684   1.342
 4123TIP3   OH212332   5.041   6.660   1.813
 4123TIP3    H112333   5.041   6.639   1.719
 4123TIP3    H212334   5.001   6.747   1.818
 4124TIP3   OH212335   2.041   0.663   2.296
 4124TIP3    H112336   2.011   0.741   2.343
 4124TIP3    H212337   1.993   0.591   2.337
 4125TIP3   OH212338   0.455   2.016   5.151
 4125TIP3    H112339   0.506   2.071   5.210
 4125TIP3    H212340   0.368   2.056   5.152
 4126TIP3   OH212341   3.785   5.679   0.521
 4126TIP3    H112342   3.848   5.729   0.573
 4126TIP3    H212343   3.833   5.602   0.492
 4127TIP3   OH212344   6.382   3.949   3.030
 4127TIP3    H112345   6.299   3.903   3.019
 4127TIP3    H212346   6.446   3.880   3.048
 4128TIP3   OH212347   6.655   2.557   0.453
 4128TIP3    H112348   6.666   2.512   0.370
 4128TIP3    H212349   6.740   2.548   0.497
 4129TIP3   OH212350   2.994   5.119   3.336
 4129TIP3    H112351   2.937   5.195   3.325
 4129TIP3    H212352   2.935   5.044   3.337
 4130TIP3   OH212353   5.169   4.622   5.609
 4130TIP3    H112354   5.185   4.592   5.520
 4130TIP3    H212355   5.155   4.542   5.659
 4131TIP3   OH212356   1.687   5.942   2.384
 4131TIP3    H112357   1.658   5.851   2.374
 4131TIP3    H212358   1.772   5.936   2.427
 4132TIP3   OH212359   2.265   4.406   4.548
 4132TIP3    H112360   2.356   4.420   4.521
 4132TIP3    H212361   2.235   4.492   4.577
 4133TIP3   OH212362   3.912   3.883   1.760
 4133TIP3    H112363   3.926   3.812   1.698
 4133TIP3    H212364   3.905   3.840   1.845
 4134TIP3   OH212365   3.667   5.271   0.666
 4134TIP3    H112366   3.621   5.199   0.709
 4134TIP3    H212367   3.732   5.227   0.611
 4135TIP3   OH212368   2.523   6.470   4.610
 4135TIP3    H112369   2.570   6.523   4.674
 4135TIP3    H212370   2.443   6.443   4.656
 4136TIP3   OH212371   5.356   0.934   2.495
 4136TIP3    H112372   5.308   0.869   2.546
 4136TIP3    H212373   5.422   0.884   2.446
 4137TIP3   OH212374   1.501   0.156   2.728
 4137TIP3    H112375   1.531   0.066   2.718
 4137TIP3    H212376   1.580   0.206   2.747
 4138TIP3   OH212377   6.736   2.376   5.702
 4138TIP3    H112378   6.653   2.402   5.741
 4138TIP3    H212379   6.710   2.319   5.629
 4139TIP3   OH212380   3.061   0.699   0.549
 4139TIP3    H112381   2.998   0.630   0.567
 4139TIP3    H212382   3.090   0.683   0.459
 4140TIP3   OH212383   1.610   5.127   2.475
 4140TIP3    H112384   1.616   5.223   2.474
 4140TIP3    H212385   1.698   5.098   2.500
 4141TIP3   OH212386   5.532   0.108   3.015
 4141TIP3    H112387   5.505   0.200   3.018
 4141TIP3    H212388   5.529   0.086   2.922
 4142TIP3   OH212389   3.014   2.342   1.940
 4142TIP3    H112390   2.962   2.393   1.879
 4142TIP3    H212391   2.951   2.308   2.003
 4143TIP3   OH212392   5.094   1.199   4.669
 4143TIP3    H112393   5.063   1.152   4.592
 4143TIP3    H212394   5.030   1.178   4.737
 4144TIP3   OH212395   5.971   4.472   2.782
 4144TIP3    H112396   6.023   4.467   2.702
 4144TIP3    H212397   5.886   4.505   2.752
 4145TIP3   OH212398   2.931   1.256   0.538
 4145TIP3    H112399   3.000   1.268   0.605
 4145TIP3    H212400   2.952   1.172   0.498
 4146TIP3   OH212401   6.441   2.295   5.476
 4146TIP3    H112402   6.437   2.341   5.560
 4146TIP3    H212403   6.505   2.345   5.425
 4147TIP3   OH212404   5.365   1.858   3.658
 4147TIP3    H112405   5.425   1.933   3.659
 4147TIP3    H212406   5.295   1.884   3.598
 4148TIP3   OH212407   0.818   0.553   1.243
 4148TIP3    H112408   0.895   0.526   1.294
 4148TIP3    H212409   0.846   0.545   1.152
 4149TIP3   OH212410   2.466   2.552   4.595
 4149TIP3    H112411   2.494   2.461   4.609
 4149TIP3    H212412   2.478   2.566   4.501
 4150TIP3   OH212413   2.589   0.280   5.261
 4150TIP3    H112414   2.658   0.345   5.277
 4150TIP3    H212415   2.628   0.197   5.290
 4151TIP3   OH212416   2.025   0.618   2.021
 4151TIP3    H112417   2.049   0.669   2.099
 4151TIP3    H212418   1.946   0.571   2.046
 4152TIP3   OH212419   5.452   4.030   1.374
 4152TIP3    H112420   5.499   4.077   1.443
 4152TIP3    H212421   5.363   4.021   1.408
 4153TIP3   OH212422   6.411   6.736   0.671
 4153TIP3    H112423   6.367   6.656   0.642
 4153TIP3    H212424   6.425   6.723   0.765
 4154TIP3   OH212425   6.203   3.348   0.210
 4154TIP3    H112426   6.178   3.390   0.292
 4154TIP3    H212427   6.274   3.288   0.235
 4155TIP3   OH212428   4.033   1.957   0.735
 4155TIP3    H112429   3.945   1.988   0.714
 4155TIP3    H212430   4.079   2.035   0.766
 4156TIP3   OH212431   3.824   4.278   3.816
 4156TIP3    H112432   3.879   4.288   3.894
 4156TIP3    H212433   3.833   4.361   3.769
 4157TIP3   OH212434   4.923   4.097   2.345
 4157TIP3    H112435   4.973   4.018   2.324
 4157TIP3    H212436   4.851   4.066   2.399
 4158TIP3   OH212437   2.470   4.773   2.324
 4158TIP3    H112438   2.480   4.858   2.367
 4158TIP3    H212439   2.484   4.792   2.231
 4159TIP3   OH212440   4.059   3.037   1.459
 4159TIP3    H112441   4.071   3.102   1.389
 4159TIP3    H212442   3.975   2.997   1.439
 4160TIP3   OH212443   0.213  -0.005   2.320
 4160TIP3    H112444   0.241   0.074   2.367
 4160TIP3    H212445   0.121  -0.017   2.346
 4161TIP3   OH212446   0.855   5.140   4.234
 4161TIP3    H112447   0.797   5.213   4.211
 4161TIP3    H212448   0.800   5.062   4.226
 4162TIP3   OH212449   4.844   2.685   2.863
 4162TIP3    H112450   4.843   2.620   2.793
 4162TIP3    H212451   4.870   2.636   2.942
 4163TIP3   OH212452   5.932   2.172   5.438
 4163TIP3    H112453   5.956   2.243   5.498
 4163TIP3    H212454   5.984   2.187   5.360
 4164TIP3   OH212455   2.644   2.745   0.598
 4164TIP3    H112456   2.628   2.831   0.559
 4164TIP3    H212457   2.557   2.713   0.622
 4165TIP3   OH212458   5.933   0.655   2.765
 4165TIP3    H112459   5.856   0.710   2.755
 4165TIP3    H212460   5.978   0.690   2.841
 4166TIP3   OH212461   0.027   5.334   0.388
 4166TIP3    H112462  -0.022   5.383   0.323
 4166TIP3    H212463   0.117   5.366   0.380
 4167TIP3   OH212464   2.762   6.154   5.140
 4167TIP3    H112465   2.805   6.072   5.113
 4167TIP3    H212466   2.670   6.142   5.116
 4168TIP3   OH212467   2.171   0.927   2.705
 4168TIP3    H112468   2.094   0.871   2.696
 4168TIP3    H212469   2.195   0.948   2.614
 4169TIP3   OH212470   0.137   2.171   0.698
 4169TIP3    H112471   0.119   2.144   0.608
 4169TIP3    H212472   0.053   2.161   0.743
 4170TIP3   OH212473   6.319   2.441   5.184
 4170TIP3    H112474   6.280   2.446   5.096
 4170TIP3    H212475   6.369   2.360   5.184
 4171TIP3   OH212476   3.039   6.327   3.140
 4171TIP3    H112477   3.045   6.258   3.207
 4171TIP3    H212478   3.053   6.282   3.057
 4172TIP3   OH212479   0.097   1.132   0.652
 4172TIP3    H112480   0.084   1.217   0.610
 4172TIP3    H212481   0.118   1.153   0.743
 4173TIP3   OH212482   6.714   0.250   3.171
 4173TIP3    H112483   6.641   0.265   3.111
 4173TIP3    H212484   6.694   0.305   3.247
 4174TIP3   OH212485   3.857   1.499   4.855
 4174TIP3    H112486   3.818   1.545   4.929
 4174TIP3    H212487   3.791   1.503   4.786
 4175TIP3   OH212488   5.912   0.348   2.429
 4175TIP3    H112489   5.836   0.386   2.475
 4175TIP3    H212490   5.959   0.299   2.497
 4176TIP3   OH212491   6.636   0.175   0.747
 4176TIP3    H112492   6.585   0.227   0.808
 4176TIP3    H212493   6.691   0.239   0.700
 4177TIP3   OH212494   1.571   0.324   2.358
 4177TIP3    H112495   1.481   0.348   2.338
 4177TIP3    H212496   1.622   0.353   2.282
 4178TIP3   OH212497   6.053   3.552   2.955
 4178TIP3    H112498   5.980   3.598   2.914
 4178TIP3    H212499   6.115   3.535   2.884
 4179TIP3   OH212500   0.591   3.786   0.864
 4179TIP3    H112501   0.534   3.860   0.884
 4179TIP3    H212502   0.675   3.809   0.905
 4180TIP3   OH212503   6.370   3.834   1.038
 4180TIP3    H112504   6.407   3.810   1.122
 4180TIP3    H212505   6.327   3.754   1.007
 4181TIP3   OH212506   3.555   6.615   5.231
 4181TIP3    H112507   3.650   6.613   5.241
 4181TIP3    H212508   3.526   6.527   5.254
 4182TIP3   OH212509   1.046   5.194   1.148
 4182TIP3    H112510   1.019   5.103   1.159
 4182TIP3    H212511   1.089   5.217   1.230
 4183TIP3   OH212512   0.853   3.048   5.187
 4183TIP3    H112513   0.946   3.060   5.205
 4183TIP3    H212514   0.843   3.072   5.095
 4184TIP3   OH212515   5.932   3.568   2.158
 4184TIP3    H112516   6.024   3.576   2.132
 4184TIP3    H212517   5.933   3.507   2.232
 4185TIP3   OH212518   5.329   3.232   3.610
 4185TIP3    H112519   5.316   3.178   3.532
 4185TIP3    H212520   5.388   3.302   3.581
 4186TIP3   OH212521   1.125   6.463   1.747
 4186TIP3    H112522   1.079   6.535   1.789
 4186TIP3    H212523   1.150   6.405   1.819
 4187TIP3   OH212524   0.163   3.769   3.368
 4187TIP3    H112525   0.088   3.727   3.328
 4187TIP3    H212526   0.134   3.792   3.456
 4188TIP3   OH212527   6.673   4.979   4.224
 4188TIP3    H112528   6.620   4.920   4.171
 4188TIP3    H212529   6.702   4.925   4.298
 4189TIP3   OH212530   4.455   4.694   2.866
 4189TIP3    H112531   4.539   4.650   2.878
 4189TIP3    H212532   4.394   4.646   2.923
 4190TIP3   OH212533   6.445   2.324   3.300
 4190TIP3    H112534   6.396   2.300   3.379
 4190TIP3    H212535   6.448   2.420   3.302
 4191TIP3   OH212536   4.324   1.882   1.140
 4191TIP3    H112537   4.332   1.822   1.065
 4191TIP3    H212538   4.280   1.960   1.104
 4192TIP3   OH212539   2.343   5.304   1.272
 4192TIP3    H112540   2.414   5.254   1.313
 4192TIP3    H212541   2.272   5.301   1.336
 4193TIP3   OH212542   6.913   5.977   1.106
 4193TIP3    H112543   6.825   5.938   1.114
 4193TIP3    H212544   6.938   5.960   1.015
 4194TIP3   OH212545   6.944   2.792   3.809
 4194TIP3    H112546   6.922   2.700   3.819
 4194TIP3    H212547   6.982   2.818   3.893
 4195TIP3   OH212548   3.189   3.863   2.776
 4195TIP3    H112549   3.183   3.958   2.787
 4195TIP3    H212550   3.155   3.847   2.688
 4196TIP3   OH212551   1.281   1.581   3.871
 4196TIP3    H112552   1.339   1.633   3.926
 4196TIP3    H212553   1.237   1.645   3.815
 4197TIP3   OH212554   6.505   2.690   5.777
 4197TIP3    H112555   6.593   2.720   5.797
 4197TIP3    H212556   6.473   2.749   5.709
 4198TIP3   OH212557   6.460   4.915   5.601
 4198TIP3    H112558   6.479   4.967   5.679
 4198TIP3    H212559   6.524   4.844   5.603
 4199TIP3   OH212560   5.705   0.193   0.178
 4199TIP3    H112561   5.624   0.189   0.230
 4199TIP3    H212562   5.752   0.268   0.213
 4200TIP3   OH212563   3.317   3.201   1.051
 4200TIP3    H112564   3.355   3.130   1.000
 4200TIP3    H212565   3.226   3.205   1.022
 4201TIP3   OH212566   4.261   1.023   0.427
 4201TIP3    H112567   4.255   0.961   0.355
 4201TIP3    H212568   4.287   1.106   0.387
 4202TIP3   OH212569   0.451   2.222   5.737
 4202TIP3    H112570   0.402   2.146   5.706
 4202TIP3    H212571   0.472   2.202   5.829
 4203TIP3   OH212572   6.705   3.729   2.336
 4203TIP3    H112573   6.785   3.677   2.332
 4203TIP3    H212574   6.643   3.681   2.280
 4204TIP3   OH212575   2.073   0.530   4.447
 4204TIP3    H112576   2.015   0.472   4.397
 4204TIP3    H212577   2.018   0.565   4.517
 4205TIP3   OH212578   0.954   2.033   0.674
 4205TIP3    H112579   0.878   2.052   0.728
 4205TIP3    H212580   0.959   1.938   0.671
 4206TIP3   OH212581   3.129   3.150   5.244
 4206TIP3    H112582   3.043   3.172   5.278
 4206TIP3    H212583   3.164   3.086   5.307
 4207TIP3   OH212584   3.254   5.435   1.744
 4207TIP3    H112585   3.330   5.483   1.778
 4207TIP3    H212586   3.286   5.345   1.734
 4208TIP3   OH212587   1.823   2.084   5.831
 4208TIP3    H112588   1.891   2.017   5.836
 4208TIP3    H212589   1.741   2.037   5.847
 4209TIP3   OH212590   2.647   2.516   0.804
 4209TIP3    H112591   2.742   2.501   0.811
 4209TIP3    H212592   2.628   2.504   0.711
 4210TIP3   OH212593   2.601   4.695   4.232
 4210TIP3    H112594   2.594   4.694   4.328
 4210TIP3    H212595   2.677   4.641   4.213
 4211TIP3   OH212596   5.812   3.864   5.150
 4211TIP3    H112597   5.886   3.807   5.172
 4211TIP3    H212598   5.851   3.951   5.138
 4212TIP3   OH212599   2.886   3.206   3.502
 4212TIP3    H112600   2.952   3.181   3.438
 4212TIP3    H212601   2.915   3.292   3.535
 4213TIP3   OH212602   2.524   2.439   3.375
 4213TIP3    H112603   2.587   2.422   3.444
 4213TIP3    H212604   2.463   2.502   3.412
 4214TIP3   OH212605   5.209   3.733   0.246
 4214TIP3    H112606   5.268   3.804   0.220
 4214TIP3    H212607   5.265   3.673   0.296
 4215TIP3   OH212608   6.857   4.253   0.657
 4215TIP3    H112609   6.868   4.222   0.568
 4215TIP3    H212610   6.880   4.179   0.712
 4216TIP3   OH212611   0.107   6.099   4.998
 4216TIP3    H112612   0.054   6.175   5.025
 4216TIP3    H212613   0.064   6.068   4.918
 4217TIP3   OH212614   2.878   4.051   1.576
 4217TIP3    H112615   2.789   4.060   1.611
 4217TIP3    H212616   2.903   3.961   1.596
 4218TIP3   OH212617   6.012   0.802   4.131
 4218TIP3    H112618   6.001   0.723   4.185
 4218TIP3    H212619   5.928   0.812   4.086
 4219TIP3   OH212620   6.078   5.488   3.468
 4219TIP3    H112621   6.083   5.392   3.478
 4219TIP3    H212622   6.103   5.503   3.377
 4220TIP3   OH212623   6.887   5.836   0.871
 4220TIP3    H112624   6.883   5.872   0.782
 4220TIP3    H212625   6.934   5.754   0.862
 4221TIP3   OH212626   2.188   0.394   3.845
 4221TIP3    H112627   2.179   0.379   3.751
 4221TIP3    H212628   2.147   0.480   3.859
 4222TIP3   OH212629   0.859   1.277   4.974
 4222TIP3    H112630   0.770   1.312   4.984
 4222TIP3    H212631   0.854   1.188   5.007
 4223TIP3   OH212632   5.604   6.273   4.360
 4223TIP3    H112633   5.677   6.254   4.420
 4223TIP3    H212634   5.537   6.311   4.416
 4224TIP3   OH212635   5.183   2.327   5.601
 4224TIP3    H112636   5.147   2.400   5.652
 4224TIP3    H212637   5.275   2.323   5.626
 4225TIP3   OH212638   4.132   3.931   4.032
 4225TIP3    H112639   4.145   4.022   4.058
 4225TIP3    H212640   4.165   3.880   4.106
 4226TIP3   OH212641   4.738   5.306   4.635
 4226TIP3    H112642   4.683   5.234   4.605
 4226TIP3    H212643   4.725   5.375   4.570
 4227TIP3   OH212644   1.297   6.332   0.902
 4227TIP3    H112645   1.203   6.343   0.918
 4227TIP3    H212646   1.335   6.326   0.990
 4228TIP3   OH212647   1.669   3.044   0.808
 4228TIP3    H112648   1.717   2.977   0.856
 4228TIP3    H212649   1.702   3.039   0.719
 4229TIP3   OH212650   2.454   5.545   0.885
 4229TIP3    H112651   2.392   5.528   0.813
 4229TIP3    H212652   2.398   5.569   0.959
 4230TIP3   OH212653   1.330   4.800   1.438
 4230TIP3    H112654   1.238   4.783   1.418
 4230TIP3    H212655   1.347   4.750   1.518
 4231TIP3   OH212656   5.792   0.346   3.211
 4231TIP3    H112657   5.742   0.277   3.255
 4231TIP3    H212658   5.779   0.423   3.265
 4232TIP3   OH212659   2.082   5.411   5.608
 4232TIP3    H112660   2.084   5.477   5.677
 4232TIP3    H212661   2.022   5.445   5.543
 4233TIP3   OH212662   0.221   4.669   5.255
 4233TIP3    H112663   0.188   4.746   5.209
 4233TIP3    H212664   0.143   4.625   5.287
 4234TIP3   OH212665   4.673   6.374   3.510
 4234TIP3    H112666   4.724   6.319   3.451
 4234TIP3    H212667   4.731   6.393   3.583
 4235TIP3   OH212668   5.233   3.329   2.875
 4235TIP3    H112669   5.157   3.334   2.933
 4235TIP3    H212670   5.251   3.420   2.852
 4236TIP3   OH212671   1.794   1.718   5.654
 4236TIP3    H112672   1.812   1.642   5.599
 4236TIP3    H212673   1.706   1.703   5.687
 4237TIP3   OH212674   5.826   2.692   2.588
 4237TIP3    H112675   5.801   2.710   2.497
 4237TIP3    H212676   5.753   2.725   2.639
 4238TIP3   OH212677   6.531   4.934   3.500
 4238TIP3    H112678   6.442   4.963   3.516
 4238TIP3    H212679   6.530   4.840   3.521
 4239TIP3   OH212680   1.502   2.471   2.506
 4239TIP3    H112681   1.426   2.415   2.489
 4239TIP3    H212682   1.577   2.411   2.508
 4240TIP3   OH212683   2.277   2.551   4.809
 4240TIP3    H112684   2.215   2.496   4.762
 4240TIP3    H212685   2.352   2.559   4.751
 4241TIP3   OH212686   6.335   5.189   3.169
 4241TIP3    H112687   6.384   5.115   3.206
 4241TIP3    H212688   6.402   5.246   3.133
 4242TIP3   OH212689   5.289   6.055   0.724
 4242TIP3    H112690   5.284   6.083   0.815
 4242TIP3    H212691   5.335   5.971   0.727
 4243TIP3   OH212692   5.511   0.893   1.075
 4243TIP3    H112693   5.423   0.870   1.106
 4243TIP3    H212694   5.560   0.811   1.083
 4244TIP3   OH212695   5.253   3.891   2.691
 4244TIP3    H112696   5.225   3.961   2.631
 4244TIP3    H212697   5.171   3.849   2.718
 4245TIP3   OH212698   5.725   2.468   4.312
 4245TIP3    H112699   5.667   2.526   4.360
 4245TIP3    H212700   5.671   2.433   4.241
 4246TIP3   OH212701   3.877   6.064   4.658
 4246TIP3    H112702   3.882   5.983   4.708
 4246TIP3    H212703   3.961   6.069   4.613
 4247TIP3   OH212704   4.161   1.298   3.126
 4247TIP3    H112705   4.106   1.372   3.099
 4247TIP3    H212706   4.141   1.229   3.063
 4248TIP3   OH212707   2.917   6.110   1.781
 4248TIP3    H112708   2.887   6.022   1.803
 4248TIP3    H212709   3.008   6.113   1.812
 4249TIP3   OH212710   4.828   1.549   1.184
 4249TIP3    H112711   4.898   1.484   1.190
 4249TIP3    H212712   4.775   1.520   1.110
 4250TIP3   OH212713   6.620   2.283   1.261
 4250TIP3    H112714   6.649   2.374   1.255
 4250TIP3    H212715   6.659   2.251   1.342
 4251TIP3   OH212716   4.935   2.602   3.468
 4251TIP3    H112717   5.019   2.611   3.423
 4251TIP3    H212718   4.901   2.691   3.473
 4252TIP3   OH212719   3.684   3.466   3.463
 4252TIP3    H112720   3.707   3.396   3.524
 4252TIP3    H212721   3.642   3.422   3.390
 4253TIP3   OH212722   0.582   5.081   2.482
 4253TIP3    H112723   0.539   5.010   2.434
 4253TIP3    H212724   0.675   5.060   2.476
 4254TIP3   OH212725   3.125   5.580   0.475
 4254TIP3    H112726   3.187   5.526   0.523
 4254TIP3    H212727   3.151   5.569   0.383
 4255TIP3   OH212728   4.050   4.827   3.339
 4255TIP3    H112729   4.066   4.804   3.247
 4255TIP3    H212730   3.956   4.813   3.351
 4256TIP3   OH212731   0.022   1.422   5.672
 4256TIP3    H112732  -0.043   1.458   5.732
 4256TIP3    H212733   0.025   1.485   5.599
 4257TIP3   OH212734   3.624   3.324   1.493
 4257TIP3    H112735   3.682   3.342   1.419
 4257TIP3    H212736   3.682   3.291   1.562
 4258TIP3   OH212737   3.055   1.355   1.948
 4258TIP3    H112738   2.990   1.419   1.976
 4258TIP3    H212739   3.139   1.395   1.971
 4259TIP3   OH212740   3.601   0.893   1.921
 4259TIP3    H112741   3.580   0.817   1.867
 4259TIP3    H212742   3.518   0.918   1.962
 4260TIP3   OH212743   5.945   5.619   3.037
 4260TIP3    H112744   5.931   5.534   2.996
 4260TIP3    H212745   5.893   5.617   3.117
 4261TIP3   OH212746   1.881   2.283   0.454
 4261TIP3    H112747   1.955   2.253   0.402
 4261TIP3    H212748   1.806   2.232   0.423
 4262TIP3   OH212749   6.352   4.823   0.549
 4262TIP3    H112750   6.348   4.827   0.644
 4262TIP3    H212751   6.275   4.872   0.520
 4263TIP3   OH212752   2.470   0.512   0.942
 4263TIP3    H112753   2.537   0.461   0.897
 4263TIP3    H212754   2.403   0.448   0.964
 4264TIP3   OH212755   2.483   5.301   5.065
 4264TIP3    H112756   2.546   5.332   5.130
 4264TIP3    H212757   2.485   5.368   4.996
 4265TIP3   OH212758   1.347   2.184   4.624
 4265TIP3    H112759   1.418   2.179   4.687
 4265TIP3    H212760   1.344   2.097   4.584
 4266TIP3   OH212761   5.571   1.588   3.384
 4266TIP3    H112762   5.528   1.672   3.394
 4266TIP3    H212763   5.554   1.562   3.293
 4267TIP3   OH212764   0.022   4.464   3.917
 4267TIP3    H112765   0.057   4.388   3.871
 4267TIP3    H212766   0.044   4.539   3.861
 4268TIP3   OH212767   1.436   0.263   1.046
 4268TIP3    H112768   1.401   0.223   1.126
 4268TIP3    H212769   1.395   0.350   1.043
 4269TIP3   OH212770   5.181   1.598   1.816
 4269TIP3    H112771   5.195   1.516   1.768
 4269TIP3    H212772   5.230   1.664   1.767
 4270TIP3   OH212773   1.194   1.751   0.411
 4270TIP3    H112774   1.263   1.777   0.350
 4270TIP3    H212775   1.113   1.757   0.360
 4271TIP3   OH212776   7.078   6.216   5.061
 4271TIP3    H112777   7.034   6.147   5.110
 4271TIP3    H212778   7.040   6.212   4.973
 4272TIP3   OH212779   5.518   4.264   2.049
 4272TIP3    H112780   5.586   4.227   2.105
 4272TIP3    H212781   5.502   4.196   1.983
 4273TIP3   OH212782   4.811   0.960   4.284
 4273TIP3    H112783   4.884   0.909   4.249
 4273TIP3    H212784   4.747   0.895   4.313
 4274TIP3   OH212785   4.784   3.684   0.870
 4274TIP3    H112786   4.748   3.726   0.792
 4274TIP3    H212787   4.868   3.647   0.841
 4275TIP3   OH212788   0.485   5.614   0.590
 4275TIP3    H112789   0.552   5.647   0.649
 4275TIP3    H212790   0.440   5.546   0.640
 4276TIP3   OH212791   4.522   5.775   0.471
 4276TIP3    H112792   4.560   5.863   0.480
 4276TIP3    H212793   4.565   5.738   0.394
 4277TIP3   OH212794   2.949   0.043   4.186
 4277TIP3    H112795   2.867   0.036   4.235
 4277TIP3    H212796   2.924   0.073   4.099
 4278TIP3   OH212797   0.836   3.238   0.931
 4278TIP3    H112798   0.925   3.208   0.946
 4278TIP3    H212799   0.818   3.297   1.005
 4279TIP3   OH212800   2.779   5.195   3.888
 4279TIP3    H112801   2.794   5.281   3.848
 4279TIP3    H212802   2.864   5.151   3.883
 4280TIP3   OH212803   2.144   5.947   3.350
 4280TIP3    H112804   2.066   5.925   3.299
 4280TIP3    H212805   2.177   6.028   3.310
 4281TIP3   OH212806   2.919   2.815   1.540
 4281TIP3    H112807   2.856   2.860   1.597
 4281TIP3    H212808   2.982   2.776   1.600
 4282TIP3   OH212809   0.899   2.593   4.168
 4282TIP3    H112810   0.931   2.601   4.078
 4282TIP3    H212811   0.844   2.669   4.181
 4283TIP3   OH212812   6.565   2.041   5.820
 4283TIP3    H112813   6.580   2.097   5.896
 4283TIP3    H212814   6.483   2.073   5.782
 4284TIP3   OH212815   2.417   3.925   2.061
 4284TIP3    H112816   2.350   3.945   1.995
 4284TIP3    H212817   2.382   3.960   2.143
 4285TIP3   OH212818   3.181   4.280   1.156
 4285TIP3    H112819   3.156   4.360   1.202
 4285TIP3    H212820   3.220   4.224   1.223
 4286TIP3   OH212821   6.558   1.755   2.087
 4286TIP3    H112822   6.616   1.790   2.156
 4286TIP3    H212823   6.529   1.833   2.039
 4287TIP3   OH212824   6.364   2.048   0.098
 4287TIP3    H112825   6.309   2.062   0.021
 4287TIP3    H212826   6.384   1.955   0.098
 4288TIP3   OH212827   4.232   2.731   1.067
 4288TIP3    H112828   4.164   2.799   1.071
 4288TIP3    H212829   4.239   2.699   1.157
 4289TIP3   OH212830   1.579   6.648   2.439
 4289TIP3    H112831   1.570   6.671   2.346
 4289TIP3    H212832   1.639   6.574   2.440
 4290TIP3   OH212833   4.339   1.695   0.935
 4290TIP3    H112834   4.419   1.645   0.924
 4290TIP3    H212835   4.300   1.699   0.848
 4291TIP3   OH212836   3.657   1.347   5.313
 4291TIP3    H112837   3.569   1.356   5.278
 4291TIP3    H212838   3.648   1.286   5.387
 4292TIP3   OH212839   5.168   4.405   0.605
 4292TIP3    H112840   5.212   4.324   0.631
 4292TIP3    H212841   5.221   4.440   0.533
 4293TIP3   OH212842   7.055   3.255   1.672
 4293TIP3    H112843   7.087   3.180   1.622
 4293TIP3    H212844   7.001   3.215   1.741
 4294TIP3   OH212845   4.986   3.083   3.057
 4294TIP3    H112846   4.899   3.049   3.077
 4294TIP3    H212847   4.982   3.175   3.083
 4295TIP3   OH212848   3.818   0.849   2.134
 4295TIP3    H112849   3.771   0.828   2.054
 4295TIP3    H212850   3.759   0.823   2.204
 4296TIP3   OH212851   6.065   1.801   5.047
 4296TIP3    H112852   6.053   1.842   5.132
 4296TIP3    H212853   6.087   1.710   5.066
 4297TIP3   OH212854   0.128   4.597   0.938
 4297TIP3    H112855   0.042   4.567   0.969
 4297TIP3    H212856   0.176   4.618   1.018
 4298TIP3   OH212857   1.296   2.451   1.187
 4298TIP3    H112858   1.304   2.532   1.237
 4298TIP3    H212859   1.210   2.416   1.212
 4299TIP3   OH212860   1.056   1.203   1.898
 4299TIP3    H112861   1.142   1.189   1.938
 4299TIP3    H212862   1.069   1.277   1.838
 4300TIP3   OH212863   4.971   4.872   0.733
 4300TIP3    H112864   4.881   4.850   0.712
 4300TIP3    H212865   4.979   4.964   0.709
 4301TIP3   OH212866   4.552   5.024   3.794
 4301TIP3    H112867   4.589   4.960   3.733
 4301TIP3    H212868   4.460   5.030   3.769
 4302TIP3   OH212869   5.984   3.940   0.207
 4302TIP3    H112870   5.936   3.874   0.157
 4302TIP3    H212871   6.075   3.929   0.179
 4303TIP3   OH212872   6.707   6.135   5.107
 4303TIP3    H112873   6.736   6.224   5.091
 4303TIP3    H212874   6.788   6.085   5.116
 4304TIP3   OH212875   5.690   5.591   3.486
 4304TIP3    H112876   5.616   5.646   3.512
 4304TIP3    H212877   5.748   5.591   3.562
 4305TIP3   OH212878   2.995   2.251   0.753
 4305TIP3    H112879   3.025   2.168   0.790
 4305TIP3    H212880   3.019   2.317   0.817
 4306TIP3   OH212881   2.378   3.974   4.693
 4306TIP3    H112882   2.307   4.038   4.696
 4306TIP3    H212883   2.438   4.001   4.763
 4307TIP3   OH212884   3.562   2.544   5.062
 4307TIP3    H112885   3.599   2.541   4.974
 4307TIP3    H212886   3.485   2.600   5.053
 4308TIP3   OH212887   1.498   1.159   0.460
 4308TIP3    H112888   1.493   1.229   0.394
 4308TIP3    H212889   1.408   1.129   0.470
 4309TIP3   OH212890   1.689   0.193   1.051
 4309TIP3    H112891   1.598   0.208   1.028
 4309TIP3    H212892   1.690   0.195   1.147
 4310TIP3   OH212893   0.860   1.331   0.857
 4310TIP3    H112894   0.794   1.267   0.830
 4310TIP3    H212895   0.909   1.287   0.927
 4311TIP3   OH212896   1.233   5.480   4.766
 4311TIP3    H112897   1.259   5.441   4.682
 4311TIP3    H212898   1.228   5.406   4.826
 4312TIP3   OH212899   4.178   3.384   1.982
 4312TIP3    H112900   4.241   3.454   1.960
 4312TIP3    H212901   4.204   3.311   1.926
 4313TIP3   OH212902   1.833   1.197   2.902
 4313TIP3    H112903   1.907   1.137   2.902
 4313TIP3    H212904   1.869   1.279   2.935
 4314TIP3   OH212905   3.808   2.942   0.138
 4314TIP3    H112906   3.739   2.876   0.127
 4314TIP3    H212907   3.870   2.901   0.198
 4315TIP3   OH212908   6.116   2.875   3.805
 4315TIP3    H112909   6.166   2.954   3.787
 4315TIP3    H212910   6.182   2.806   3.813
 4316TIP3   OH212911   6.680   2.523   2.924
 4316TIP3    H112912   6.720   2.472   2.994
 4316TIP3    H212913   6.723   2.609   2.929
 4317TIP3   OH212914   6.528   5.616   4.716
 4317TIP3    H112915   6.464   5.576   4.775
 4317TIP3    H212916   6.478   5.685   4.671
 4318TIP3   OH212917   4.295   6.264   3.978
 4318TIP3    H112918   4.239   6.223   3.912
 4318TIP3    H212919   4.366   6.303   3.928
 4319TIP3   OH212920   3.230   6.761   0.500
 4319TIP3    H112921   3.312   6.808   0.485
 4319TIP3    H212922   3.196   6.744   0.412
 4320TIP3   OH212923   6.730   3.241   5.374
 4320TIP3    H112924   6.818   3.205   5.384
 4320TIP3    H212925   6.743   3.333   5.352
 4321TIP3   OH212926   3.637   3.943   3.722
 4321TIP3    H112927   3.628   4.032   3.756
 4321TIP3    H212928   3.654   3.955   3.628
 4322TIP3   OH212929   6.885   2.123   1.805
 4322TIP3    H112930   6.886   2.217   1.822
 4322TIP3    H212931   6.832   2.087   1.876
 4323TIP3   OH212932   4.033   2.422   5.090
 4323TIP3    H112933   3.957   2.365   5.077
 4323TIP3    H212934   4.061   2.446   5.002
 4324TIP3   OH212935   1.039   3.389   3.252
 4324TIP3    H112936   0.996   3.447   3.189
 4324TIP3    H212937   0.967   3.348   3.300
 4325TIP3   OH212938   2.997   1.979   0.865
 4325TIP3    H112939   2.922   1.971   0.924
 4325TIP3    H212940   3.030   1.890   0.857
 4326TIP3   OH212941   2.266   2.830   5.720
 4326TIP3    H112942   2.294   2.869   5.637
 4326TIP3    H212943   2.257   2.905   5.779
 4327TIP3   OH212944   3.624   3.347   4.410
 4327TIP3    H112945   3.662   3.360   4.498
 4327TIP3    H212946   3.540   3.391   4.414
 4328TIP3   OH212947   1.256   3.938   0.658
 4328TIP3    H112948   1.302   3.992   0.593
 4328TIP3    H212949   1.163   3.954   0.642
 4329TIP3   OH212950   1.395   6.415   4.008
 4329TIP3    H112951   1.326   6.418   3.941
 4329TIP3    H212952   1.477   6.411   3.958
 4330TIP3   OH212953   2.376   5.173   3.680
 4330TIP3    H112954   2.435   5.165   3.755
 4330TIP3    H212955   2.318   5.097   3.687
 4331TIP3   OH212956   0.850   6.195   0.372
 4331TIP3    H112957   0.825   6.281   0.339
 4331TIP3    H212958   0.813   6.191   0.461
 4332TIP3   OH212959   4.272   2.339   2.350
 4332TIP3    H112960   4.276   2.250   2.316
 4332TIP3    H212961   4.237   2.391   2.277
 4333TIP3   OH212962   6.469   2.729   0.408
 4333TIP3    H112963   6.511   2.760   0.328
 4333TIP3    H212964   6.529   2.664   0.444
 4334TIP3   OH212965   5.976   4.497   1.589
 4334TIP3    H112966   5.999   4.590   1.597
 4334TIP3    H212967   5.903   4.496   1.526
 4335TIP3   OH212968   4.228   2.442   5.726
 4335TIP3    H112969   4.141   2.440   5.766
 4335TIP3    H212970   4.289   2.425   5.798
 4336TIP3   OH212971   4.332   1.344   0.774
 4336TIP3    H112972   4.271   1.402   0.820
 4336TIP3    H212973   4.348   1.273   0.835
 4337TIP3   OH212974   5.779   1.221   2.346
 4337TIP3    H112975   5.761   1.142   2.295
 4337TIP3    H212976   5.787   1.291   2.280
 4338TIP3   OH212977   2.662   4.682   2.707
 4338TIP3    H112978   2.739   4.626   2.722
 4338TIP3    H212979   2.670   4.752   2.772
 4339TIP3   OH212980   4.557   3.631   3.880
 4339TIP3    H112981   4.579   3.708   3.932
 4339TIP3    H212982   4.641   3.587   3.865
 4340TIP3   OH212983   5.443   0.721   4.355
 4340TIP3    H112984   5.367   0.673   4.322
 4340TIP3    H212985   5.484   0.662   4.417
 4341TIP3   OH212986   5.335   0.069   5.125
 4341TIP3    H112987   5.247   0.066   5.088
 4341TIP3    H212988   5.322   0.048   5.218
 4342TIP3   OH212989   2.753   0.393   1.916
 4342TIP3    H112990   2.691   0.338   1.867
 4342TIP3    H212991   2.714   0.402   2.003
 4343TIP3   OH212992   4.231   3.983   2.126
 4343TIP3    H112993   4.286   4.017   2.055
 4343TIP3    H212994   4.242   4.047   2.196
 4344TIP3   OH212995   0.461   0.761   3.509
 4344TIP3    H112996   0.385   0.819   3.507
 4344TIP3    H212997   0.470   0.736   3.601
 4345TIP3   OH212998   5.878   3.136   5.726
 4345TIP3    H112999   5.973   3.146   5.728
 4345TIP3    H213000   5.852   3.140   5.819
 4346TIP3   OH213001   3.648   0.749   4.409
 4346TIP3    H113002   3.598   0.780   4.334
 4346TIP3    H213003   3.607   0.666   4.434
 4347TIP3   OH213004   1.708   5.949   1.904
 4347TIP3    H113005   1.657   5.872   1.929
 4347TIP3    H213006   1.780   5.915   1.852
 4348TIP3   OH213007   2.428   4.868   0.091
 4348TIP3    H113008   2.402   4.911   0.172
 4348TIP3    H213009   2.524   4.872   0.091
 4349TIP3   OH213010   1.430   2.056   2.564
 4349TIP3    H113011   1.375   2.101   2.629
 4349TIP3    H213012   1.422   1.963   2.586
 4350TIP3   OH213013   6.285   5.887   3.679
 4350TIP3    H113014   6.322   5.809   3.638
 4350TIP3    H213015   6.361   5.936   3.713
 4351TIP3   OH213016   2.667   2.228   5.645
 4351TIP3    H113017   2.689   2.295   5.580
 4351TIP3    H213018   2.626   2.158   5.594
 4352TIP3   OH213019   5.934   4.738   1.453
 4352TIP3    H113020   5.900   4.824   1.477
 4352TIP3    H213021   5.974   4.752   1.367
 4353TIP3   OH213022   0.203   0.473   1.010
 4353TIP3    H113023   0.147   0.432   0.944
 4353TIP3    H213024   0.251   0.400   1.050
 4354TIP3   OH213025   1.879   4.908   2.146
 4354TIP3    H113026   1.906   4.816   2.138
 4354TIP3    H213027   1.893   4.930   2.238
 4355TIP3   OH213028   6.151   2.381   5.394
 4355TIP3    H113029   6.181   2.381   5.485
 4355TIP3    H213030   6.229   2.405   5.343
 4356TIP3   OH213031   0.492   3.156   3.155
 4356TIP3    H113032   0.471   3.128   3.244
 4356TIP3    H213033   0.439   3.100   3.099
 4357TIP3   OH213034   5.788   4.093   5.442
 4357TIP3    H113035   5.831   4.008   5.435
 4357TIP3    H213036   5.698   4.072   5.464
 4358TIP3   OH213037   3.498   4.894   3.975
 4358TIP3    H113038   3.479   4.973   3.924
 4358TIP3    H213039   3.589   4.873   3.955
 4359TIP3   OH213040   5.371   4.462   0.362
 4359TIP3    H113041   5.377   4.367   0.355
 4359TIP3    H213042   5.354   4.492   0.273
 4360TIP3   OH213043   0.478   6.194   0.552
 4360TIP3    H113044   0.460   6.201   0.458
 4360TIP3    H213045   0.473   6.100   0.570
 4361TIP3   OH213046   6.704   2.869   4.001
 4361TIP3    H113047   6.639   2.822   3.948
 4361TIP3    H213048   6.717   2.813   4.077
 4362TIP3   OH213049   4.023   2.314   4.305
 4362TIP3    H113050   4.027   2.339   4.397
 4362TIP3    H213051   4.053   2.223   4.304
 4363TIP3   OH213052   1.223   5.570   4.009
 4363TIP3    H113053   1.202   5.517   4.086
 4363TIP3    H213054   1.182   5.523   3.937
 4364TIP3   OH213055   0.728   1.742   4.425
 4364TIP3    H113056   0.791   1.794   4.474
 4364TIP3    H213057   0.752   1.651   4.443
 4365TIP3   OH213058   1.743   4.410   3.625
 4365TIP3    H113059   1.835   4.416   3.598
 4365TIP3    H213060   1.716   4.324   3.595
 4366TIP3   OH213061   5.972   0.496   4.029
 4366TIP3    H113062   5.985   0.498   4.124
 4366TIP3    H213063   5.917   0.572   4.011
 4367TIP3   OH213064   2.690   1.005   1.837
 4367TIP3    H113065   2.674   1.000   1.742
 4367TIP3    H213066   2.692   1.099   1.856
 4368TIP3   OH213067   4.776   1.837   4.255
 4368TIP3    H113068   4.792   1.763   4.313
 4368TIP3    H213069   4.858   1.849   4.208
 4369TIP3   OH213070   2.653   6.766   3.529
 4369TIP3    H113071   2.667   6.784   3.436
 4369TIP3    H213072   2.728   6.713   3.555
 4370TIP3   OH213073   5.091   6.109   0.107
 4370TIP3    H113074   5.010   6.158   0.123
 4370TIP3    H213075   5.107   6.120   0.013
 4371TIP3   OH213076   0.852   6.220   1.804
 4371TIP3    H113077   0.900   6.149   1.763
 4371TIP3    H213078   0.847   6.288   1.736
 4372TIP3   OH213079   0.556   1.917   1.296
 4372TIP3    H113080   0.473   1.947   1.258
 4372TIP3    H213081   0.591   1.856   1.232
 4373TIP3   OH213082   3.968   0.556   5.200
 4373TIP3    H113083   3.911   0.617   5.154
 4373TIP3    H213084   3.919   0.532   5.278
 4374TIP3   OH213085   5.057   2.055   5.135
 4374TIP3    H113086   4.966   2.067   5.161
 4374TIP3    H213087   5.068   1.960   5.129
 4375TIP3   OH213088   5.948   5.431   0.490
 4375TIP3    H113089   5.873   5.488   0.510
 4375TIP3    H213090   5.928   5.395   0.403
 4376TIP3   OH213091   3.560   1.175   5.067
 4376TIP3    H113092   3.527   1.251   5.115
 4376TIP3    H213093   3.529   1.100   5.116
 4377TIP3   OH213094   1.100   2.031   1.314
 4377TIP3    H113095   1.044   1.970   1.266
 4377TIP3    H213096   1.106   2.108   1.257
 4378TIP3   OH213097   6.185   4.763   2.636
 4378TIP3    H113098   6.203   4.751   2.729
 4378TIP3    H213099   6.118   4.832   2.633
 4379TIP3   OH213100   5.352   5.778   0.780
 4379TIP3    H113101   5.261   5.772   0.752
 4379TIP3    H213102   5.355   5.729   0.862
 4380TIP3   OH213103   3.508   1.534   3.934
 4380TIP3    H113104   3.551   1.619   3.927
 4380TIP3    H213105   3.557   1.477   3.874
 4381TIP3   OH213106   0.328   5.422   4.689
 4381TIP3    H113107   0.292   5.342   4.728
 4381TIP3    H213108   0.271   5.439   4.614
 4382TIP3   OH213109   5.229   0.563   5.076
 4382TIP3    H113110   5.146   0.603   5.049
 4382TIP3    H213111   5.225   0.563   5.171
 4383TIP3   OH213112   4.557   4.318   4.994
 4383TIP3    H113113   4.528   4.270   5.072
 4383TIP3    H213114   4.511   4.275   4.921
 4384TIP3   OH213115   0.550   4.144   4.703
 4384TIP3    H113116   0.582   4.146   4.613
 4384TIP3    H213117   0.488   4.218   4.708
 4385TIP3   OH213118   4.952   1.930   4.556
 4385TIP3    H113119   4.875   1.874   4.556
 4385TIP3    H213120   4.984   1.929   4.646
 4386TIP3   OH213121   6.621   5.996   1.663
 4386TIP3    H113122   6.714   5.983   1.683
 4386TIP3    H213123   6.581   5.910   1.680
 4387TIP3   OH213124   1.858   5.783   1.477
 4387TIP3    H113125   1.953   5.773   1.481
 4387TIP3    H213126   1.828   5.760   1.565
 4388TIP3   OH213127   6.430   6.545   3.103
 4388TIP3    H113128   6.461   6.455   3.118
 4388TIP3    H213129   6.510   6.594   3.084
 4389TIP3   OH213130   0.969   1.363   0.606
 4389TIP3    H113131   1.055   1.338   0.641
 4389TIP3    H213132   0.911   1.361   0.682
 4390TIP3   OH213133   0.111   6.520   2.870
 4390TIP3    H113134   0.205   6.504   2.882
 4390TIP3    H213135   0.071   6.490   2.951
 4391TIP3   OH213136   5.793   5.846   5.407
 4391TIP3    H113137   5.753   5.767   5.369
 4391TIP3    H213138   5.769   5.916   5.347
 4392TIP3   OH213139   0.515   6.629   0.012
 4392TIP3    H113140   0.438   6.659  -0.036
 4392TIP3    H213141   0.480   6.596   0.095
 4393TIP3   OH213142   4.775   6.279   1.229
 4393TIP3    H113143   4.842   6.276   1.297
 4393TIP3    H213144   4.770   6.189   1.196
 4394TIP3   OH213145   1.820   3.993   3.276
 4394TIP3    H113146   1.731   4.011   3.304
 4394TIP3    H213147   1.872   3.995   3.356
 4395TIP3   OH213148   4.747   4.578   4.178
 4395TIP3    H113149   4.653   4.577   4.196
 4395TIP3    H213150   4.778   4.660   4.216
 4396TIP3   OH213151   4.419   4.260   2.552
 4396TIP3    H113152   4.428   4.341   2.501
 4396TIP3    H213153   4.506   4.245   2.587
 4397TIP3   OH213154   5.334   1.544   4.951
 4397TIP3    H113155   5.247   1.507   4.942
 4397TIP3    H213156   5.333   1.589   5.036
 4398TIP3   OH213157   4.203   1.109   4.957
 4398TIP3    H113158   4.143   1.183   4.948
 4398TIP3    H213159   4.175   1.064   5.037
 4399TIP3   OH213160   6.063   3.121   0.559
 4399TIP3    H113161   6.076   3.204   0.514
 4399TIP3    H213162   6.147   3.104   0.603
 4400TIP3   OH213163   0.817   2.753   4.426
 4400TIP3    H113164   0.763   2.753   4.348
 4400TIP3    H213165   0.839   2.845   4.441
 4401TIP3   OH213166   1.340   4.416   1.126
 4401TIP3    H113167   1.336   4.511   1.134
 4401TIP3    H213168   1.258   4.385   1.164
 4402TIP3   OH213169   6.637   1.276   4.830
 4402TIP3    H113170   6.698   1.299   4.760
 4402TIP3    H213171   6.687   1.216   4.886
 4403TIP3   OH213172   6.105   2.039   1.151
 4403TIP3    H113173   6.148   2.082   1.224
 4403TIP3    H213174   6.160   1.964   1.131
 4404TIP3   OH213175   0.007   1.242   3.934
 4404TIP3    H113176   0.002   1.277   4.023
 4404TIP3    H213177   0.070   1.299   3.890
 4405TIP3   OH213178   1.024   5.818   3.086
 4405TIP3    H113179   0.968   5.741   3.082
 4405TIP3    H213180   1.057   5.829   2.996
 4406TIP3   OH213181   2.201   4.522   2.111
 4406TIP3    H113182   2.161   4.588   2.168
 4406TIP3    H213183   2.256   4.573   2.051
 4407TIP3   OH213184   6.584   4.114   0.878
 4407TIP3    H113185   6.493   4.095   0.897
 4407TIP3    H213186   6.582   4.172   0.802
 4408TIP3   OH213187   7.192   2.254   4.597
 4408TIP3    H113188   7.194   2.185   4.664
 4408TIP3    H213189   7.101   2.283   4.596
 4409TIP3   OH213190   5.344   0.115   0.785
 4409TIP3    H113191   5.420   0.059   0.802
 4409TIP3    H213192   5.328   0.107   0.691
 4410TIP3   OH213193   5.809   5.991   5.109
 4410TIP3    H113194   5.750   6.028   5.043
 4410TIP3    H213195   5.781   6.030   5.191
 4411TIP3   OH213196   1.669   5.241   1.427
 4411TIP3    H113197   1.749   5.191   1.410
 4411TIP3    H213198   1.632   5.257   1.340
 4412TIP3   OH213199   4.300   1.209   1.599
 4412TIP3    H113200   4.385   1.183   1.563
 4412TIP3    H213201   4.321   1.275   1.665
 4413TIP3   OH213202   5.103   3.153   3.777
 4413TIP3    H113203   5.017   3.131   3.812
 4413TIP3    H213204   5.105   3.112   3.690
 4414TIP3   OH213205   3.197   4.740   3.090
 4414TIP3    H113206   3.166   4.650   3.082
 4414TIP3    H213207   3.271   4.746   3.031
 4415TIP3   OH213208   3.890   0.930   1.363
 4415TIP3    H113209   3.842   1.010   1.386
 4415TIP3    H213210   3.839   0.891   1.293
 4416TIP3   OH213211   6.133   3.397   0.496
 4416TIP3    H113212   6.175   3.403   0.581
 4416TIP3    H213213   6.060   3.459   0.501
 4417TIP3   OH213214   4.557   1.169   5.508
 4417TIP3    H113215   4.506   1.250   5.500
 4417TIP3    H213216   4.625   1.177   5.442
 4418TIP3   OH213217   1.775   5.417   3.804
 4418TIP3    H113218   1.775   5.482   3.733
 4418TIP3    H213219   1.778   5.333   3.760
 4419TIP3   OH213220   4.396   6.252   4.939
 4419TIP3    H113221   4.399   6.311   5.015
 4419TIP3    H213222   4.479   6.206   4.942
 4420TIP3   OH213223   3.457   1.377   0.460
 4420TIP3    H113224   3.539   1.409   0.423
 4420TIP3    H213225   3.405   1.457   0.474
 4421TIP3   OH213226   2.820   4.009   0.935
 4421TIP3    H113227   2.818   3.957   0.855
 4421TIP3    H213228   2.764   3.961   0.996
 4422TIP3   OH213229   6.796   4.327   3.250
 4422TIP3    H113230   6.718   4.279   3.222
 4422TIP3    H213231   6.819   4.382   3.174
 4423TIP3   OH213232   3.140   6.145   4.169
 4423TIP3    H113233   3.159   6.108   4.082
 4423TIP3    H213234   3.090   6.224   4.151
 4424TIP3   OH213235   6.099   4.275   5.264
 4424TIP3    H113236   6.182   4.313   5.234
 4424TIP3    H213237   6.096   4.190   5.222
 4425TIP3   OH213238   0.702   2.358   3.388
 4425TIP3    H113239   0.674   2.369   3.297
 4425TIP3    H213240   0.691   2.265   3.406
 4426TIP3   OH213241   4.663   2.154   0.818
 4426TIP3    H113242   4.568   2.158   0.813
 4426TIP3    H213243   4.686   2.075   0.769
 4427TIP3   OH213244   6.185   0.439   5.350
 4427TIP3    H113245   6.244   0.376   5.393
 4427TIP3    H213246   6.146   0.390   5.278
 4428TIP3   OH213247   6.097   4.229   4.394
 4428TIP3    H113248   6.110   4.288   4.319
 4428TIP3    H213249   6.165   4.255   4.457
 4429TIP3   OH213250   2.951   2.778   0.101
 4429TIP3    H113251   2.871   2.736   0.134
 4429TIP3    H213252   3.007   2.786   0.178
 4430TIP3   OH213253   4.955   2.293   0.056
 4430TIP3    H113254   4.898   2.293   0.133
 4430TIP3    H213255   5.010   2.215   0.068
 4431TIP3   OH213256   4.805   6.011   5.528
 4431TIP3    H113257   4.714   6.039   5.523
 4431TIP3    H213258   4.814   5.944   5.461
 4432TIP3   OH213259   3.423   5.646   4.719
 4432TIP3    H113260   3.331   5.622   4.732
 4432TIP3    H213261   3.420   5.726   4.666
 4433TIP3   OH213262   1.131   5.854   5.060
 4433TIP3    H113263   1.169   5.767   5.047
 4433TIP3    H213264   1.115   5.859   5.154
 4434TIP3   OH213265   6.889   0.649   1.170
 4434TIP3    H113266   6.949   0.615   1.237
 4434TIP3    H213267   6.921   0.738   1.152
 4435TIP3   OH213268   2.297   1.181   3.244
 4435TIP3    H113269   2.233   1.242   3.281
 4435TIP3    H213270   2.299   1.107   3.304
 4436TIP3   OH213271   4.889   3.888   1.044
 4436TIP3    H113272   4.851   3.961   0.995
 4436TIP3    H213273   4.917   3.826   0.976
 4437TIP3   OH213274   2.281   3.948   4.120
 4437TIP3    H113275   2.331   3.867   4.134
 4437TIP3    H213276   2.329   4.015   4.168
 4438TIP3   OH213277   6.036   4.771   1.214
 4438TIP3    H113278   6.125   4.746   1.237
 4438TIP3    H213279   6.033   4.767   1.119
 4439TIP3   OH213280   5.529   2.535   2.471
 4439TIP3    H113281   5.454   2.584   2.505
 4439TIP3    H213282   5.585   2.602   2.431
 4440TIP3   OH213283   3.066   5.436   2.383
 4440TIP3    H113284   3.022   5.505   2.433
 4440TIP3    H213285   3.053   5.357   2.435
 4441TIP3   OH213286   4.931   1.322   0.065
 4441TIP3    H113287   5.016   1.302   0.105
 4441TIP3    H213288   4.918   1.415   0.083
 4442TIP3   OH213289   7.050   4.417   2.225
 4442TIP3    H113290   7.140   4.413   2.195
 4442TIP3    H213291   7.052   4.476   2.300
 4443TIP3   OH213292   0.774   5.510   5.189
 4443TIP3    H113293   0.768   5.415   5.192
 4443TIP3    H213294   0.684   5.539   5.177
 4444TIP3   OH213295   5.499   4.664   4.555
 4444TIP3    H113296   5.485   4.662   4.460
 4444TIP3    H213297   5.461   4.582   4.587
 4445TIP3   OH213298   4.018   1.682   1.812
 4445TIP3    H113299   4.057   1.598   1.837
 4445TIP3    H213300   4.068   1.747   1.862
 4446TIP3   OH213301   4.470   2.524   2.176
 4446TIP3    H113302   4.475   2.615   2.207
 4446TIP3    H213303   4.502   2.472   2.249
 4447TIP3   OH213304   6.207   4.576   4.048
 4447TIP3    H113305   6.270   4.506   4.062
 4447TIP3    H213306   6.160   4.551   3.968
 4448TIP3   OH213307   2.484   3.810   2.432
 4448TIP3    H113308   2.435   3.824   2.514
 4448TIP3    H213309   2.572   3.843   2.451
 4449TIP3   OH213310   4.306   0.957   1.963
 4449TIP3    H113311   4.323   0.903   1.885
 4449TIP3    H213312   4.250   1.028   1.932
 4450TIP3   OH213313   4.529   1.283   3.017
 4450TIP3    H113314   4.557   1.202   2.975
 4450TIP3    H213315   4.573   1.281   3.102
 4451TIP3   OH213316  -0.003   2.025   4.790
 4451TIP3    H113317  -0.072   1.987   4.735
 4451TIP3    H213318   0.066   1.959   4.791
 4452TIP3   OH213319   4.885   4.298   5.772
 4452TIP3    H113320   4.794   4.278   5.796
 4452TIP3    H213321   4.900   4.247   5.693
 4453TIP3   OH213322   5.735   4.619   3.069
 4453TIP3    H113323   5.694   4.598   3.153
 4453TIP3    H213324   5.802   4.684   3.090
 4454TIP3   OH213325   1.667   0.760   4.430
 4454TIP3    H113326   1.676   0.665   4.435
 4454TIP3    H213327   1.750   0.794   4.464
 4455TIP3   OH213328   4.975   1.158   5.539
 4455TIP3    H113329   4.995   1.131   5.628
 4455TIP3    H213330   4.929   1.242   5.549
 4456TIP3   OH213331   3.989   5.308   5.689
 4456TIP3    H113332   3.904   5.286   5.651
 4456TIP3    H213333   4.006   5.397   5.659
 4457TIP3   OH213334   0.448   5.865   4.387
 4457TIP3    H113335   0.419   5.890   4.474
 4457TIP3    H213336   0.395   5.920   4.328
 4458TIP3   OH213337   4.306   6.670   1.414
 4458TIP3    H113338   4.320   6.575   1.412
 4458TIP3    H213339   4.346   6.702   1.332
 4459TIP3   OH213340   1.437   1.368   4.650
 4459TIP3    H113341   1.417   1.353   4.558
 4459TIP3    H213342   1.407   1.289   4.694
 4460TIP3   OH213343   2.567   3.337   1.628
 4460TIP3    H113344   2.610   3.421   1.646
 4460TIP3    H213345   2.638   3.279   1.601
 4461TIP3   OH213346   6.734   0.067   0.391
 4461TIP3    H113347   6.659   0.084   0.334
 4461TIP3    H213348   6.708  -0.009   0.442
 4462TIP3   OH213349   0.543   4.980   3.291
 4462TIP3    H113350   0.517   4.987   3.199
 4462TIP3    H213351   0.622   4.925   3.289
 4463TIP3   OH213352   1.333   3.155   0.286
 4463TIP3    H113353   1.347   3.199   0.371
 4463TIP3    H213354   1.256   3.100   0.300
 4464TIP3   OH213355   1.355   6.490   4.275
 4464TIP3    H113356   1.358   6.415   4.335
 4464TIP3    H213357   1.372   6.453   4.189
 4465TIP3   OH213358   5.104   2.426   4.318
 4465TIP3    H113359   5.056   2.464   4.244
 4465TIP3    H213360   5.036   2.402   4.381
 4466TIP3   OH213361   5.504   2.297   5.375
 4466TIP3    H113362   5.559   2.223   5.352
 4466TIP3    H213363   5.554   2.374   5.348
 4467TIP3   OH213364   5.326   4.510   2.602
 4467TIP3    H113365   5.335   4.547   2.514
 4467TIP3    H213366   5.375   4.571   2.658
 4468TIP3   OH213367   7.196   5.963   4.304
 4468TIP3    H113368   7.202   5.870   4.285
 4468TIP3    H213369   7.152   5.968   4.389
 4469TIP3   OH213370   1.192   6.421   5.454
 4469TIP3    H113371   1.229   6.339   5.422
 4469TIP3    H213372   1.231   6.488   5.397
 4470TIP3   OH213373   3.930   1.625   4.587
 4470TIP3    H113374   3.858   1.686   4.601
 4470TIP3    H213375   3.946   1.586   4.673
 4471TIP3   OH213376   4.326   1.689   0.384
 4471TIP3    H113377   4.296   1.774   0.353
 4471TIP3    H213378   4.248   1.633   0.382
 4472TIP3   OH213379   5.290   0.891   4.068
 4472TIP3    H113380   5.212   0.924   4.024
 4472TIP3    H213381   5.256   0.838   4.141
 4473TIP3   OH213382   0.511   0.141   2.097
 4473TIP3    H113383   0.556   0.195   2.161
 4473TIP3    H213384   0.507   0.054   2.138
 4474TIP3   OH213385   0.268   5.453   2.284
 4474TIP3    H113386   0.274   5.465   2.189
 4474TIP3    H213387   0.357   5.466   2.316
 4475TIP3   OH213388   3.414   5.532   4.419
 4475TIP3    H113389   3.416   5.487   4.503
 4475TIP3    H213390   3.344   5.596   4.427
 4476TIP3   OH213391   4.564   1.528   3.714
 4476TIP3    H113392   4.485   1.522   3.768
 4476TIP3    H213393   4.534   1.502   3.627
 4477TIP3   OH213394   6.772   6.375   1.996
 4477TIP3    H113395   6.828   6.380   1.919
 4477TIP3    H213396   6.788   6.456   2.043
 4478TIP3   OH213397   3.119   3.948   4.505
 4478TIP3    H113398   3.199   4.001   4.499
 4478TIP3    H213399   3.054   4.006   4.544
 4479TIP3   OH213400   3.723   2.273   2.046
 4479TIP3    H113401   3.658   2.321   1.995
 4479TIP3    H213402   3.683   2.187   2.063
 4480TIP3   OH213403   3.296   3.996   1.767
 4480TIP3    H113404   3.388   3.983   1.746
 4480TIP3    H213405   3.255   4.020   1.684
 4481TIP3   OH213406   5.913   1.881   5.267
 4481TIP3    H113407   5.830   1.846   5.234
 4481TIP3    H213408   5.900   1.886   5.362
 4482TIP3   OH213409   5.651   6.057   5.323
 4482TIP3    H113410   5.575   6.035   5.377
 4482TIP3    H213411   5.696   6.126   5.373
 4483TIP3   OH213412   2.597   4.129   1.357
 4483TIP3    H113413   2.599   4.065   1.428
 4483TIP3    H213414   2.601   4.214   1.400
 4484TIP3   OH213415   7.058   6.552   1.451
 4484TIP3    H113416   7.148   6.578   1.430
 4484TIP3    H213417   7.064   6.457   1.466
 4485TIP3   OH213418   6.425   2.592   1.330
 4485TIP3    H113419   6.363   2.665   1.325
 4485TIP3    H213420   6.410   2.554   1.416
 4486TIP3   OH213421   1.236   1.443   0.272
 4486TIP3    H113422   1.293   1.377   0.233
 4486TIP3    H213423   1.234   1.514   0.208
 4487TIP3   OH213424   1.110   5.124   1.650
 4487TIP3    H113425   1.088   5.208   1.690
 4487TIP3    H213426   1.087   5.135   1.557
 4488TIP3   OH213427   2.834   2.330   0.538
 4488TIP3    H113428   2.848   2.264   0.607
 4488TIP3    H213429   2.865   2.412   0.577
 4489TIP3   OH213430   4.541   2.807   3.941
 4489TIP3    H113431   4.538   2.746   3.867
 4489TIP3    H213432   4.533   2.752   4.018
 4490TIP3   OH213433   5.270   2.315   3.959
 4490TIP3    H113434   5.291   2.342   4.048
 4490TIP3    H213435   5.174   2.324   3.954
 4491TIP3   OH213436   1.508   1.445   0.683
 4491TIP3    H113437   1.458   1.500   0.623
 4491TIP3    H213438   1.572   1.400   0.627
 4492TIP3   OH213439   0.959   2.665   1.012
 4492TIP3    H113440   1.038   2.614   0.996
 4492TIP3    H213441   0.927   2.686   0.924
 4493TIP3   OH213442   1.482   5.583   2.948
 4493TIP3    H113443   1.430   5.556   3.023
 4493TIP3    H213444   1.546   5.513   2.937
 4494TIP3   OH213445   0.156   0.658   0.550
 4494TIP3    H113446   0.126   0.568   0.548
 4494TIP3    H213447   0.082   0.709   0.517
 4495TIP3   OH213448   1.878   2.461   1.023
 4495TIP3    H113449   1.849   2.372   1.041
 4495TIP3    H213450   1.945   2.478   1.090
 4496TIP3   OH213451   2.795   0.390   4.232
 4496TIP3    H113452   2.730   0.442   4.278
 4496TIP3    H213453   2.746   0.316   4.196
 4497TIP3   OH213454   4.186   3.946   1.660
 4497TIP3    H113455   4.171   3.852   1.668
 4497TIP3    H213456   4.219   3.972   1.746
 4498TIP3   OH213457   3.505   0.066   4.966
 4498TIP3    H113458   3.430   0.042   4.910
 4498TIP3    H213459   3.480   0.036   5.053
 4499TIP3   OH213460   1.778   4.254   3.901
 4499TIP3    H113461   1.734   4.277   3.819
 4499TIP3    H213462   1.766   4.331   3.957
 4500TIP3   OH213463   6.455   4.973   3.951
 4500TIP3    H113464   6.518   4.987   3.880
 4500TIP3    H213465   6.440   5.060   3.988
 4501TIP3   OH213466   1.509   0.662   5.770
 4501TIP3    H113467   1.579   0.629   5.825
 4501TIP3    H213468   1.470   0.733   5.820
 4502TIP3   OH213469   2.816   6.539   4.051
 4502TIP3    H113470   2.769   6.492   4.120
 4502TIP3    H213471   2.766   6.521   3.971
 4503TIP3   OH213472   7.204   0.251   3.148
 4503TIP3    H113473   7.147   0.252   3.224
 4503TIP3    H213474   7.154   0.295   3.079
 4504TIP3   OH213475   0.869   2.508   2.092
 4504TIP3    H113476   0.782   2.547   2.086
 4504TIP3    H213477   0.886   2.502   2.186
 4505TIP3   OH213478   1.806   2.218   4.895
 4505TIP3    H113479   1.825   2.309   4.877
 4505TIP3    H213480   1.801   2.176   4.809
 4506TIP3   OH213481   1.176   1.137   4.588
 4506TIP3    H113482   1.239   1.093   4.646
 4506TIP3    H213483   1.095   1.139   4.638
 4507TIP3   OH213484   5.188   5.994   1.197
 4507TIP3    H113485   5.198   5.959   1.286
 4507TIP3    H213486   5.159   5.919   1.145
 4508TIP3   OH213487   1.131   5.524   3.622
 4508TIP3    H113488   1.225   5.512   3.636
 4508TIP3    H213489   1.120   5.522   3.527
 4509TIP3   OH213490   6.407   5.324   5.880
 4509TIP3    H113491   6.410   5.255   5.814
 4509TIP3    H213492   6.314   5.345   5.890
 4510TIP3   OH213493   7.138   4.682   0.510
 4510TIP3    H113494   7.113   4.769   0.540
 4510TIP3    H213495   7.205   4.654   0.573
 4511TIP3   OH213496   5.569   1.344   2.517
 4511TIP3    H113497   5.635   1.285   2.479
 4511TIP3    H213498   5.557   1.412   2.451
 4512TIP3   OH213499   0.829   5.583   1.998
 4512TIP3    H113500   0.924   5.571   1.997
 4512TIP3    H213501   0.800   5.556   1.910
 4513TIP3   OH213502   6.375   3.567   3.241
 4513TIP3    H113503   6.378   3.578   3.146
 4513TIP3    H213504   6.298   3.511   3.256
 4514TIP3   OH213505   4.841   0.063   0.457
 4514TIP3    H113506   4.800   0.149   0.451
 4514TIP3    H213507   4.775   0.002   0.426
 4515TIP3   OH213508   3.509   5.472   4.902
 4515TIP3    H113509   3.428   5.457   4.951
 4515TIP3    H213510   3.481   5.520   4.824
 4516TIP3   OH213511   6.725   5.041   0.168
 4516TIP3    H113512   6.688   5.126   0.144
 4516TIP3    H213513   6.700   4.982   0.096
 4517TIP3   OH213514   0.971   3.338   4.036
 4517TIP3    H113515   0.988   3.263   4.094
 4517TIP3    H213516   0.878   3.332   4.015
 4518TIP3   OH213517   4.138   6.444   0.254
 4518TIP3    H113518   4.083   6.416   0.181
 4518TIP3    H213519   4.208   6.495   0.213
 4519TIP3   OH213520   1.739   4.860   3.888
 4519TIP3    H113521   1.752   4.883   3.796
 4519TIP3    H213522   1.712   4.768   3.886
 4520TIP3   OH213523   0.870   5.192   2.046
 4520TIP3    H113524   0.775   5.198   2.042
 4520TIP3    H213525   0.901   5.246   1.972
 4521TIP3   OH213526   3.057   6.115   3.318
 4521TIP3    H113527   2.991   6.046   3.312
 4521TIP3    H213528   3.111   6.091   3.393
 4522TIP3   OH213529   3.621   3.375   2.227
 4522TIP3    H113530   3.541   3.393   2.275
 4522TIP3    H213531   3.648   3.288   2.258
 4523TIP3   OH213532   4.782   4.597   4.782
 4523TIP3    H113533   4.863   4.549   4.762
 4523TIP3    H213534   4.797   4.684   4.745
 4524TIP3   OH213535   5.772   1.672   2.727
 4524TIP3    H113536   5.682   1.647   2.709
 4524TIP3    H213537   5.823   1.592   2.712
 4525TIP3   OH213538   3.003   1.972   4.947
 4525TIP3    H113539   3.027   1.929   4.865
 4525TIP3    H213540   2.915   2.007   4.931
 4526TIP3   OH213541   1.321   6.597   1.600
 4526TIP3    H113542   1.269   6.541   1.657
 4526TIP3    H213543   1.329   6.548   1.519
 4527TIP3   OH213544   1.517   1.399   1.202
 4527TIP3    H113545   1.535   1.311   1.236
 4527TIP3    H213546   1.510   1.387   1.107
 4528TIP3   OH213547   5.226   5.079   4.461
 4528TIP3    H113548   5.276   5.026   4.398
 4528TIP3    H213549   5.259   5.168   4.450
 4529TIP3   OH213550   6.045   0.980   0.227
 4529TIP3    H113551   5.999   0.978   0.311
 4529TIP3    H213552   6.002   1.051   0.178
 4530TIP3   OH213553   4.332   3.599   3.717
 4530TIP3    H113554   4.280   3.676   3.742
 4530TIP3    H213555   4.406   3.600   3.777
 4531TIP3   OH213556   4.393   4.437   1.795
 4531TIP3    H113557   4.303   4.427   1.763
 4531TIP3    H213558   4.433   4.500   1.735
 4532TIP3   OH213559   1.575   4.598   3.527
 4532TIP3    H113560   1.634   4.658   3.481
 4532TIP3    H213561   1.632   4.526   3.555
 4533TIP3   OH213562   2.833   2.874   0.756
 4533TIP3    H113563   2.909   2.869   0.699
 4533TIP3    H213564   2.761   2.839   0.704
 4534TIP3   OH213565   1.813   1.414   2.051
 4534TIP3    H113566   1.851   1.347   2.108
 4534TIP3    H213567   1.868   1.413   1.972
 4535TIP3   OH213568   3.513   4.031   1.634
 4535TIP3    H113569   3.558   3.955   1.597
 4535TIP3    H213570   3.572   4.104   1.615
 4536TIP3   OH213571   1.110   4.925   3.359
 4536TIP3    H113572   1.074   4.929   3.271
 4536TIP3    H213573   1.199   4.960   3.352
 4537TIP3   OH213574   5.628   2.292   5.848
 4537TIP3    H113575   5.655   2.373   5.805
 4537TIP3    H213576   5.533   2.288   5.835
 4538TIP3   OH213577   3.086   5.559   3.465
 4538TIP3    H113578   2.991   5.555   3.461
 4538TIP3    H213579   3.113   5.470   3.489
 4539TIP3   OH213580   4.199   2.389   1.190
 4539TIP3    H113581   4.117   2.397   1.141
 4539TIP3    H213582   4.171   2.380   1.282
 4540TIP3   OH213583   1.632   0.784   4.845
 4540TIP3    H113584   1.628   0.694   4.812
 4540TIP3    H213585   1.688   0.778   4.923
 4541TIP3   OH213586   2.412   3.193   0.270
 4541TIP3    H113587   2.388   3.214   0.180
 4541TIP3    H213588   2.328   3.182   0.315
 4542TIP3   OH213589   6.475   6.378   1.631
 4542TIP3    H113590   6.426   6.298   1.611
 4542TIP3    H213591   6.564   6.358   1.601
 4543TIP3   OH213592   1.208   6.783   2.556
 4543TIP3    H113593   1.196   6.808   2.648
 4543TIP3    H213594   1.210   6.687   2.557
 4544TIP3   OH213595   2.084   3.801   3.997
 4544TIP3    H113596   2.137   3.835   3.925
 4544TIP3    H213597   2.117   3.846   4.074
 4545TIP3   OH213598   2.455   2.074   1.616
 4545TIP3    H113599   2.422   2.023   1.689
 4545TIP3    H213600   2.439   2.021   1.539
 4546TIP3   OH213601   5.843   0.292   0.632
 4546TIP3    H113602   5.756   0.320   0.663
 4546TIP3    H213603   5.824   0.233   0.559
 4547TIP3   OH213604   2.529   2.763   3.039
 4547TIP3    H113605   2.528   2.667   3.031
 4547TIP3    H213606   2.436   2.787   3.047
 4548TIP3   OH213607   3.933   1.186   5.417
 4548TIP3    H113608   3.978   1.108   5.448
 4548TIP3    H213609   3.848   1.183   5.461
 4549TIP3   OH213610   7.060   0.204   5.395
 4549TIP3    H113611   7.057   0.292   5.433
 4549TIP3    H213612   7.032   0.216   5.304
 4550TIP3   OH213613   6.654   3.470   1.741
 4550TIP3    H113614   6.582   3.408   1.742
 4550TIP3    H213615   6.711   3.441   1.670
 4551TIP3   OH213616   2.831   5.644   0.689
 4551TIP3    H113617   2.925   5.663   0.682
 4551TIP3    H213618   2.808   5.667   0.778
 4552TIP3   OH213619   6.694   3.401   0.518
 4552TIP3    H113620   6.776   3.444   0.493
 4552TIP3    H213621   6.705   3.380   0.610
 4553TIP3   OH213622   3.377   4.202   2.210
 4553TIP3    H113623   3.416   4.271   2.264
 4553TIP3    H213624   3.427   4.204   2.129
 4554TIP3   OH213625   4.111   4.361   2.913
 4554TIP3    H113626   4.071   4.281   2.949
 4554TIP3    H213627   4.117   4.344   2.819
 4555TIP3   OH213628   0.267   6.247   4.439
 4555TIP3    H113629   0.239   6.213   4.354
 4555TIP3    H213630   0.362   6.234   4.440
 4556TIP3   OH213631   3.947   2.998   4.112
 4556TIP3    H113632   3.911   3.086   4.104
 4556TIP3    H213633   3.994   2.999   4.196
 4557TIP3   OH213634   2.506   4.799   5.662
 4557TIP3    H113635   2.500   4.840   5.748
 4557TIP3    H213636   2.479   4.867   5.600
 4558TIP3   OH213637   6.124   6.129   1.739
 4558TIP3    H113638   6.071   6.050   1.744
 4558TIP3    H213639   6.189   6.120   1.809
 4559TIP3   OH213640   0.709   5.792   4.925
 4559TIP3    H113641   0.638   5.744   4.966
 4559TIP3    H213642   0.688   5.791   4.831
 4560TIP3   OH213643   6.505   5.506   5.065
 4560TIP3    H113644   6.436   5.515   4.999
 4560TIP3    H213645   6.473   5.557   5.140
 4561TIP3   OH213646   6.994   6.416   0.279
 4561TIP3    H113647   6.970   6.507   0.261
 4561TIP3    H213648   6.973   6.404   0.372
 4562TIP3   OH213649   6.824   0.392   5.572
 4562TIP3    H113650   6.891   0.427   5.513
 4562TIP3    H213651   6.831   0.445   5.651
 4563TIP3   OH213652   0.192   2.954   1.511
 4563TIP3    H113653   0.149   2.888   1.457
 4563TIP3    H213654   0.277   2.968   1.469
 4564TIP3   OH213655   4.256   6.290   4.702
 4564TIP3    H113656   4.292   6.217   4.652
 4564TIP3    H213657   4.268   6.263   4.794
 4565TIP3   OH213658   7.175   0.768   1.323
 4565TIP3    H113659   7.177   0.692   1.381
 4565TIP3    H213660   7.224   0.740   1.245
 4566TIP3   OH213661   0.107   6.385   0.884
 4566TIP3    H113662   0.064   6.407   0.802
 4566TIP3    H213663   0.187   6.339   0.857
 4567TIP3   OH213664   3.495   4.692   0.044
 4567TIP3    H113665   3.501   4.669  -0.048
 4567TIP3    H213666   3.540   4.621   0.090
 4568TIP3   OH213667   1.602   5.151   3.806
 4568TIP3    H113668   1.597   5.209   3.729
 4568TIP3    H213669   1.566   5.068   3.775
 4569TIP3   OH213670   5.432   3.171   2.779
 4569TIP3    H113671   5.504   3.234   2.774
 4569TIP3    H213672   5.363   3.217   2.827
 4570TIP3   OH213673   5.901   3.166   4.331
 4570TIP3    H113674   5.884   3.098   4.265
 4570TIP3    H213675   5.894   3.120   4.415
 4571TIP3   OH213676   0.555   4.570   0.835
 4571TIP3    H113677   0.472   4.533   0.808
 4571TIP3    H213678   0.603   4.585   0.754
 4572TIP3   OH213679   1.620   2.437   4.769
 4572TIP3    H113680   1.634   2.448   4.675
 4572TIP3    H213681   1.526   2.450   4.781
 4573TIP3   OH213682   2.460   4.436   3.840
 4573TIP3    H113683   2.530   4.375   3.861
 4573TIP3    H213684   2.422   4.459   3.925
 4574TIP3   OH213685   2.293   0.253   5.055
 4574TIP3    H113686   2.262   0.168   5.087
 4574TIP3    H213687   2.251   0.262   4.969
 4575TIP3   OH213688   1.270   3.191   5.610
 4575TIP3    H113689   1.306   3.223   5.528
 4575TIP3    H213690   1.242   3.101   5.591
 4576TIP3   OH213691   1.190   5.171   1.380
 4576TIP3    H113692   1.205   5.259   1.414
 4576TIP3    H213693   1.275   5.127   1.387
 4577TIP3   OH213694   4.309   6.152   0.756
 4577TIP3    H113695   4.221   6.136   0.722
 4577TIP3    H213696   4.296   6.167   0.849
 4578TIP3   OH213697   0.812   2.557   5.204
 4578TIP3    H113698   0.836   2.496   5.273
 4578TIP3    H213699   0.895   2.575   5.159
 4579TIP3   OH213700   0.893   1.714   2.618
 4579TIP3    H113701   0.866   1.733   2.528
 4579TIP3    H213702   0.843   1.637   2.642
 4580TIP3   OH213703   5.649   5.427   1.850
 4580TIP3    H113704   5.567   5.388   1.880
 4580TIP3    H213705   5.685   5.469   1.928
 4581TIP3   OH213706   5.222   1.602   2.823
 4581TIP3    H113707   5.302   1.563   2.787
 4581TIP3    H213708   5.151   1.546   2.792
 4582TIP3   OH213709   4.187   0.475   2.309
 4582TIP3    H113710   4.142   0.558   2.298
 4582TIP3    H213711   4.276   0.491   2.278
 4583TIP3   OH213712   0.788   1.350   1.281
 4583TIP3    H113713   0.829   1.404   1.349
 4583TIP3    H213714   0.829   1.264   1.291
 4584TIP3   OH213715   6.088   6.253   1.300
 4584TIP3    H113716   6.057   6.201   1.374
 4584TIP3    H213717   6.176   6.219   1.282
 4585TIP3   OH213718   3.493   1.061   4.783
 4585TIP3    H113719   3.548   1.136   4.764
 4585TIP3    H213720   3.488   1.057   4.879
 4586TIP3   OH213721   0.894   5.429   3.741
 4586TIP3    H113722   0.951   5.402   3.813
 4586TIP3    H213723   0.955   5.463   3.675
 4587TIP3   OH213724   1.219   3.596   0.161
 4587TIP3    H113725   1.165   3.638   0.228
 4587TIP3    H213726   1.181   3.509   0.151
 4588TIP3   OH213727   4.120   4.858   3.631
 4588TIP3    H113728   4.129   4.859   3.535
 4588TIP3    H213729   4.030   4.883   3.647
 4589TIP3   OH213730   5.164   1.943   3.174
 4589TIP3    H113731   5.073   1.915   3.187
 4589TIP3    H213732   5.209   1.864   3.145
 4590TIP3   OH213733   3.385   3.219   1.475
 4590TIP3    H113734   3.399   3.161   1.550
 4590TIP3    H213735   3.464   3.271   1.469
 4591TIP3   OH213736   5.249   0.938   1.367
 4591TIP3    H113737   5.240   0.851   1.327
 4591TIP3    H213738   5.343   0.954   1.368
 4592TIP3   OH213739   3.006   3.733   0.386
 4592TIP3    H113740   3.003   3.637   0.382
 4592TIP3    H213741   3.087   3.756   0.342
 4593TIP3   OH213742   5.105   1.021   3.924
 4593TIP3    H113743   5.018   1.022   3.884
 4593TIP3    H213744   5.166   1.028   3.851
 4594TIP3   OH213745   2.006   3.890   3.720
 4594TIP3    H113746   2.086   3.937   3.698
 4594TIP3    H213747   1.996   3.825   3.650
 4595TIP3   OH213748   0.753   2.771   2.681
 4595TIP3    H113749   0.807   2.709   2.631
 4595TIP3    H213750   0.781   2.857   2.649
 4596TIP3   OH213751   6.752   3.106   4.094
 4596TIP3    H113752   6.738   3.014   4.072
 4596TIP3    H213753   6.794   3.104   4.179
 4597TIP3   OH213754   1.704   0.284   4.636
 4597TIP3    H113755   1.609   0.299   4.639
 4597TIP3    H213756   1.712   0.190   4.617
 4598TIP3   OH213757   7.088   1.888   5.603
 4598TIP3    H113758   7.114   1.963   5.656
 4598TIP3    H213759   6.994   1.877   5.622
 4599TIP3   OH213760   2.908   3.060   0.138
 4599TIP3    H113761   2.944   2.972   0.126
 4599TIP3    H213762   2.977   3.108   0.183
 4600TIP3   OH213763   2.840   5.334   3.627
 4600TIP3    H113764   2.870   5.255   3.671
 4600TIP3    H213765   2.776   5.303   3.564
 4601TIP3   OH213766   2.893   3.056   1.923
 4601TIP3    H113767   2.844   3.129   1.958
 4601TIP3    H213768   2.907   2.998   1.998
 4602TIP3   OH213769   2.992   1.957   0.189
 4602TIP3    H113770   3.044   2.038   0.195
 4602TIP3    H213771   2.906   1.981   0.222
 4603TIP3   OH213772   6.150   0.034   0.864
 4603TIP3    H113773   6.117  -0.049   0.897
 4603TIP3    H213774   6.071   0.086   0.849
 4604TIP3   OH213775   2.602   3.857   1.585
 4604TIP3    H113776   2.677   3.811   1.547
 4604TIP3    H213777   2.531   3.793   1.585
 4605TIP3   OH213778   3.630   1.898   4.876
 4605TIP3    H113779   3.616   1.991   4.893
 4605TIP3    H213780   3.557   1.854   4.921
 4606TIP3   OH213781   0.487   0.249   2.977
 4606TIP3    H113782   0.445   0.197   2.909
 4606TIP3    H213783   0.447   0.219   3.059
 4607TIP3   OH213784   2.647   5.603   2.986
 4607TIP3    H113785   2.675   5.621   3.076
 4607TIP3    H213786   2.729   5.597   2.937
 4608TIP3   OH213787   0.605   4.167   0.903
 4608TIP3    H113788   0.517   4.130   0.911
 4608TIP3    H213789   0.618   4.177   0.808
 4609TIP3   OH213790   0.829   4.792   0.673
 4609TIP3    H113791   0.772   4.740   0.616
 4609TIP3    H213792   0.914   4.750   0.665
 4610TIP3   OH213793   1.200   1.704   0.831
 4610TIP3    H113794   1.278   1.652   0.851
 4610TIP3    H213795   1.235   1.789   0.804
 4611TIP3   OH213796   3.005   4.650   4.374
 4611TIP3    H113797   3.099   4.650   4.393
 4611TIP3    H213798   2.997   4.701   4.294
 4612TIP3   OH213799   5.296   6.053   3.393
 4612TIP3    H113800   5.385   6.032   3.421
 4612TIP3    H213801   5.283   6.143   3.422
 4613TIP3   OH213802   2.924   3.764   3.513
 4613TIP3    H113803   2.970   3.745   3.431
 4613TIP3    H213804   2.870   3.841   3.493
 4614TIP3   OH213805   0.438   4.106   2.697
 4614TIP3    H113806   0.431   4.199   2.678
 4614TIP3    H213807   0.416   4.099   2.790
 4615TIP3   OH213808   2.090   4.453   1.107
 4615TIP3    H113809   2.036   4.443   1.186
 4615TIP3    H213810   2.037   4.414   1.037
 4616TIP3   OH213811   4.073   3.765   2.062
 4616TIP3    H113812   3.999   3.749   2.121
 4616TIP3    H213813   4.101   3.854   2.081
 4617TIP3   OH213814   6.791   4.046   3.001
 4617TIP3    H113815   6.815   4.138   2.992
 4617TIP3    H213816   6.828   4.004   2.924
 4618TIP3   OH213817   0.099   0.945   4.641
 4618TIP3    H113818   0.068   1.032   4.619
 4618TIP3    H213819   0.115   0.902   4.557
 4619TIP3   OH213820   3.416   0.712   2.815
 4619TIP3    H113821   3.381   0.719   2.904
 4619TIP3    H213822   3.339   0.722   2.758
 4620TIP3   OH213823   7.104   3.399   4.247
 4620TIP3    H113824   7.120   3.442   4.330
 4620TIP3    H213825   7.037   3.332   4.267
 4621TIP3   OH213826   6.574   2.883   1.952
 4621TIP3    H113827   6.582   2.789   1.964
 4621TIP3    H213828   6.492   2.895   1.905
 4622TIP3   OH213829   5.163   4.765   2.710
 4622TIP3    H113830   5.162   4.752   2.805
 4622TIP3    H213831   5.147   4.678   2.674
 4623TIP3   OH213832   0.959   6.295   3.956
 4623TIP3    H113833   0.903   6.244   3.898
 4623TIP3    H213834   0.899   6.350   4.007
 4624TIP3   OH213835   6.636   2.816   4.899
 4624TIP3    H113836   6.715   2.810   4.845
 4624TIP3    H213837   6.617   2.909   4.903
 4625TIP3   OH213838   3.090   6.252   2.872
 4625TIP3    H113839   3.158   6.317   2.857
 4625TIP3    H213840   3.036   6.254   2.793
 4626TIP3   OH213841   2.783   1.233   5.357
 4626TIP3    H113842   2.822   1.203   5.276
 4626TIP3    H213843   2.798   1.327   5.358
 4627TIP3   OH213844   0.142   0.586   1.503
 4627TIP3    H113845   0.165   0.556   1.415
 4627TIP3    H213846   0.137   0.505   1.555
 4628TIP3   OH213847   1.237   4.674   2.235
 4628TIP3    H113848   1.167   4.662   2.299
 4628TIP3    H213849   1.211   4.751   2.185
 4629TIP3   OH213850   4.936   3.392   3.271
 4629TIP3    H113851   4.943   3.372   3.364
 4629TIP3    H213852   4.842   3.387   3.252
 4630TIP3   OH213853   1.109   6.583   4.198
 4630TIP3    H113854   1.189   6.579   4.251
 4630TIP3    H213855   1.055   6.650   4.241
 4631TIP3   OH213856   5.270   5.540   4.182
 4631TIP3    H113857   5.357   5.502   4.171
 4631TIP3    H213858   5.274   5.585   4.267
 4632TIP3   OH213859   3.031   3.004   2.415
 4632TIP3    H113860   3.124   3.005   2.439
 4632TIP3    H213861   3.030   3.029   2.322
 4633TIP3   OH213862   2.277   5.354   2.116
 4633TIP3    H113863   2.344   5.312   2.062
 4633TIP3    H213864   2.305   5.339   2.206
 4634TIP3   OH213865   4.102   1.254   5.808
 4634TIP3    H113866   4.015   1.285   5.783
 4634TIP3    H213867   4.086   1.182   5.870
 4635TIP3   OH213868   5.286   3.931   3.306
 4635TIP3    H113869   5.313   3.963   3.220
 4635TIP3    H213870   5.360   3.950   3.364
 4636TIP3   OH213871   0.605   2.706   1.451
 4636TIP3    H113872   0.520   2.663   1.458
 4636TIP3    H213873   0.626   2.733   1.541
 4637TIP3   OH213874   2.939   6.562   5.606
 4637TIP3    H113875   2.863   6.590   5.657
 4637TIP3    H213876   3.008   6.624   5.630
 4638TIP3   OH213877   5.657   0.090   2.244
 4638TIP3    H113878   5.611   0.097   2.160
 4638TIP3    H213879   5.722   0.022   2.229
 4639TIP3   OH213880   6.619   0.634   0.265
 4639TIP3    H113881   6.603   0.667   0.177
 4639TIP3    H213882   6.598   0.541   0.260
 4640TIP3   OH213883   5.697   1.208   5.582
 4640TIP3    H113884   5.651   1.129   5.554
 4640TIP3    H213885   5.783   1.201   5.540
 4641TIP3   OH213886   5.150   4.623   3.750
 4641TIP3    H113887   5.127   4.666   3.833
 4641TIP3    H213888   5.066   4.593   3.715
 4642TIP3   OH213889   0.726   2.926   0.605
 4642TIP3    H113890   0.747   3.009   0.649
 4642TIP3    H213891   0.777   2.861   0.653
 4643TIP3   OH213892   1.315   0.039   3.519
 4643TIP3    H113893   1.348   0.011   3.434
 4643TIP3    H213894   1.222   0.017   3.517
 4644TIP3   OH213895   3.702   1.656   3.282
 4644TIP3    H113896   3.667   1.670   3.194
 4644TIP3    H213897   3.745   1.571   3.278
 4645TIP3   OH213898   3.310   5.251   0.308
 4645TIP3    H113899   3.348   5.193   0.374
 4645TIP3    H213900   3.230   5.285   0.349
 4646TIP3   OH213901   0.354   4.466   3.011
 4646TIP3    H113902   0.450   4.465   3.002
 4646TIP3    H213903   0.339   4.487   3.103
 4647TIP3   OH213904   5.105   6.079   2.438
 4647TIP3    H113905   5.080   6.058   2.348
 4647TIP3    H213906   5.032   6.131   2.472
 4648TIP3   OH213907   0.576   0.063   2.450
 4648TIP3    H113908   0.669   0.048   2.469
 4648TIP3    H213909   0.575   0.140   2.394
 4649TIP3   OH213910   1.753   1.141   1.875
 4649TIP3    H113911   1.798   1.177   1.952
 4649TIP3    H213912   1.756   1.046   1.889
 4650TIP3   OH213913   2.565   4.382   5.528
 4650TIP3    H113914   2.653   4.370   5.494
 4650TIP3    H213915   2.520   4.431   5.459
 4651TIP3   OH213916   4.385   1.983   2.292
 4651TIP3    H113917   4.328   2.032   2.233
 4651TIP3    H213918   4.325   1.943   2.355
 4652TIP3   OH213919   0.067   4.999   2.582
 4652TIP3    H113920   0.107   5.073   2.536
 4652TIP3    H213921   0.005   5.040   2.642
 4653TIP3   OH213922   1.381   4.672   0.105
 4653TIP3    H113923   1.476   4.677   0.095
 4653TIP3    H213924   1.360   4.579   0.095
 4654TIP3   OH213925   2.955   5.288   0.652
 4654TIP3    H113926   3.037   5.285   0.602
 4654TIP3    H213927   2.976   5.342   0.729
 4655TIP3   OH213928   5.191   1.858   2.243
 4655TIP3    H113929   5.124   1.791   2.234
 4655TIP3    H213930   5.265   1.825   2.193
 4656TIP3   OH213931   5.513   6.525   0.985
 4656TIP3    H113932   5.424   6.489   0.984
 4656TIP3    H213933   5.527   6.551   1.076
 4657TIP3   OH213934   4.626   2.809   3.346
 4657TIP3    H113935   4.607   2.896   3.380
 4657TIP3    H213936   4.544   2.760   3.355
 4658TIP3   OH213937   1.385   4.422   4.426
 4658TIP3    H113938   1.389   4.474   4.346
 4658TIP3    H213939   1.451   4.353   4.412
 4659TIP3   OH213940   3.233   6.635   2.901
 4659TIP3    H113941   3.223   6.730   2.896
 4659TIP3    H213942   3.190   6.602   2.822
 4660TIP3   OH213943   6.224   3.568   2.298
 4660TIP3    H113944   6.173   3.487   2.302
 4660TIP3    H213945   6.165   3.635   2.332
 4661TIP3   OH213946   0.424   2.343   2.216
 4661TIP3    H113947   0.345   2.376   2.260
 4661TIP3    H213948   0.496   2.380   2.267
 4662TIP3   OH213949   3.945   0.238   1.487
 4662TIP3    H113950   3.870   0.295   1.507
 4662TIP3    H213951   3.909   0.149   1.491
 4663TIP3   OH213952   1.241   0.805   3.300
 4663TIP3    H113953   1.316   0.840   3.252
 4663TIP3    H213954   1.255   0.710   3.299
 4664TIP3   OH213955   4.350   4.149   0.598
 4664TIP3    H113956   4.412   4.085   0.563
 4664TIP3    H213957   4.404   4.205   0.654
 4665TIP3   OH213958   4.020   1.071   0.229
 4665TIP3    H113959   4.109   1.038   0.241
 4665TIP3    H213960   3.966   1.015   0.285
 4666TIP3   OH213961   3.736   6.325   0.866
 4666TIP3    H113962   3.741   6.248   0.922
 4666TIP3    H213963   3.782   6.394   0.915
 4667TIP3   OH213964   4.012   4.679   5.593
 4667TIP3    H113965   4.019   4.584   5.584
 4667TIP3    H213966   4.095   4.706   5.633
 4668TIP3   OH213967   4.662   3.396   3.082
 4668TIP3    H113968   4.573   3.391   3.047
 4668TIP3    H213969   4.665   3.480   3.128
 4669TIP3   OH213970   5.992   5.177   3.186
 4669TIP3    H113971   5.992   5.257   3.132
 4669TIP3    H213972   6.024   5.109   3.127
 4670TIP3   OH213973   6.596   1.053   0.390
 4670TIP3    H113974   6.508   1.075   0.359
 4670TIP3    H213975   6.586   1.043   0.485
 4671TIP3   OH213976   4.377   0.930   4.780
 4671TIP3    H113977   4.306   0.967   4.833
 4671TIP3    H213978   4.451   0.924   4.841
 4672TIP3   OH213979   6.363   2.699   4.195
 4672TIP3    H113980   6.394   2.718   4.107
 4672TIP3    H213981   6.368   2.783   4.241
 4673TIP3   OH213982   6.389   6.178   4.187
 4673TIP3    H113983   6.476   6.214   4.203
 4673TIP3    H213984   6.351   6.169   4.274
 4674TIP3   OH213985   4.940   4.241   2.098
 4674TIP3    H113986   4.957   4.177   2.029
 4674TIP3    H213987   4.954   4.193   2.180
 4675TIP3   OH213988   2.556   0.234   2.131
 4675TIP3    H113989   2.506   0.186   2.065
 4675TIP3    H213990   2.511   0.214   2.213
 4676TIP3   OH213991   5.513   0.382   0.438
 4676TIP3    H113992   5.466   0.327   0.375
 4676TIP3    H213993   5.478   0.357   0.523
 4677TIP3   OH213994   6.425   1.436   4.056
 4677TIP3    H113995   6.363   1.363   4.063
 4677TIP3    H213996   6.375   1.513   4.080
 4678TIP3   OH213997   5.053   6.305   5.652
 4678TIP3    H113998   5.044   6.257   5.569
 4678TIP3    H213999   4.963   6.320   5.681
 4679TIP3   OH214000   2.491   2.818   2.709
 4679TIP3    H114001   2.433   2.874   2.762
 4679TIP3    H214002   2.482   2.851   2.620
 4680TIP3   OH214003   3.675   5.667   2.181
 4680TIP3    H114004   3.722   5.636   2.103
 4680TIP3    H214005   3.666   5.589   2.236
 4681TIP3   OH214006   3.581   5.709   5.489
 4681TIP3    H114007   3.670   5.684   5.513
 4681TIP3    H214008   3.543   5.629   5.452
 4682TIP3   OH214009   6.679   1.379   3.035
 4682TIP3    H114010   6.689   1.434   2.957
 4682TIP3    H214011   6.614   1.424   3.088
 4683TIP3   OH214012   4.750   1.668   3.879
 4683TIP3    H114013   4.738   1.761   3.864
 4683TIP3    H214014   4.697   1.625   3.812
 4684TIP3   OH214015   0.090   4.208   2.750
 4684TIP3    H114016   0.066   4.242   2.664
 4684TIP3    H214017   0.125   4.283   2.798
 4685TIP3   OH214018   6.353   5.933   2.971
 4685TIP3    H114019   6.423   5.899   2.916
 4685TIP3    H214020   6.341   5.866   3.038
 4686TIP3   OH214021   0.368   3.083   5.644
 4686TIP3    H114022   0.454   3.050   5.618
 4686TIP3    H214023   0.377   3.179   5.640
 4687TIP3   OH214024   5.673   5.488   2.405
 4687TIP3    H114025   5.600   5.478   2.344
 4687TIP3    H214026   5.732   5.550   2.362
 4688TIP3   OH214027   5.394   6.288   0.639
 4688TIP3    H114028   5.457   6.280   0.711
 4688TIP3    H214029   5.340   6.210   0.644
 4689TIP3   OH214030   1.875   5.097   1.014
 4689TIP3    H114031   1.829   5.100   1.098
 4689TIP3    H214032   1.962   5.064   1.035
 4690TIP3   OH214033   1.011   3.592   2.310
 4690TIP3    H114034   1.054   3.666   2.351
 4690TIP3    H214035   1.072   3.519   2.321
 4691TIP3   OH214036   3.252   3.995   1.277
 4691TIP3    H114037   3.235   3.902   1.270
 4691TIP3    H214038   3.318   4.013   1.209
 4692TIP3   OH214039   4.120   0.322   0.989
 4692TIP3    H114040   4.103   0.249   0.930
 4692TIP3    H214041   4.058   0.310   1.061
 4693TIP3   OH214042   4.276   0.797   2.333
 4693TIP3    H114043   4.199   0.751   2.366
 4693TIP3    H214044   4.250   0.889   2.329
 4694TIP3   OH214045   6.503   5.613   5.683
 4694TIP3    H114046   6.518   5.593   5.775
 4694TIP3    H214047   6.466   5.532   5.647
 4695TIP3   OH214048   6.218   4.699   5.195
 4695TIP3    H114049   6.146   4.760   5.176
 4695TIP3    H214050   6.226   4.645   5.117
 4696TIP3   OH214051   5.095   2.514   5.781
 4696TIP3    H114052   5.073   2.606   5.791
 4696TIP3    H214053   5.124   2.486   5.868
 4697TIP3   OH214054   3.834   4.958   1.577
 4697TIP3    H114055   3.852   5.052   1.578
 4697TIP3    H214056   3.887   4.923   1.648
 4698TIP3   OH214057   2.349   3.868   4.440
 4698TIP3    H114058   2.350   3.858   4.535
 4698TIP3    H214059   2.315   3.957   4.426
 4699TIP3   OH214060   0.052   1.442   1.613
 4699TIP3    H114061   0.109   1.476   1.683
 4699TIP3    H214062  -0.015   1.392   1.659
 4700TIP3   OH214063   4.443   2.472   1.309
 4700TIP3    H114064   4.472   2.444   1.396
 4700TIP3    H214065   4.359   2.429   1.296
 4701TIP3   OH214066   1.639   6.009   1.592
 4701TIP3    H114067   1.640   6.072   1.664
 4701TIP3    H214068   1.694   5.937   1.622
 4702TIP3   OH214069   3.557   2.046   2.955
 4702TIP3    H114070   3.578   2.090   2.873
 4702TIP3    H214071   3.463   2.029   2.950
 4703TIP3   OH214072   2.785   4.897   3.576
 4703TIP3    H114073   2.846   4.894   3.502
 4703TIP3    H214074   2.837   4.868   3.650
 4704TIP3   OH214075   1.991   2.084   1.885
 4704TIP3    H114076   2.005   2.055   1.795
 4704TIP3    H214077   1.913   2.140   1.880
 4705TIP3   OH214078   3.098   5.979   2.901
 4705TIP3    H114079   3.152   5.973   2.981
 4705TIP3    H214080   3.090   6.073   2.885
 4706TIP3   OH214081   7.094   1.698   0.169
 4706TIP3    H114082   7.087   1.789   0.197
 4706TIP3    H214083   7.030   1.690   0.099
 4707TIP3   OH214084   2.422   0.437   4.031
 4707TIP3    H114085   2.454   0.524   4.005
 4707TIP3    H214086   2.350   0.419   3.971
 4708TIP3   OH214087   6.988   2.314   3.432
 4708TIP3    H114088   6.893   2.316   3.442
 4708TIP3    H214089   7.018   2.253   3.499
 4709TIP3   OH214090   3.027   2.477   0.931
 4709TIP3    H114091   3.057   2.431   1.009
 4709TIP3    H214092   3.052   2.568   0.946
 4710TIP3   OH214093   1.825   5.511   5.480
 4710TIP3    H114094   1.815   5.567   5.557
 4710TIP3    H214095   1.773   5.433   5.500
 4711TIP3   OH214096   4.948   4.691   5.247
 4711TIP3    H114097   4.912   4.766   5.294
 4711TIP3    H214098   5.042   4.693   5.268
 4712TIP3   OH214099   3.726   5.508   2.799
 4712TIP3    H114100   3.762   5.444   2.861
 4712TIP3    H214101   3.642   5.470   2.772
 4713TIP3   OH214102   5.495   6.654   3.081
 4713TIP3    H114103   5.420   6.599   3.103
 4713TIP3    H214104   5.475   6.687   2.993
 4714TIP3   OH214105   0.207   5.140   5.810
 4714TIP3    H114106   0.290   5.121   5.856
 4714TIP3    H214107   0.229   5.211   5.750
 4715TIP3   OH214108   1.607   2.416   1.667
 4715TIP3    H114109   1.582   2.490   1.722
 4715TIP3    H214110   1.695   2.438   1.636
 4716TIP3   OH214111   4.830   4.854   4.255
 4716TIP3    H114112   4.880   4.894   4.327
 4716TIP3    H214113   4.791   4.928   4.209
 4717TIP3   OH214114   4.753   6.803   2.401
 4717TIP3    H114115   4.706   6.772   2.478
 4717TIP3    H214116   4.712   6.887   2.380
 4718TIP3   OH214117   5.329   3.712   5.465
 4718TIP3    H114118   5.278   3.699   5.545
 4718TIP3    H214119   5.280   3.776   5.415
 4719TIP3   OH214120   0.516   1.045   2.452
 4719TIP3    H114121   0.590   1.087   2.409
 4719TIP3    H214122   0.477   1.114   2.506
 4720TIP3   OH214123   4.427   4.622   1.173
 4720TIP3    H114124   4.374   4.599   1.097
 4720TIP3    H214125   4.381   4.697   1.212
 4721TIP3   OH214126   3.417   4.390   0.829
 4721TIP3    H114127   3.396   4.300   0.806
 4721TIP3    H214128   3.361   4.410   0.904
 4722TIP3   OH214129   0.894   0.632   0.328
 4722TIP3    H114130   0.927   0.556   0.377
 4722TIP3    H214131   0.818   0.597   0.280
 4723TIP3   OH214132   5.766   0.687   2.508
 4723TIP3    H114133   5.791   0.598   2.532
 4723TIP3    H214134   5.849   0.735   2.503
 4724TIP3   OH214135   1.810   0.158   0.567
 4724TIP3    H114136   1.896   0.121   0.548
 4724TIP3    H214137   1.752   0.116   0.503
 4725TIP3   OH214138   5.175   1.172   3.324
 4725TIP3    H114139   5.245   1.125   3.280
 4725TIP3    H214140   5.133   1.223   3.255
 4726TIP3   OH214141   6.845   0.813   4.799
 4726TIP3    H114142   6.894   0.792   4.719
 4726TIP3    H214143   6.777   0.874   4.771
 4727TIP3   OH214144   3.878   5.289   4.739
 4727TIP3    H114145   3.919   5.226   4.799
 4727TIP3    H214146   3.903   5.260   4.652
 4728TIP3   OH214147   1.091   3.415   5.649
 4728TIP3    H114148   0.996   3.429   5.652
 4728TIP3    H214149   1.105   3.334   5.699
 4729TIP3   OH214150   3.163   0.240   2.912
 4729TIP3    H114151   3.100   0.212   2.846
 4729TIP3    H214152   3.148   0.335   2.920
 4730TIP3   OH214153   4.370   2.780   1.354
 4730TIP3    H114154   4.277   2.779   1.374
 4730TIP3    H214155   4.392   2.689   1.336
 4731TIP3   OH214156   7.072   0.487   2.791
 4731TIP3    H114157   7.127   0.522   2.860
 4731TIP3    H214158   7.074   0.392   2.804
 4732TIP3   OH214159   1.666   5.888   0.198
 4732TIP3    H114160   1.679   5.879   0.293
 4732TIP3    H214161   1.572   5.899   0.188
 4733TIP3   OH214162   2.939   0.768   2.506
 4733TIP3    H114163   2.863   0.710   2.517
 4733TIP3    H214164   2.999   0.719   2.450
 4734TIP3   OH214165   0.191   4.264   3.820
 4734TIP3    H114166   0.222   4.199   3.757
 4734TIP3    H214167   0.143   4.212   3.885
 4735TIP3   OH214168   1.694   5.379   0.849
 4735TIP3    H114169   1.637   5.306   0.876
 4735TIP3    H214170   1.686   5.443   0.920
 4736TIP3   OH214171   5.524   1.095   1.876
 4736TIP3    H114172   5.438   1.058   1.858
 4736TIP3    H214173   5.535   1.087   1.971
 4737TIP3   OH214174   0.368   6.210   4.976
 4737TIP3    H114175   0.424   6.165   5.039
 4737TIP3    H214176   0.285   6.162   4.980
 4738TIP3   OH214177   6.944   0.525   5.813
 4738TIP3    H114178   6.942   0.596   5.878
 4738TIP3    H214179   6.992   0.454   5.856
 4739TIP3   OH214180   4.698   4.432   0.578
 4739TIP3    H114181   4.713   4.436   0.673
 4739TIP3    H214182   4.649   4.512   0.559
 4740TIP3   OH214183   6.467   6.819   4.546
 4740TIP3    H114184   6.473   6.801   4.452
 4740TIP3    H214185   6.373   6.816   4.566
 4741TIP3   OH214186   6.180   2.240   3.484
 4741TIP3    H114187   6.168   2.262   3.577
 4741TIP3    H214188   6.118   2.169   3.467
 4742TIP3   OH214189   3.799   4.831   5.696
 4742TIP3    H114190   3.883   4.803   5.660
 4742TIP3    H214191   3.814   4.837   5.791
 4743TIP3   OH214192   1.766   0.489   4.440
 4743TIP3    H114193   1.747   0.411   4.492
 4743TIP3    H214194   1.816   0.456   4.365
 4744TIP3   OH214195   3.611   2.457   2.383
 4744TIP3    H114196   3.654   2.402   2.449
 4744TIP3    H214197   3.679   2.477   2.319
 4745TIP3   OH214198   4.183   4.441   5.207
 4745TIP3    H114199   4.277   4.461   5.208
 4745TIP3    H214200   4.142   4.522   5.236
 4746TIP3   OH214201   5.556   2.419   1.150
 4746TIP3    H114202   5.498   2.423   1.227
 4746TIP3    H214203   5.626   2.481   1.171
 4747TIP3   OH214204   1.142   6.340   2.369
 4747TIP3    H114205   1.204   6.413   2.370
 4747TIP3    H214206   1.172   6.282   2.440
 4748TIP3   OH214207   3.621   0.714   1.722
 4748TIP3    H114208   3.640   0.774   1.650
 4748TIP3    H214209   3.706   0.680   1.749
 4749TIP3   OH214210   2.092   5.650   2.827
 4749TIP3    H114211   2.127   5.606   2.749
 4749TIP3    H214212   2.070   5.578   2.886
 4750TIP3   OH214213   2.187   4.200   1.260
 4750TIP3    H114214   2.155   4.245   1.339
 4750TIP3    H214215   2.217   4.114   1.292
 4751TIP3   OH214216   1.546   3.140   5.104
 4751TIP3    H114217   1.634   3.108   5.122
 4751TIP3    H214218   1.526   3.199   5.177
 4752TIP3   OH214219   4.269   1.604   2.604
 4752TIP3    H114220   4.316   1.585   2.523
 4752TIP3    H214221   4.324   1.566   2.673
 4753TIP3   OH214222   4.370   1.297   4.570
 4753TIP3    H114223   4.276   1.296   4.585
 4753TIP3    H214224   4.380   1.331   4.481
 4754TIP3   OH214225   6.873   0.173   2.102
 4754TIP3    H114226   6.863   0.233   2.028
 4754TIP3    H214227   6.784   0.144   2.122
 4755TIP3   OH214228   4.646   3.913   2.987
 4755TIP3    H114229   4.599   3.830   2.974
 4755TIP3    H214230   4.606   3.951   3.066
 4756TIP3   OH214231   1.244   2.463   1.779
 4756TIP3    H114232   1.176   2.525   1.805
 4756TIP3    H214233   1.323   2.516   1.767
 4757TIP3   OH214234   1.081   2.063   5.644
 4757TIP3    H114235   1.028   2.049   5.565
 4757TIP3    H214236   1.025   2.116   5.701
 4758TIP3   OH214237   4.203   0.849   0.197
 4758TIP3    H114238   4.170   0.761   0.213
 4758TIP3    H214239   4.208   0.855   0.101
 4759TIP3   OH214240   6.035   6.391   3.327
 4759TIP3    H114241   6.076   6.304   3.319
 4759TIP3    H214242   6.102   6.446   3.366
 4760TIP3   OH214243   3.036   0.819   4.089
 4760TIP3    H114244   3.115   0.844   4.042
 4760TIP3    H214245   3.068   0.769   4.164
 4761TIP3   OH214246   1.424   0.931   5.357
 4761TIP3    H114247   1.411   0.856   5.298
 4761TIP3    H214248   1.403   0.897   5.444
 4762TIP3   OH214249   3.394   0.656   1.384
 4762TIP3    H114250   3.462   0.602   1.424
 4762TIP3    H214251   3.363   0.712   1.454
 4763TIP3   OH214252   7.026   6.284   1.456
 4763TIP3    H114253   7.113   6.281   1.416
 4763TIP3    H214254   6.992   6.195   1.445
 4764TIP3   OH214255   6.019   3.434   1.175
 4764TIP3    H114256   5.951   3.371   1.149
 4764TIP3    H214257   6.003   3.449   1.268
 4765TIP3   OH214258   5.085   3.567   5.671
 4765TIP3    H114259   5.129   3.644   5.705
 4765TIP3    H214260   5.059   3.517   5.749
 4766TIP3   OH214261   6.681   4.768   2.880
 4766TIP3    H114262   6.622   4.707   2.926
 4766TIP3    H214263   6.758   4.774   2.937
 4767TIP3   OH214264   0.245   1.073   3.065
 4767TIP3    H114265   0.310   1.047   3.131
 4767TIP3    H214266   0.297   1.091   2.987
 4768TIP3   OH214267   3.840   6.528   2.363
 4768TIP3    H114268   3.751   6.501   2.340
 4768TIP3    H214269   3.840   6.531   2.459
 4769TIP3   OH214270   1.234   2.197   5.390
 4769TIP3    H114271   1.318   2.155   5.408
 4769TIP3    H214272   1.205   2.230   5.475
 4770TIP3   OH214273   0.769   3.586   4.192
 4770TIP3    H114274   0.679   3.564   4.165
 4770TIP3    H214275   0.764   3.591   4.288
 4771TIP3   OH214276   3.974   0.238   4.705
 4771TIP3    H114277   3.883   0.221   4.678
 4771TIP3    H214278   3.987   0.183   4.783
 4772TIP3   OH214279   5.102   1.209   2.138
 4772TIP3    H114280   5.174   1.151   2.160
 4772TIP3    H214281   5.074   1.247   2.221
 4773TIP3   OH214282   2.973   6.303   5.271
 4773TIP3    H114283   2.903   6.263   5.221
 4773TIP3    H214284   2.938   6.389   5.296
 4774TIP3   OH214285   0.633   4.036   3.464
 4774TIP3    H114286   0.597   3.959   3.508
 4774TIP3    H214287   0.638   4.010   3.372
 4775TIP3   OH214288   0.076   4.623   4.722
 4775TIP3    H114289  -0.013   4.630   4.687
 4775TIP3    H214290   0.067   4.646   4.815
 4776TIP3   OH214291   6.238   3.952   0.119
 4776TIP3    H114292   6.324   3.987   0.145
 4776TIP3    H214293   6.252   3.917   0.031
 4777TIP3   OH214294   1.689   0.527   4.786
 4777TIP3    H114295   1.685   0.436   4.757
 4777TIP3    H214296   1.773   0.532   4.832
 4778TIP3   OH214297   2.528   3.462   0.462
 4778TIP3    H114298   2.530   3.381   0.411
 4778TIP3    H214299   2.443   3.461   0.506
 4779TIP3   OH214300   1.284   0.467   4.406
 4779TIP3    H114301   1.367   0.468   4.358
 4779TIP3    H214302   1.303   0.515   4.486
 4780TIP3   OH214303   4.669   4.680   0.013
 4780TIP3    H114304   4.737   4.747   0.010
 4780TIP3    H214305   4.655   4.664   0.107
 4781TIP3   OH214306   5.241   1.169   4.990
 4781TIP3    H114307   5.295   1.112   4.935
 4781TIP3    H214308   5.153   1.159   4.955
 4782TIP3   OH214309   1.328   0.689   3.836
 4782TIP3    H114310   1.399   0.753   3.846
 4782TIP3    H214311   1.257   0.738   3.794
 4783TIP3   OH214312   3.037   6.646   4.960
 4783TIP3    H114313   3.042   6.732   5.003
 4783TIP3    H214314   2.980   6.660   4.885
 4784TIP3   OH214315   0.332   3.176   3.960
 4784TIP3    H114316   0.330   3.081   3.972
 4784TIP3    H214317   0.296   3.211   4.041
 4785TIP3   OH214318   6.263   6.407   4.920
 4785TIP3    H114319   6.189   6.465   4.935
 4785TIP3    H214320   6.263   6.347   4.995
 4786TIP3   OH214321   2.308   1.630   3.462
 4786TIP3    H114322   2.349   1.665   3.541
 4786TIP3    H214323   2.381   1.601   3.407
 4787TIP3   OH214324   6.595   3.588   0.855
 4787TIP3    H114325   6.552   3.514   0.898
 4787TIP3    H214326   6.683   3.591   0.893
 4788TIP3   OH214327   6.458   0.622   2.417
 4788TIP3    H114328   6.539   0.646   2.462
 4788TIP3    H214329   6.461   0.671   2.335
 4789TIP3   OH214330   6.023   4.800   5.034
 4789TIP3    H114331   6.021   4.752   4.951
 4789TIP3    H214332   5.962   4.873   5.021
 4790TIP3   OH214333   6.946   5.623   1.816
 4790TIP3    H114334   6.989   5.574   1.885
 4790TIP3    H214335   7.012   5.631   1.747
 4791TIP3   OH214336   0.436   1.739   1.955
 4791TIP3    H114337   0.409   1.662   1.905
 4791TIP3    H214338   0.362   1.799   1.950
 4792TIP3   OH214339   5.455   5.738   3.545
 4792TIP3    H114340   5.449   5.645   3.569
 4792TIP3    H214341   5.374   5.776   3.579
 4793TIP3   OH214342   3.173   6.008   3.577
 4793TIP3    H114343   3.159   5.952   3.654
 4793TIP3    H214344   3.104   6.075   3.584
 4794TIP3   OH214345   4.179   3.443   1.228
 4794TIP3    H114346   4.219   3.521   1.267
 4794TIP3    H214347   4.138   3.474   1.147
 4795TIP3   OH214348   6.267   5.567   5.185
 4795TIP3    H114349   6.288   5.480   5.153
 4795TIP3    H214350   6.233   5.553   5.273
 4796TIP3   OH214351   0.905   2.967   0.136
 4796TIP3    H114352   0.894   2.975   0.041
 4796TIP3    H214353   0.887   2.875   0.155
 4797TIP3   OH214354   5.318   2.454   0.490
 4797TIP3    H114355   5.260   2.491   0.557
 4797TIP3    H214356   5.260   2.408   0.430
 4798TIP3   OH214357   7.200   4.752   3.353
 4798TIP3    H114358   7.165   4.840   3.364
 4798TIP3    H214359   7.236   4.729   3.439
 4799TIP3   OH214360   3.298   2.154   3.609
 4799TIP3    H114361   3.299   2.106   3.692
 4799TIP3    H214362   3.356   2.229   3.624
 4800TIP3   OH214363   7.100   4.260   3.314
 4800TIP3    H114364   7.064   4.255   3.402
 4800TIP3    H214365   7.070   4.344   3.280
 4801TIP3   OH214366   2.022   4.408   3.572
 4801TIP3    H114367   2.027   4.503   3.563
 4801TIP3    H214368   2.012   4.376   3.482
 4802TIP3   OH214369   3.899   6.270   3.495
 4802TIP3    H114370   3.868   6.300   3.409
 4802TIP3    H214371   3.842   6.316   3.557
 4803TIP3   OH214372   1.384   6.128   1.333
 4803TIP3    H114373   1.370   6.034   1.344
 4803TIP3    H214374   1.476   6.137   1.310
 4804TIP3   OH214375   6.131   1.890   3.589
 4804TIP3    H114376   6.115   1.819   3.652
 4804TIP3    H214377   6.049   1.940   3.588
 4805TIP3   OH214378   3.810   5.193   0.413
 4805TIP3    H114379   3.795   5.198   0.318
 4805TIP3    H214380   3.788   5.103   0.436
 4806TIP3   OH214381   2.361   5.729   4.292
 4806TIP3    H114382   2.395   5.674   4.221
 4806TIP3    H214383   2.416   5.808   4.289
 4807TIP3   OH214384   5.110   5.638   0.800
 4807TIP3    H114385   5.036   5.585   0.771
 4807TIP3    H214386   5.171   5.574   0.838
 4808TIP3   OH214387   7.011   4.918   0.232
 4808TIP3    H114388   7.096   4.931   0.275
 4808TIP3    H214389   6.950   4.904   0.304
 4809TIP3   OH214390   4.345   3.023   4.527
 4809TIP3    H114391   4.370   3.081   4.599
 4809TIP3    H214392   4.273   2.972   4.562
 4810TIP3   OH214393   5.406   0.577   2.878
 4810TIP3    H114394   5.429   0.669   2.885
 4810TIP3    H214395   5.379   0.551   2.966
 4811TIP3   OH214396   0.742   4.185   2.527
 4811TIP3    H114397   0.825   4.226   2.502
 4811TIP3    H214398   0.745   4.098   2.487
 4812TIP3   OH214399   6.738   6.308   1.347
 4812TIP3    H114400   6.763   6.337   1.435
 4812TIP3    H214401   6.650   6.343   1.335
 4813TIP3   OH214402   6.722   1.980   4.762
 4813TIP3    H114403   6.739   2.046   4.694
 4813TIP3    H214404   6.684   2.030   4.834
 4814TIP3   OH214405   6.226   0.694   1.631
 4814TIP3    H114406   6.196   0.777   1.670
 4814TIP3    H214407   6.270   0.649   1.702
 4815TIP3   OH214408   6.871   3.633   5.474
 4815TIP3    H114409   6.924   3.578   5.417
 4815TIP3    H214410   6.836   3.574   5.541
 4816TIP3   OH214411   3.752   0.073   3.180
 4816TIP3    H114412   3.803   0.110   3.108
 4816TIP3    H214413   3.718   0.149   3.227
 4817TIP3   OH214414   2.452   2.404   0.476
 4817TIP3    H114415   2.372   2.395   0.527
 4817TIP3    H214416   2.497   2.320   0.487
 4818TIP3   OH214417   5.379   2.189   0.092
 4818TIP3    H114418   5.347   2.119   0.149
 4818TIP3    H214419   5.420   2.142   0.019
 4819TIP3   OH214420   6.851   3.850   1.110
 4819TIP3    H114421   6.816   3.828   1.197
 4819TIP3    H214422   6.824   3.941   1.096
 4820TIP3   OH214423   1.812   0.093   1.590
 4820TIP3    H114424   1.744   0.026   1.593
 4820TIP3    H214425   1.893   0.044   1.574
 4821TIP3   OH214426   5.212   1.926   2.838
 4821TIP3    H114427   5.283   1.983   2.867
 4821TIP3    H214428   5.256   1.849   2.803
 4822TIP3   OH214429   5.363   5.962   2.362
 4822TIP3    H114430   5.278   5.981   2.400
 4822TIP3    H214431   5.381   6.038   2.307
 4823TIP3   OH214432   5.350   6.617   5.589
 4823TIP3    H114433   5.393   6.545   5.635
 4823TIP3    H214434   5.329   6.582   5.502
 4824TIP3   OH214435   4.213   2.619   0.677
 4824TIP3    H114436   4.279   2.594   0.612
 4824TIP3    H214437   4.261   2.626   0.759
 4825TIP3   OH214438   5.030   0.222   2.320
 4825TIP3    H114439   4.958   0.167   2.349
 4825TIP3    H214440   5.084   0.164   2.266
 4826TIP3   OH214441   0.842   3.011   4.566
 4826TIP3    H114442   0.913   3.052   4.516
 4826TIP3    H214443   0.886   2.945   4.620
 4827TIP3   OH214444   2.330   4.291   2.151
 4827TIP3    H114445   2.419   4.322   2.167
 4827TIP3    H214446   2.286   4.364   2.108
 4828TIP3   OH214447   3.329   3.400   2.637
 4828TIP3    H114448   3.362   3.394   2.727
 4828TIP3    H214449   3.241   3.436   2.647
 4829TIP3   OH214450   5.774   5.979   0.050
 4829TIP3    H114451   5.754   6.037  -0.023
 4829TIP3    H214452   5.724   5.900   0.033
 4830TIP3   OH214453   0.588   4.842   5.348
 4830TIP3    H114454   0.514   4.813   5.401
 4830TIP3    H214455   0.649   4.881   5.410
 4831TIP3   OH214456   2.966   1.980   2.745
 4831TIP3    H114457   3.027   1.917   2.707
 4831TIP3    H214458   2.881   1.938   2.739
 4832TIP3   OH214459   0.144   4.690   4.383
 4832TIP3    H114460   0.119   4.617   4.326
 4832TIP3    H214461   0.094   4.676   4.463
 4833TIP3   OH214462   4.699   4.586   1.100
 4833TIP3    H114463   4.757   4.662   1.110
 4833TIP3    H214464   4.611   4.621   1.110
 4834TIP3   OH214465   0.574   4.402   2.485
 4834TIP3    H114466   0.514   4.402   2.560
 4834TIP3    H214467   0.607   4.312   2.481
 4835TIP3   OH214468   6.449   1.279   5.304
 4835TIP3    H114469   6.442   1.344   5.234
 4835TIP3    H214470   6.420   1.326   5.383
 4836TIP3   OH214471   1.087   2.717   2.890
 4836TIP3    H114472   1.071   2.811   2.881
 4836TIP3    H214473   1.073   2.699   2.983
 4837TIP3   OH214474   4.200   1.783   5.013
 4837TIP3    H114475   4.170   1.724   5.082
 4837TIP3    H214476   4.222   1.864   5.059
 4838TIP3   OH214477   2.586   4.355   1.800
 4838TIP3    H114478   2.557   4.320   1.716
 4838TIP3    H214479   2.554   4.292   1.865
 4839TIP3   OH214480   5.131   4.013   4.008
 4839TIP3    H114481   5.048   3.973   4.034
 4839TIP3    H214482   5.111   4.064   3.930
 4840TIP3   OH214483   0.666   2.744   1.737
 4840TIP3    H114484   0.612   2.666   1.751
 4840TIP3    H214485   0.608   2.817   1.759
 4841TIP3   OH214486   5.513   1.638   1.875
 4841TIP3    H114487   5.542   1.547   1.876
 4841TIP3    H214488   5.446   1.642   1.807
 4842TIP3   OH214489   3.471   2.275   0.963
 4842TIP3    H114490   3.415   2.312   0.895
 4842TIP3    H214491   3.423   2.198   0.994
 4843TIP3   OH214492   3.565   0.445   2.754
 4843TIP3    H114493   3.551   0.444   2.659
 4843TIP3    H214494   3.504   0.510   2.787
 4844TIP3   OH214495   6.784   0.351   1.880
 4844TIP3    H114496   6.713   0.371   1.820
 4844TIP3    H214497   6.864   0.373   1.832
 4845TIP3   OH214498   1.670   6.662   2.715
 4845TIP3    H114499   1.732   6.729   2.741
 4845TIP3    H214500   1.641   6.688   2.628
 4846TIP3   OH214501   0.089   4.132   1.467
 4846TIP3    H114502   0.156   4.173   1.412
 4846TIP3    H214503   0.055   4.060   1.414
 4847TIP3   OH214504   7.015   6.825   3.476
 4847TIP3    H114505   6.953   6.754   3.464
 4847TIP3    H214506   7.065   6.827   3.394
 4848TIP3   OH214507   5.919   2.535   1.586
 4848TIP3    H114508   5.997   2.481   1.577
 4848TIP3    H214509   5.947   2.623   1.562
 4849TIP3   OH214510   2.090   4.036   3.142
 4849TIP3    H114511   2.061   4.123   3.168
 4849TIP3    H214512   2.170   4.021   3.193
 4850TIP3   OH214513   5.614   3.310   0.431
 4850TIP3    H114514   5.566   3.267   0.502
 4850TIP3    H214515   5.557   3.381   0.404
 4851TIP3   OH214516   4.192   6.001   1.833
 4851TIP3    H114517   4.165   6.035   1.918
 4851TIP3    H214518   4.243   6.072   1.794
 4852TIP3   OH214519   2.878   1.180   5.089
 4852TIP3    H114520   2.843   1.231   5.016
 4852TIP3    H214521   2.907   1.098   5.050
 4853TIP3   OH214522   0.283   0.974   5.563
 4853TIP3    H114523   0.280   1.009   5.653
 4853TIP3    H214524   0.375   0.978   5.539
 4854TIP3   OH214525   7.132   2.775   5.578
 4854TIP3    H114526   7.215   2.794   5.623
 4854TIP3    H214527   7.067   2.775   5.649
 4855TIP3   OH214528   0.118   2.052   0.093
 4855TIP3    H114529   0.203   2.057   0.138
 4855TIP3    H214530   0.140   2.057   0.000
 4856TIP3   OH214531   2.955   3.691   0.008
 4856TIP3    H114532   2.946   3.611   0.061
 4856TIP3    H214533   2.954   3.660  -0.082
 4857TIP3   OH214534   3.809   4.588   2.984
 4857TIP3    H114535   3.739   4.611   3.045
 4857TIP3    H214536   3.801   4.493   2.972
 4858TIP3   OH214537   1.262   4.927   3.647
 4858TIP3    H114538   1.357   4.921   3.655
 4858TIP3    H214539   1.238   4.855   3.589
 4859TIP3   OH214540   2.224   5.279   5.210
 4859TIP3    H114541   2.299   5.227   5.181
 4859TIP3    H214542   2.162   5.215   5.245
 4860TIP3   OH214543   2.952   0.057   5.750
 4860TIP3    H114544   2.884   0.123   5.743
 4860TIP3    H214545   2.957   0.038   5.844
 4861TIP3   OH214546   5.377   4.247   2.575
 4861TIP3    H114547   5.458   4.231   2.622
 4861TIP3    H214548   5.356   4.339   2.592
 4862TIP3   OH214549   6.744   4.379   2.279
 4862TIP3    H114550   6.792   4.459   2.258
 4862TIP3    H214551   6.805   4.327   2.330
 4863TIP3   OH214552   6.537   0.405   5.537
 4863TIP3    H114553   6.526   0.411   5.442
 4863TIP3    H214554   6.631   0.403   5.550
 4864TIP3   OH214555  -0.028   6.439   4.799
 4864TIP3    H114556   0.054   6.407   4.763
 4864TIP3    H214557  -0.005   6.521   4.842
 4865TIP3   OH214558   6.429   3.994   1.408
 4865TIP3    H114559   6.487   3.961   1.477
 4865TIP3    H214560   6.366   3.923   1.394
 4866TIP3   OH214561   2.088   1.704   1.679
 4866TIP3    H114562   2.177   1.723   1.706
 4866TIP3    H214563   2.035   1.721   1.757
 4867TIP3   OH214564   2.407   2.507   4.078
 4867TIP3    H114565   2.429   2.597   4.056
 4867TIP3    H214566   2.419   2.459   3.996
 4868TIP3   OH214567   3.781   3.446   1.295
 4868TIP3    H114568   3.794   3.382   1.226
 4868TIP3    H214569   3.820   3.527   1.261
 4869TIP3   OH214570   5.868   2.038   2.059
 4869TIP3    H114571   5.784   2.038   2.012
 4869TIP3    H214572   5.871   2.123   2.102
 4870TIP3   OH214573   5.586   2.603   5.851
 4870TIP3    H114574   5.592   2.658   5.773
 4870TIP3    H214575   5.667   2.620   5.899
 4871TIP3   OH214576   2.797   1.123   3.100
 4871TIP3    H114577   2.816   1.031   3.084
 4871TIP3    H214578   2.826   1.169   3.021
 4872TIP3   OH214579   1.416   6.669   2.968
 4872TIP3    H114580   1.416   6.716   3.052
 4872TIP3    H214581   1.507   6.644   2.955
 4873TIP3   OH214582   5.015   4.025   3.105
 4873TIP3    H114583   4.924   4.029   3.135
 4873TIP3    H214584   5.064   4.077   3.169
 4874TIP3   OH214585   1.882   4.523   5.474
 4874TIP3    H114586   1.962   4.503   5.523
 4874TIP3    H214587   1.851   4.606   5.510
 4875TIP3   OH214588   1.914   0.035   0.153
 4875TIP3    H114589   1.887   0.126   0.163
 4875TIP3    H214590   1.833  -0.012   0.134
 4876TIP3   OH214591   5.247   6.307   2.564
 4876TIP3    H114592   5.278   6.254   2.637
 4876TIP3    H214593   5.234   6.245   2.492
 4877TIP3   OH214594   4.452   5.021   0.905
 4877TIP3    H114595   4.384   4.956   0.889
 4877TIP3    H214596   4.534   4.976   0.885
 4878TIP3   OH214597   4.380   4.391   3.517
 4878TIP3    H114598   4.295   4.346   3.521
 4878TIP3    H214599   4.361   4.471   3.468
 4879TIP3   OH214600   5.148   2.643   3.789
 4879TIP3    H114601   5.058   2.614   3.772
 4879TIP3    H214602   5.155   2.644   3.884
 4880TIP3   OH214603   0.656   6.441   3.019
 4880TIP3    H114604   0.584   6.421   3.078
 4880TIP3    H214605   0.688   6.526   3.047
 4881TIP3   OH214606   4.850   5.247   0.403
 4881TIP3    H114607   4.823   5.229   0.313
 4881TIP3    H214608   4.786   5.202   0.457
 4882TIP3   OH214609   4.306   6.143   3.731
 4882TIP3    H114610   4.220   6.115   3.699
 4882TIP3    H214611   4.368   6.099   3.674
 4883TIP3   OH214612   2.583   0.167   3.826
 4883TIP3    H114613   2.564   0.243   3.772
 4883TIP3    H214614   2.534   0.095   3.785
 4884TIP3   OH214615   1.090   0.099   2.343
 4884TIP3    H114616   1.121   0.135   2.426
 4884TIP3    H214617   1.127   0.011   2.339
 4885TIP3   OH214618   3.586   0.595   3.237
 4885TIP3    H114619   3.497   0.562   3.251
 4885TIP3    H214620   3.605   0.648   3.314
 4886TIP3   OH214621   1.194   4.085   2.727
 4886TIP3    H114622   1.125   4.077   2.793
 4886TIP3    H214623   1.242   4.163   2.752
 4887TIP3   OH214624   0.557   1.593   4.617
 4887TIP3    H114625   0.512   1.510   4.603
 4887TIP3    H214626   0.650   1.572   4.604
 4888TIP3   OH214627   5.701   4.391   1.772
 4888TIP3    H114628   5.671   4.450   1.841
 4888TIP3    H214629   5.746   4.320   1.819
 4889TIP3   OH214630   1.872   3.984   4.135
 4889TIP3    H114631   1.915   3.948   4.057
 4889TIP3    H214632   1.923   3.948   4.208
 4890TIP3   OH214633   0.119   2.534   3.058
 4890TIP3    H114634   0.089   2.497   3.140
 4890TIP3    H214635   0.079   2.621   3.054
 4891TIP3   OH214636   3.566   4.865   4.515
 4891TIP3    H114637   3.473   4.880   4.529
 4891TIP3    H214638   3.580   4.884   4.422
 4892TIP3   OH214639   3.636   0.411   1.081
 4892TIP3    H114640   3.566   0.443   1.023
 4892TIP3    H214641   3.639   0.476   1.152
 4893TIP3   OH214642   1.075   4.033   4.140
 4893TIP3    H114643   1.114   4.119   4.156
 4893TIP3    H214644   1.141   3.986   4.089
 4894TIP3   OH214645   2.555   5.568   2.283
 4894TIP3    H114646   2.642   5.567   2.244
 4894TIP3    H214647   2.567   5.609   2.369
 4895TIP3   OH214648   5.609   5.774   5.081
 4895TIP3    H114649   5.579   5.735   4.998
 4895TIP3    H214650   5.552   5.850   5.093
 4896TIP3   OH214651   3.754   3.021   4.461
 4896TIP3    H114652   3.671   3.065   4.479
 4896TIP3    H214653   3.730   2.930   4.445
 4897TIP3   OH214654   2.197   2.800   4.852
 4897TIP3    H114655   2.155   2.835   4.774
 4897TIP3    H214656   2.213   2.708   4.831
 4898TIP3   OH214657   1.175   2.212   0.467
 4898TIP3    H114658   1.185   2.220   0.562
 4898TIP3    H214659   1.095   2.261   0.447
 4899TIP3   OH214660   0.346   2.103   0.284
 4899TIP3    H114661   0.408   2.166   0.319
 4899TIP3    H214662   0.391   2.064   0.209
 4900TIP3   OH214663   3.563   4.581   4.392
 4900TIP3    H114664   3.560   4.666   4.436
 4900TIP3    H214665   3.541   4.600   4.301
 4901TIP3   OH214666   5.802   4.334  -0.014
 4901TIP3    H114667   5.709   4.353  -0.005
 4901TIP3    H214668   5.817   4.260   0.045
 4902TIP3   OH214669   7.202   5.346   2.200
 4902TIP3    H114670   7.247   5.420   2.160
 4902TIP3    H214671   7.139   5.317   2.134
 4903TIP3   OH214672   0.388   5.814   3.083
 4903TIP3    H114673   0.433   5.786   3.163
 4903TIP3    H214674   0.321   5.747   3.068
 4904TIP3   OH214675   2.948   5.641   5.024
 4904TIP3    H114676   2.994   5.575   5.076
 4904TIP3    H214677   2.889   5.684   5.086
 4905TIP3   OH214678   0.341   6.209   4.125
 4905TIP3    H114679   0.386   6.155   4.060
 4905TIP3    H214680   0.407   6.272   4.154
 4906TIP3   OH214681   0.572   3.181   4.997
 4906TIP3    H114682   0.599   3.263   5.039
 4906TIP3    H214683   0.653   3.145   4.962
 4907TIP3   OH214684   6.170   6.597   1.769
 4907TIP3    H114685   6.233   6.555   1.710
 4907TIP3    H214686   6.095   6.537   1.771
 4908TIP3   OH214687   5.449   5.045   4.909
 4908TIP3    H114688   5.505   4.968   4.917
 4908TIP3    H214689   5.501   5.116   4.945
 4909TIP3   OH214690   0.380   3.451   1.353
 4909TIP3    H114691   0.458   3.506   1.343
 4909TIP3    H214692   0.371   3.438   1.447
 4910TIP3   OH214693   4.726   5.783   0.901
 4910TIP3    H114694   4.688   5.707   0.857
 4910TIP3    H214695   4.651   5.832   0.933
 4911TIP3   OH214696   0.409   3.102   4.495
 4911TIP3    H114697   0.494   3.120   4.536
 4911TIP3    H214698   0.345   3.117   4.564
 4912TIP3   OH214699   6.037   5.350   2.357
 4912TIP3    H114700   6.022   5.425   2.300
 4912TIP3    H214701   5.975   5.362   2.429
 4913TIP3   OH214702   6.254   3.911   4.579
 4913TIP3    H114703   6.316   3.978   4.551
 4913TIP3    H214704   6.214   3.947   4.658
 4914TIP3   OH214705   7.063   4.076   1.059
 4914TIP3    H114706   6.980   4.099   1.017
 4914TIP3    H214707   7.129   4.085   0.990
 4915TIP3   OH214708   4.455   0.397   4.755
 4915TIP3    H114709   4.372   0.375   4.713
 4915TIP3    H214710   4.429   0.433   4.841
 4916TIP3   OH214711   6.961   2.408   4.146
 4916TIP3    H114712   7.055   2.398   4.161
 4916TIP3    H214713   6.928   2.319   4.138
 4917TIP3   OH214714   1.577   1.642   2.732
 4917TIP3    H114715   1.580   1.566   2.790
 4917TIP3    H214716   1.623   1.614   2.653
 4918TIP3   OH214717   0.179   6.665   0.740
 4918TIP3    H114718   0.210   6.740   0.791
 4918TIP3    H214719   0.118   6.619   0.798
 4919TIP3   OH214720   5.365   3.785   0.759
 4919TIP3    H114721   5.323   3.755   0.840
 4919TIP3    H214722   5.299   3.840   0.716
 4920TIP3   OH214723   3.559   4.181   3.818
 4920TIP3    H114724   3.490   4.200   3.755
 4920TIP3    H214725   3.637   4.223   3.781
 4921TIP3   OH214726   2.398   0.776   0.503
 4921TIP3    H114727   2.399   0.707   0.436
 4921TIP3    H214728   2.421   0.856   0.455
 4922TIP3   OH214729   3.539   4.907   0.187
 4922TIP3    H114730   3.480   4.979   0.164
 4922TIP3    H214731   3.506   4.832   0.137
 4923TIP3   OH214732   2.158   1.979   1.634
 4923TIP3    H114733   2.217   1.960   1.707
 4923TIP3    H214734   2.196   1.932   1.559
 4924TIP3   OH214735   1.985   2.258   5.673
 4924TIP3    H114736   2.062   2.276   5.728
 4924TIP3    H214737   1.931   2.200   5.726
 4925TIP3   OH214738   7.161   1.072   0.051
 4925TIP3    H114739   7.126   1.018   0.122
 4925TIP3    H214740   7.250   1.093   0.079
 4926TIP3   OH214741   2.723   4.857   0.055
 4926TIP3    H114742   2.816   4.871   0.074
 4926TIP3    H214743   2.722   4.788  -0.011
 4927TIP3   OH214744   5.861   1.275   1.722
 4927TIP3    H114745   5.884   1.334   1.650
 4927TIP3    H214746   5.869   1.188   1.685
 4928TIP3   OH214747   3.581   2.693   3.162
 4928TIP3    H114748   3.495   2.729   3.184
 4928TIP3    H214749   3.642   2.740   3.219
 4929TIP3   OH214750   2.695   5.043   5.829
 4929TIP3    H114751   2.748   5.058   5.908
 4929TIP3    H214752   2.639   4.969   5.852
 4930TIP3   OH214753   5.535   1.215   3.933
 4930TIP3    H114754   5.530   1.303   3.896
 4930TIP3    H214755   5.514   1.157   3.860
 4931TIP3   OH214756   3.853   2.745   2.891
 4931TIP3    H114757   3.923   2.809   2.879
 4931TIP3    H214758   3.883   2.667   2.844
 4932TIP3   OH214759   0.394   3.921   1.033
 4932TIP3    H114760   0.322   3.859   1.033
 4932TIP3    H214761   0.362   3.996   0.983
 4933TIP3   OH214762   3.167   6.032   3.898
 4933TIP3    H114763   3.262   6.029   3.889
 4933TIP3    H214764   3.141   5.940   3.910
 4934TIP3   OH214765   2.142   2.727   3.431
 4934TIP3    H114766   2.097   2.678   3.362
 4934TIP3    H214767   2.231   2.693   3.431
 4935TIP3   OH214768   5.779   0.334   1.871
 4935TIP3    H114769   5.799   0.329   1.964
 4935TIP3    H214770   5.753   0.425   1.857
 4936TIP3   OH214771   1.486   5.864   3.041
 4936TIP3    H114772   1.466   5.773   3.019
 4936TIP3    H214773   1.462   5.914   2.963
 4937TIP3   OH214774   1.862   6.289   2.245
 4937TIP3    H114775   1.805   6.226   2.202
 4937TIP3    H214776   1.910   6.237   2.311
 4938TIP3   OH214777   6.109   1.175   1.434
 4938TIP3    H114778   6.137   1.095   1.390
 4938TIP3    H214779   6.149   1.170   1.521
 4939TIP3   OH214780   2.117   4.159   0.092
 4939TIP3    H114781   2.198   4.195   0.127
 4939TIP3    H214782   2.098   4.213   0.016
 4940TIP3   OH214783   0.111   5.047   1.703
 4940TIP3    H114784   0.186   4.990   1.683
 4940TIP3    H214785   0.111   5.112   1.633
 4941TIP3   OH214786   1.132   1.158   3.200
 4941TIP3    H114787   1.225   1.137   3.211
 4941TIP3    H214788   1.103   1.181   3.288
 4942TIP3   OH214789   5.440   2.097   4.801
 4942TIP3    H114790   5.510   2.096   4.866
 4942TIP3    H214791   5.430   2.189   4.777
 4943TIP3   OH214792   4.623   0.549   1.180
 4943TIP3    H114793   4.550   0.489   1.166
 4943TIP3    H214794   4.623   0.567   1.274
 4944TIP3   OH214795   0.452   0.302   5.161
 4944TIP3    H114796   0.488   0.366   5.099
 4944TIP3    H214797   0.430   0.355   5.238
 4945TIP3   OH214798   1.265   2.310   4.273
 4945TIP3    H114799   1.238   2.286   4.362
 4945TIP3    H214800   1.250   2.232   4.221
 4946TIP3   OH214801   2.439   1.572   3.816
 4946TIP3    H114802   2.453   1.632   3.743
 4946TIP3    H214803   2.499   1.602   3.884
 4947TIP3   OH214804   5.122   0.867   4.860
 4947TIP3    H114805   5.109   0.908   4.945
 4947TIP3    H214806   5.046   0.892   4.809
 4948TIP3   OH214807   1.139   1.287   2.386
 4948TIP3    H114808   1.204   1.223   2.414
 4948TIP3    H214809   1.059   1.261   2.430
 4949TIP3   OH214810   4.803   3.426   4.342
 4949TIP3    H114811   4.835   3.435   4.253
 4949TIP3    H214812   4.831   3.507   4.386
 4950TIP3   OH214813   4.129   1.231   3.784
 4950TIP3    H114814   4.051   1.229   3.728
 4950TIP3    H214815   4.095   1.252   3.871
 4951TIP3   OH214816   1.003   4.915   1.158
 4951TIP3    H114817   1.024   4.841   1.216
 4951TIP3    H214818   0.936   4.880   1.099
 4952TIP3   OH214819   1.335   5.492   0.326
 4952TIP3    H114820   1.379   5.561   0.376
 4952TIP3    H214821   1.249   5.483   0.367
 4953TIP3   OH214822   0.771   4.949   5.517
 4953TIP3    H114823   0.858   4.963   5.480
 4953TIP3    H214824   0.734   5.037   5.523
 4954TIP3   OH214825   3.688   5.959   1.565
 4954TIP3    H114826   3.768   6.011   1.573
 4954TIP3    H214827   3.709   5.875   1.604
 4955TIP3   OH214828   0.234   3.254   3.163
 4955TIP3    H114829   0.324   3.225   3.149
 4955TIP3    H214830   0.182   3.174   3.156
 4956TIP3   OH214831   1.655   6.064   3.027
 4956TIP3    H114832   1.745   6.089   3.049
 4956TIP3    H214833   1.644   5.978   3.068
 4957TIP3   OH214834   3.278   3.978   5.637
 4957TIP3    H114835   3.235   4.059   5.664
 4957TIP3    H214836   3.372   3.998   5.640
 4958TIP3   OH214837   3.933   2.271   3.585
 4958TIP3    H114838   3.874   2.226   3.525
 4958TIP3    H214839   3.994   2.204   3.615
 4959TIP3   OH214840   4.422   1.396   3.517
 4959TIP3    H114841   4.406   1.416   3.425
 4959TIP3    H214842   4.341   1.421   3.561
 4960TIP3   OH214843   6.510   1.681   4.420
 4960TIP3    H114844   6.493   1.763   4.373
 4960TIP3    H214845   6.571   1.633   4.364
 4961TIP3   OH214846   0.791   5.668   3.910
 4961TIP3    H114847   0.842   5.624   3.842
 4961TIP3    H214848   0.848   5.669   3.986
 4962TIP3   OH214849   2.144   6.256   1.052
 4962TIP3    H114850   2.193   6.227   0.975
 4962TIP3    H214851   2.059   6.212   1.044
 4963TIP3   OH214852   4.760   4.381   3.369
 4963TIP3    H114853   4.842   4.347   3.332
 4963TIP3    H214854   4.692   4.323   3.336
 4964TIP3   OH214855   1.315   5.908   2.514
 4964TIP3    H114856   1.249   5.840   2.528
 4964TIP3    H214857   1.318   5.920   2.420
 4965TIP3   OH214858   7.021   0.711   5.534
 4965TIP3    H114859   6.947   0.756   5.493
 4965TIP3    H214860   7.025   0.626   5.491
 4966TIP3   OH214861   6.707   3.992   2.396
 4966TIP3    H114862   6.710   3.899   2.371
 4966TIP3    H214863   6.715   3.991   2.492
 4967TIP3   OH214864   4.637   2.168   1.101
 4967TIP3    H114865   4.605   2.081   1.078
 4967TIP3    H214866   4.687   2.197   1.025
 4968TIP3   OH214867   4.655   4.199   3.700
 4968TIP3    H114868   4.626   4.149   3.776
 4968TIP3    H214869   4.657   4.290   3.731
 4969TIP3   OH214870   6.228   5.737   0.646
 4969TIP3    H114871   6.260   5.670   0.587
 4969TIP3    H214872   6.303   5.794   0.663
 4970TIP3   OH214873   0.795   3.841   3.797
 4970TIP3    H114874   0.724   3.816   3.857
 4970TIP3    H214875   0.800   3.936   3.805
 4971TIP3   OH214876   2.419   0.899   5.138
 4971TIP3    H114877   2.387   0.985   5.165
 4971TIP3    H214878   2.375   0.837   5.196
 4972TIP3   OH214879   6.564   0.077   0.157
 4972TIP3    H114880   6.571   0.051   0.065
 4972TIP3    H214881   6.506   0.013   0.196
 4973TIP3   OH214882   2.357   2.246   3.490
 4973TIP3    H114883   2.427   2.287   3.438
 4973TIP3    H214884   2.361   2.292   3.574
 4974TIP3   OH214885   2.057   1.964   4.435
 4974TIP3    H114886   1.971   1.969   4.394
 4974TIP3    H214887   2.042   1.994   4.525
 4975TIP3   OH214888   3.961   2.117   5.160
 4975TIP3    H114889   4.008   2.060   5.099
 4975TIP3    H214890   3.931   2.190   5.106
 4976TIP3   OH214891   6.181   1.124   1.883
 4976TIP3    H114892   6.215   1.096   1.968
 4976TIP3    H214893   6.103   1.175   1.904
 4977TIP3   OH214894   5.254   6.534   0.569
 4977TIP3    H114895   5.284   6.451   0.606
 4977TIP3    H214896   5.305   6.601   0.615
 4978TIP3   OH214897   2.102   0.067   5.700
 4978TIP3    H114898   2.151   0.146   5.724
 4978TIP3    H214899   2.014   0.098   5.679
 4979TIP3   OH214900   4.296   6.702   5.860
 4979TIP3    H114901   4.350   6.636   5.816
 4979TIP3    H214902   4.325   6.785   5.823
 4980TIP3   OH214903   3.264   3.722   4.549
 4980TIP3    H114904   3.260   3.758   4.638
 4980TIP3    H214905   3.225   3.790   4.495
 4981TIP3   OH214906   6.458   3.821   2.029
 4981TIP3    H114907   6.374   3.851   2.062
 4981TIP3    H214908   6.473   3.737   2.074
 4982TIP3   OH214909   2.177   2.460   2.209
 4982TIP3    H114910   2.230   2.484   2.133
 4982TIP3    H214911   2.108   2.526   2.213
 4983TIP3   OH214912   5.887   1.071   2.940
 4983TIP3    H114913   5.824   1.102   2.875
 4983TIP3    H214914   5.882   0.976   2.935
 4984TIP3   OH214915   3.353   3.031   0.197
 4984TIP3    H114916   3.371   2.988   0.113
 4984TIP3    H214917   3.420   3.099   0.204
 4985TIP3   OH214918   4.859   4.073   3.904
 4985TIP3    H114919   4.861   4.159   3.945
 4985TIP3    H214920   4.847   4.091   3.810
 4986TIP3   OH214921   7.103   0.197   5.766
 4986TIP3    H114922   7.152   0.132   5.817
 4986TIP3    H214923   7.142   0.193   5.679
 4987TIP3   OH214924   1.848   5.618   2.568
 4987TIP3    H114925   1.815   5.696   2.612
 4987TIP3    H214926   1.943   5.628   2.568
 4988TIP3   OH214927   1.323   3.959   2.528
 4988TIP3    H114928   1.261   4.008   2.583
 4988TIP3    H214929   1.408   3.971   2.571
 4989TIP3   OH214930   0.148   0.371   1.331
 4989TIP3    H114931   0.059   0.340   1.349
 4989TIP3    H214932   0.203   0.293   1.340
 4990TIP3   OH214933   4.684   2.664   2.460
 4990TIP3    H114934   4.628   2.719   2.406
 4990TIP3    H214935   4.698   2.585   2.408
 4991TIP3   OH214936   3.249   5.713   2.026
 4991TIP3    H114937   3.190   5.671   1.962
 4991TIP3    H214938   3.223   5.805   2.026
 4992TIP3   OH214939   6.545   3.177   5.597
 4992TIP3    H114940   6.612   3.189   5.529
 4992TIP3    H214941   6.485   3.250   5.583
 4993TIP3   OH214942   3.237   0.421   5.470
 4993TIP3    H114943   3.165   0.363   5.447
 4993TIP3    H214944   3.207   0.468   5.548
 4994TIP3   OH214945   6.181   5.229   3.451
 4994TIP3    H114946   6.187   5.160   3.516
 4994TIP3    H214947   6.129   5.191   3.380
 4995TIP3   OH214948   0.652   2.829   3.808
 4995TIP3    H114949   0.701   2.751   3.781
 4995TIP3    H214950   0.622   2.868   3.726
 4996TIP3   OH214951   6.078   4.745   0.921
 4996TIP3    H114952   6.021   4.797   0.864
 4996TIP3    H214953   6.064   4.655   0.894
 4997TIP3   OH214954   4.650   5.390   5.385
 4997TIP3    H114955   4.608   5.468   5.350
 4997TIP3    H214956   4.578   5.328   5.398
 4998TIP3   OH214957   2.556   3.704   4.423
 4998TIP3    H114958   2.474   3.751   4.412
 4998TIP3    H214959   2.614   3.740   4.355
 4999TIP3   OH214960   3.621   6.203   1.135
 4999TIP3    H114961   3.547   6.144   1.145
 4999TIP3    H214962   3.584   6.285   1.103
 5000TIP3   OH214963   3.401   2.715   2.695
 5000TIP3    H114964   3.349   2.658   2.751
 5000TIP3    H214965   3.425   2.789   2.750
 5001TIP3   OH214966   3.844   0.318   2.309
 5001TIP3    H114967   3.782   0.296   2.239
 5001TIP3    H214968   3.838   0.245   2.371
 5002TIP3   OH214969   3.403   2.847   2.147
 5002TIP3    H114970   3.411   2.835   2.242
 5002TIP3    H214971   3.485   2.813   2.111
 5003TIP3   OH214972   6.242   1.651   3.755
 5003TIP3    H114973   6.200   1.571   3.722
 5003TIP3    H214974   6.276   1.626   3.841
 5004TIP3   OH214975   3.198   0.414   0.788
 5004TIP3    H114976   3.134   0.472   0.829
 5004TIP3    H214977   3.170   0.410   0.696
 5005TIP3   OH214978   4.205   1.501   3.664
 5005TIP3    H114979   4.120   1.477   3.700
 5005TIP3    H214980   4.263   1.502   3.740
 5006TIP3   OH214981   4.597   2.490   1.076
 5006TIP3    H114982   4.554   2.495   1.161
 5006TIP3    H214983   4.620   2.397   1.066
 5007TIP3   OH214984   2.335   4.595   2.500
 5007TIP3    H114985   2.412   4.633   2.457
 5007TIP3    H214986   2.328   4.507   2.464
 5008TIP3   OH214987   2.789   4.598   2.992
 5008TIP3    H114988   2.717   4.591   3.055
 5008TIP3    H214989   2.801   4.509   2.960
 5009TIP3   OH214990   0.853   2.353   3.861
 5009TIP3    H114991   0.844   2.267   3.821
 5009TIP3    H214992   0.915   2.340   3.933
 5010TIP3   OH214993   0.435   1.735   4.817
 5010TIP3    H114994   0.491   1.683   4.759
 5010TIP3    H214995   0.429   1.820   4.774
 5011TIP3   OH214996   1.921   6.686   4.131
 5011TIP3    H114997   1.892   6.767   4.173
 5011TIP3    H214998   1.946   6.711   4.042
 5012TIP3   OH214999   1.690   5.004   4.137
 5012TIP3    H115000   1.739   4.962   4.207
 5012TIP3    H215001   1.714   4.956   4.058
 5013TIP3   OH215002   6.451   2.427   4.308
 5013TIP3    H115003   6.434   2.503   4.252
 5013TIP3    H215004   6.496   2.463   4.384
 5014TIP3   OH215005   5.109   0.276   2.955
 5014TIP3    H115006   5.182   0.304   3.010
 5014TIP3    H215007   5.030   0.301   3.003
 5015TIP3   OH215008   4.992   2.853   0.635
 5015TIP3    H115009   4.975   2.847   0.729
 5015TIP3    H215010   4.912   2.890   0.597
 5016TIP3   OH215011   6.048   6.031   3.692
 5016TIP3    H115012   6.121   5.973   3.711
 5016TIP3    H215013   6.088   6.111   3.659
 5017TIP3   OH215014   0.383   0.145   0.303
 5017TIP3    H115015   0.378   0.212   0.235
 5017TIP3    H215016   0.411   0.192   0.382
 5018TIP3   OH215017   0.099   3.414   4.456
 5018TIP3    H115018   0.143   3.483   4.407
 5018TIP3    H215019   0.107   3.441   4.548
 5019TIP3   OH215020   4.666   5.405   0.185
 5019TIP3    H115021   4.711   5.323   0.167
 5019TIP3    H215022   4.733   5.472   0.172
 5020TIP3   OH215023   1.049   4.935   2.753
 5020TIP3    H115024   1.037   4.985   2.833
 5020TIP3    H215025   0.967   4.945   2.705
 5021TIP3   OH215026   3.657   3.025   3.735
 5021TIP3    H115027   3.702   3.101   3.772
 5021TIP3    H215028   3.614   3.058   3.657
 5022TIP3   OH215029   4.880   3.830   5.777
 5022TIP3    H115030   4.872   3.780   5.858
 5022TIP3    H215031   4.820   3.788   5.716
 5023TIP3   OH215032   5.290   4.754   5.827
 5023TIP3    H115033   5.377   4.719   5.848
 5023TIP3    H215034   5.267   4.713   5.743
 5024TIP3   OH215035   4.828   4.305   4.103
 5024TIP3    H115036   4.796   4.257   4.179
 5024TIP3    H215037   4.814   4.397   4.125
 5025TIP3   OH215038   0.567   1.338   4.943
 5025TIP3    H115039   0.510   1.263   4.960
 5025TIP3    H215040   0.513   1.415   4.961
 5026TIP3   OH215041   2.583   0.199   4.930
 5026TIP3    H115042   2.677   0.189   4.944
 5026TIP3    H215043   2.545   0.192   5.017
 5027TIP3   OH215044   1.361   5.086   3.294
 5027TIP3    H115045   1.382   5.013   3.237
 5027TIP3    H215046   1.360   5.163   3.237
 5028TIP3   OH215047   0.301   3.356   2.811
 5028TIP3    H115048   0.333   3.408   2.737
 5028TIP3    H215049   0.287   3.420   2.881
 5029TIP3   OH215050   6.837   6.054   3.066
 5029TIP3    H115051   6.927   6.056   3.035
 5029TIP3    H215052   6.786   6.093   2.995
 5030TIP3   OH215053   6.484   3.201   3.692
 5030TIP3    H115054   6.579   3.193   3.693
 5030TIP3    H215055   6.467   3.295   3.682
 5031TIP3   OH215056   2.689   6.271   3.165
 5031TIP3    H115057   2.616   6.332   3.158
 5031TIP3    H215058   2.707   6.244   3.075
 5032TIP3   OH215059   3.400   1.354   5.223
 5032TIP3    H115060   3.367   1.303   5.298
 5032TIP3    H215061   3.322   1.379   5.175
 5033TIP3   OH215062   5.213   5.566   4.451
 5033TIP3    H115063   5.165   5.594   4.529
 5033TIP3    H215064   5.159   5.497   4.413
 5034TIP3   OH215065   2.326   3.982   1.362
 5034TIP3    H115066   2.311   3.999   1.455
 5034TIP3    H215067   2.354   3.890   1.358
 5035TIP3   OH215068   4.297   5.854   0.601
 5035TIP3    H115069   4.363   5.801   0.557
 5035TIP3    H215070   4.245   5.891   0.529
 5036TIP3   OH215071   2.823   3.537   4.467
 5036TIP3    H115072   2.729   3.520   4.469
 5036TIP3    H215073   2.861   3.471   4.526
 5037TIP3   OH215074   6.412   5.953   0.709
 5037TIP3    H115075   6.498   5.985   0.685
 5037TIP3    H215076   6.409   5.961   0.805
 5038TIP3   OH215077   0.177   1.943   4.210
 5038TIP3    H115078   0.144   1.903   4.290
 5038TIP3    H215079   0.241   2.007   4.240
 5039TIP3   OH215080   3.059   2.211   2.497
 5039TIP3    H115081   3.097   2.254   2.421
 5039TIP3    H215082   3.081   2.119   2.486
 5040TIP3   OH215083   0.953   1.535   4.127
 5040TIP3    H115084   0.872   1.493   4.098
 5040TIP3    H215085   0.989   1.475   4.192
 5041TIP3   OH215086   6.402   5.578   1.543
 5041TIP3    H115087   6.363   5.491   1.534
 5041TIP3    H215088   6.454   5.573   1.624
 5042TIP3   OH215089   6.949   1.500   2.837
 5042TIP3    H115090   6.966   1.567   2.771
 5042TIP3    H215091   6.857   1.478   2.826
 5043TIP3   OH215092   6.675   5.308   1.031
 5043TIP3    H115093   6.730   5.260   1.092
 5043TIP3    H215094   6.586   5.290   1.060
 5044TIP3   OH215095   5.192   2.267   3.258
 5044TIP3    H115096   5.112   2.219   3.235
 5044TIP3    H215097   5.202   2.251   3.352
 5045TIP3   OH215098   6.787   5.558   5.246
 5045TIP3    H115099   6.723   5.626   5.228
 5045TIP3    H215100   6.744   5.500   5.309
 5046TIP3   OH215101   1.770   1.781   3.083
 5046TIP3    H115102   1.701   1.818   3.137
 5046TIP3    H215103   1.733   1.779   2.995
 5047TIP3   OH215104   0.219   0.364   4.546
 5047TIP3    H115105   0.154   0.326   4.606
 5047TIP3    H215106   0.274   0.419   4.601
 5048TIP3   OH215107   3.335   3.872   4.284
 5048TIP3    H115108   3.264   3.918   4.239
 5048TIP3    H215109   3.366   3.934   4.350
 5049TIP3   OH215110   6.251   3.251   2.753
 5049TIP3    H115111   6.230   3.249   2.846
 5049TIP3    H215112   6.344   3.274   2.750
 5050TIP3   OH215113   6.282   2.021   3.222
 5050TIP3    H115114   6.252   1.942   3.267
 5050TIP3    H215115   6.374   2.003   3.200
 5051TIP3   OH215116   1.385   6.658   1.180
 5051TIP3    H115117   1.451   6.647   1.248
 5051TIP3    H215118   1.351   6.746   1.194
 5052TIP3   OH215119   2.235   4.382   4.925
 5052TIP3    H115120   2.282   4.466   4.924
 5052TIP3    H215121   2.302   4.318   4.948
 5053TIP3   OH215122   2.437   1.495   1.221
 5053TIP3    H115123   2.477   1.480   1.306
 5053TIP3    H215124   2.479   1.431   1.163
 5054TIP3   OH215125   2.331   4.877   4.448
 5054TIP3    H115126   2.412   4.829   4.431
 5054TIP3    H215127   2.341   4.912   4.536
 5055TIP3   OH215128   2.945   6.781   1.679
 5055TIP3    H115129   3.028   6.828   1.671
 5055TIP3    H215130   2.879   6.842   1.646
 5056TIP3   OH215131   4.735   0.643   5.802
 5056TIP3    H115132   4.795   0.716   5.789
 5056TIP3    H215133   4.652   0.685   5.826
 5057TIP3   OH215134   5.195   5.675   2.239
 5057TIP3    H115135   5.163   5.613   2.304
 5057TIP3    H215136   5.234   5.620   2.171
 5058TIP3   OH215137   0.752   3.627   2.246
 5058TIP3    H115138   0.738   3.612   2.153
 5058TIP3    H215139   0.845   3.607   2.260
 5059TIP3   OH215140   0.683   3.558   1.989
 5059TIP3    H115141   0.672   3.599   1.904
 5059TIP3    H215142   0.636   3.475   1.982
 5060TIP3   OH215143   4.084   3.683   1.664
 5060TIP3    H115144   4.164   3.633   1.645
 5060TIP3    H215145   4.075   3.679   1.759
 5061TIP3   OH215146   3.025   0.500   3.198
 5061TIP3    H115147   3.061   0.492   3.110
 5061TIP3    H215148   3.039   0.592   3.222
 5062TIP3   OH215149   4.921   2.799   2.380
 5062TIP3    H115150   4.868   2.730   2.419
 5062TIP3    H215151   4.928   2.866   2.448
 5063TIP3   OH215152   2.597   6.047   4.237
 5063TIP3    H115153   2.501   6.038   4.240
 5063TIP3    H215154   2.621   6.017   4.149
 5064TIP3   OH215155   3.580   2.438   4.609
 5064TIP3    H115156   3.560   2.459   4.700
 5064TIP3    H215157   3.625   2.515   4.575
 5065TIP3   OH215158   2.265   5.751   4.884
 5065TIP3    H115159   2.353   5.789   4.884
 5065TIP3    H215160   2.226   5.782   4.802
 5066TIP3   OH215161   2.840   4.003   4.233
 5066TIP3    H115162   2.849   4.088   4.275
 5066TIP3    H215163   2.854   3.940   4.303
 5067TIP3   OH215164   2.088   3.819   2.196
 5067TIP3    H115165   2.118   3.816   2.106
 5067TIP3    H215166   2.134   3.893   2.235
 5068TIP3   OH215167   6.323   4.105   1.794
 5068TIP3    H115168   6.285   4.166   1.731
 5068TIP3    H215169   6.415   4.132   1.800
 5069TIP3   OH215170   2.122   2.229   3.309
 5069TIP3    H115171   2.068   2.213   3.386
 5069TIP3    H215172   2.169   2.310   3.329
 5070TIP3   OH215173   3.770   5.268   4.148
 5070TIP3    H115174   3.843   5.281   4.088
 5070TIP3    H215175   3.795   5.314   4.228
 5071TIP3   OH215176   5.935   1.597   5.360
 5071TIP3    H115177   5.994   1.672   5.369
 5071TIP3    H215178   5.992   1.521   5.369
 5072TIP3   OH215179   1.717   6.273   1.728
 5072TIP3    H115180   1.808   6.244   1.737
 5072TIP3    H215181   1.717   6.362   1.762
 5073TIP3   OH215182   5.881   3.120   0.302
 5073TIP3    H115183   5.929   3.104   0.221
 5073TIP3    H215184   5.847   3.209   0.294
 5074TIP3   OH215185   4.241   2.356   3.353
 5074TIP3    H115186   4.159   2.316   3.324
 5074TIP3    H215187   4.216   2.444   3.380
 5075TIP3   OH215188   2.125   5.196   3.284
 5075TIP3    H115189   2.061   5.237   3.343
 5075TIP3    H215190   2.121   5.103   3.305
 5076TIP3   OH215191   4.103   6.268   5.022
 5076TIP3    H115192   4.186   6.262   4.974
 5076TIP3    H215193   4.094   6.184   5.067
 5077TIP3   OH215194   0.419   4.068   4.947
 5077TIP3    H115195   0.486   4.078   5.015
 5077TIP3    H215196   0.465   4.084   4.865
 5078TIP3   OH215197   2.768   5.900   3.416
 5078TIP3    H115198   2.821   5.903   3.495
 5078TIP3    H215199   2.688   5.855   3.443
 5079TIP3   OH215200   3.422   5.171   3.320
 5079TIP3    H115201   3.417   5.077   3.301
 5079TIP3    H215202   3.356   5.210   3.262
 5080TIP3   OH215203   0.442   4.536   5.323
 5080TIP3    H115204   0.379   4.598   5.287
 5080TIP3    H215205   0.458   4.474   5.252
 5081TIP3   OH215206   5.895   4.277   4.968
 5081TIP3    H115207   5.858   4.226   4.896
 5081TIP3    H215208   5.851   4.244   5.046
 5082TIP3   OH215209   7.025   5.985   3.802
 5082TIP3    H115210   6.976   6.067   3.803
 5082TIP3    H215211   7.099   5.999   3.860
 5083TIP3   OH215212   5.860   4.247   1.091
 5083TIP3    H115213   5.834   4.319   1.033
 5083TIP3    H215214   5.915   4.192   1.036
 5084TIP3   OH215215   0.087   3.030   3.141
 5084TIP3    H115216   0.004   3.003   3.181
 5084TIP3    H215217   0.066   3.048   3.050
 5085TIP3   OH215218   3.985   2.191   1.988
 5085TIP3    H115219   3.993   2.121   2.053
 5085TIP3    H215220   3.899   2.229   2.003
 5086TIP3   OH215221   6.261   2.194   1.655
 5086TIP3    H115222   6.223   2.106   1.658
 5086TIP3    H215223   6.211   2.244   1.720
 5087TIP3   OH215224   6.762   0.900   2.248
 5087TIP3    H115225   6.833   0.884   2.186
 5087TIP3    H215226   6.800   0.879   2.334
 5088TIP3   OH215227   4.630   2.185   3.625
 5088TIP3    H115228   4.619   2.246   3.698
 5088TIP3    H215229   4.580   2.223   3.553
 5089TIP3   OH215230   6.911   2.845   4.682
 5089TIP3    H115231   6.963   2.925   4.676
 5089TIP3    H215232   6.939   2.804   4.763
 5090TIP3   OH215233   4.163   3.891   3.476
 5090TIP3    H115234   4.122   3.819   3.429
 5090TIP3    H215235   4.092   3.929   3.529
 5091TIP3   OH215236   1.050   1.976   4.296
 5091TIP3    H115237   1.135   1.933   4.286
 5091TIP3    H215238   0.988   1.917   4.253
 5092TIP3   OH215239   0.806   3.884   0.991
 5092TIP3    H115240   0.787   3.978   0.991
 5092TIP3    H215241   0.888   3.876   0.943
 5093TIP3   OH215242   0.998   1.114   1.326
 5093TIP3    H115243   1.017   1.050   1.394
 5093TIP3    H215244   1.057   1.187   1.344
 5094TIP3   OH215245   1.859   3.657   4.101
 5094TIP3    H115246   1.794   3.693   4.041
 5094TIP3    H215247   1.943   3.690   4.067
 5095TIP3   OH215248   6.254   2.807   1.302
 5095TIP3    H115249   6.172   2.817   1.252
 5095TIP3    H215250   6.245   2.868   1.375
 5096TIP3   OH215251   6.202   6.707   1.118
 5096TIP3    H115252   6.195   6.740   1.028
 5096TIP3    H215253   6.159   6.774   1.171
 5097TIP3   OH215254   5.954   1.382   1.505
 5097TIP3    H115255   5.995   1.453   1.456
 5097TIP3    H215256   5.997   1.303   1.473
 5098TIP3   OH215257   4.821   1.923   1.271
 5098TIP3    H115258   4.799   2.007   1.312
 5098TIP3    H215259   4.749   1.907   1.210
 5099TIP3   OH215260   4.498   4.072   4.709
 5099TIP3    H115261   4.541   3.988   4.723
 5099TIP3    H215262   4.553   4.118   4.646
 5100TIP3   OH215263   1.178   3.278   3.877
 5100TIP3    H115264   1.120   3.317   3.942
 5100TIP3    H215265   1.266   3.305   3.905
 5101TIP3   OH215266   4.527   1.950   5.151
 5101TIP3    H115267   4.520   1.863   5.189
 5101TIP3    H215268   4.439   1.969   5.119
 5102TIP3   OH215269   3.562   6.665   0.568
 5102TIP3    H115270   3.555   6.760   0.563
 5102TIP3    H215271   3.579   6.638   0.478
 5103TIP3   OH215272   2.455   2.510   5.332
 5103TIP3    H115273   2.439   2.512   5.238
 5103TIP3    H215274   2.376   2.548   5.371
 5104TIP3   OH215275   5.462   2.176   1.487
 5104TIP3    H115276   5.372   2.203   1.503
 5104TIP3    H215277   5.514   2.254   1.507
 5105TIP3   OH215278   2.954   5.407   0.899
 5105TIP3    H115279   2.993   5.343   0.957
 5105TIP3    H215280   2.865   5.419   0.933
 5106TIP3   OH215281   5.127   6.038   4.802
 5106TIP3    H115282   5.056   5.992   4.756
 5106TIP3    H215283   5.083   6.089   4.870
 5107TIP3   OH215284   6.910   3.212   1.013
 5107TIP3    H115285   6.972   3.178   0.948
 5107TIP3    H215286   6.960   3.218   1.094
 5108TIP3   OH215287   4.626   5.317   1.647
 5108TIP3    H115288   4.720   5.302   1.653
 5108TIP3    H215289   4.614   5.360   1.562
 5109TIP3   OH215290   3.840   4.175   4.187
 5109TIP3    H115291   3.854   4.114   4.114
 5109TIP3    H215292   3.867   4.260   4.153
 5110TIP3   OH215293   6.949   2.905   5.117
 5110TIP3    H115294   7.030   2.953   5.135
 5110TIP3    H215295   6.881   2.972   5.112
 5111TIP3   OH215296   6.029   2.811   2.133
 5111TIP3    H115297   6.047   2.896   2.173
 5111TIP3    H215298   6.005   2.832   2.043
 5112TIP3   OH215299   6.053   4.388   3.579
 5112TIP3    H115300   6.112   4.315   3.558
 5112TIP3    H215301   5.977   4.346   3.619
 5113TIP3   OH215302   4.816   0.208   2.095
 5113TIP3    H115303   4.787   0.167   2.177
 5113TIP3    H215304   4.912   0.198   2.096
 5114TIP3   OH215305   6.261   3.287   3.030
 5114TIP3    H115306   6.176   3.255   3.061
 5114TIP3    H215307   6.311   3.305   3.110
 5115TIP3   OH215308   2.946   6.699   1.014
 5115TIP3    H115309   2.988   6.622   1.053
 5115TIP3    H215310   2.999   6.719   0.937
 5116TIP3   OH215311   4.539   0.295   0.800
 5116TIP3    H115312   4.538   0.373   0.744
 5116TIP3    H215313   4.447   0.274   0.813
 5117TIP3   OH215314   4.588   1.947   4.437
 5117TIP3    H115315   4.643   1.912   4.367
 5117TIP3    H215316   4.595   1.883   4.508
 5118TIP3   OH215317   5.393   3.455   0.125
 5118TIP3    H115318   5.403   3.498   0.210
 5118TIP3    H215319   5.383   3.362   0.145
 5119TIP3   OH215320   0.333   2.575   3.596
 5119TIP3    H115321   0.428   2.585   3.591
 5119TIP3    H215322   0.312   2.583   3.689
 5120TIP3   OH215323   6.502   0.563   1.046
 5120TIP3    H115324   6.521   0.652   1.076
 5120TIP3    H215325   6.575   0.510   1.079
 5121TIP3   OH215326   7.069   2.230   0.068
 5121TIP3    H115327   7.139   2.172   0.038
 5121TIP3    H215328   7.112   2.295   0.123
 5122TIP3   OH215329   1.125   6.051   1.212
 5122TIP3    H115330   1.182   6.127   1.221
 5122TIP3    H215331   1.072   6.070   1.134
 5123TIP3   OH215332   1.308   4.247   5.041
 5123TIP3    H115333   1.310   4.155   5.015
 5123TIP3    H215334   1.394   4.280   5.015
 5124TIP3   OH215335   1.040   5.974   4.268
 5124TIP3    H115336   1.086   5.915   4.208
 5124TIP3    H215337   1.026   6.053   4.217
 5125TIP3   OH215338   5.313   1.150   5.751
 5125TIP3    H115339   5.315   1.245   5.741
 5125TIP3    H215340   5.252   1.134   5.823
 5126TIP3   OH215341   2.059   3.783   3.068
 5126TIP3    H115342   2.118   3.763   3.141
 5126TIP3    H215343   2.043   3.877   3.076
 5127TIP3   OH215344   3.597   1.381   3.745
 5127TIP3    H115345   3.616   1.460   3.694
 5127TIP3    H215346   3.537   1.330   3.690
 5128TIP3   OH215347   1.391   5.489   1.182
 5128TIP3    H115348   1.471   5.439   1.199
 5128TIP3    H215349   1.374   5.476   1.089
 5129TIP3   OH215350   2.266   2.980   0.860
 5129TIP3    H115351   2.346   2.928   0.871
 5129TIP3    H215352   2.254   2.985   0.765
 5130TIP3   OH215353   3.120   3.366   1.528
 5130TIP3    H115354   3.105   3.371   1.623
 5130TIP3    H215355   3.197   3.310   1.519
 5131TIP3   OH215356   4.223   5.209   0.552
 5131TIP3    H115357   4.144   5.168   0.587
 5131TIP3    H215358   4.194   5.251   0.471
 5132TIP3   OH215359   5.223   2.719   0.889
 5132TIP3    H115360   5.209   2.813   0.904
 5132TIP3    H215361   5.318   2.709   0.883
 5133TIP3   OH215362   2.674   6.492   3.804
 5133TIP3    H115363   2.599   6.539   3.838
 5133TIP3    H215364   2.638   6.435   3.736
 5134TIP3   OH215365   3.832   0.398   4.379
 5134TIP3    H115366   3.830   0.452   4.300
 5134TIP3    H215367   3.848   0.459   4.451
 5135TIP3   OH215368   2.884   1.792   4.068
 5135TIP3    H115369   2.828   1.767   4.142
 5135TIP3    H215370   2.882   1.887   4.067
 5136TIP3   OH215371   0.362   1.655   0.894
 5136TIP3    H115372   0.271   1.682   0.903
 5136TIP3    H215373   0.399   1.668   0.982
 5137TIP3   OH215374   3.599   5.930   4.458
 5137TIP3    H115375   3.599   5.844   4.417
 5137TIP3    H215376   3.689   5.942   4.488
 5138TIP3   OH215377   5.776   0.768   1.577
 5138TIP3    H115378   5.693   0.771   1.625
 5138TIP3    H215379   5.829   0.705   1.626
 5139TIP3   OH215380   6.066   5.204   4.409
 5139TIP3    H115381   6.106   5.139   4.352
 5139TIP3    H215382   6.023   5.153   4.478
 5140TIP3   OH215383   4.710   3.022   3.038
 5140TIP3    H115384   4.651   2.987   2.971
 5140TIP3    H215385   4.651   3.060   3.104
 5141TIP3   OH215386   6.608   5.437   2.509
 5141TIP3    H115387   6.644   5.465   2.594
 5141TIP3    H215388   6.652   5.354   2.491
 5142TIP3   OH215389   4.579   2.380   2.422
 5142TIP3    H115390   4.491   2.413   2.440
 5142TIP3    H215391   4.586   2.299   2.473
 5143TIP3   OH215392   0.753   3.655   0.466
 5143TIP3    H115393   0.839   3.626   0.497
 5143TIP3    H215394   0.770   3.693   0.380
 5144TIP3   OH215395   2.601   5.967   3.090
 5144TIP3    H115396   2.690   6.001   3.074
 5144TIP3    H215397   2.603   5.937   3.181
 5145TIP3   OH215398   1.774   0.499   3.019
 5145TIP3    H115399   1.786   0.578   3.072
 5145TIP3    H215400   1.698   0.519   2.964
 5146TIP3   OH215401   5.863   4.911  -0.001
 5146TIP3    H115402   5.811   4.831  -0.011
 5146TIP3    H215403   5.799   4.979   0.018
 5147TIP3   OH215404   4.156   4.410   1.588
 5147TIP3    H115405   4.210   4.331   1.583
 5147TIP3    H215406   4.113   4.416   1.502
 5148TIP3   OH215407   3.722   6.534   5.503
 5148TIP3    H115408   3.773   6.454   5.518
 5148TIP3    H215409   3.764   6.574   5.427
 5149TIP3   OH215410   0.816   3.695   5.066
 5149TIP3    H115411   0.887   3.754   5.042
 5149TIP3    H215412   0.737   3.747   5.055
 5150TIP3   OH215413   5.595   0.215   3.905
 5150TIP3    H115414   5.654   0.143   3.927
 5150TIP3    H215415   5.614   0.283   3.969
 5151TIP3   OH215416   4.595   1.128   1.653
 5151TIP3    H115417   4.629   1.050   1.610
 5151TIP3    H215418   4.647   1.200   1.617
 5152TIP3   OH215419   2.887   0.997   1.212
 5152TIP3    H115420   2.810   0.941   1.219
 5152TIP3    H215421   2.900   1.031   1.301
 5153TIP3   OH215422   4.324   1.145   2.509
 5153TIP3    H115423   4.360   1.199   2.438
 5153TIP3    H215424   4.233   1.173   2.517
 5154TIP3   OH215425   2.001   2.069   2.160
 5154TIP3    H115426   1.960   2.149   2.193
 5154TIP3    H215427   2.005   2.081   2.065
 5155TIP3   OH215428   3.279   0.864   5.346
 5155TIP3    H115429   3.236   0.785   5.312
 5155TIP3    H215430   3.317   0.906   5.268
 5156TIP3   OH215431   3.146   0.657   4.319
 5156TIP3    H115432   3.228   0.704   4.337
 5156TIP3    H215433   3.105   0.647   4.405
 5157TIP3   OH215434   5.953   0.601   0.430
 5157TIP3    H115435   6.009   0.588   0.353
 5157TIP3    H215436   5.963   0.694   0.451
 5158TIP3   OH215437   0.752   2.248   0.912
 5158TIP3    H115438   0.757   2.156   0.888
 5158TIP3    H215439   0.808   2.292   0.848
 5159TIP3   OH215440   2.252   3.988   3.636
 5159TIP3    H115441   2.293   4.034   3.709
 5159TIP3    H215442   2.326   3.958   3.583
 5160TIP3   OH215443   6.867   3.422   5.120
 5160TIP3    H115444   6.918   3.438   5.199
 5160TIP3    H215445   6.895   3.491   5.059
 5161TIP3   OH215446   2.114   4.288   2.902
 5161TIP3    H115447   2.143   4.205   2.865
 5161TIP3    H215448   2.157   4.355   2.849
 5162TIP3   OH215449   4.690   2.174   4.237
 5162TIP3    H115450   4.617   2.129   4.194
 5162TIP3    H215451   4.751   2.104   4.259
 5163TIP3   OH215452   5.359   1.127   4.243
 5163TIP3    H115453   5.389   1.082   4.163
 5163TIP3    H215454   5.267   1.147   4.226
 5164TIP3   OH215455   2.699   0.099   3.134
 5164TIP3    H115456   2.721   0.192   3.146
 5164TIP3    H215457   2.654   0.075   3.215
 5165TIP3   OH215458   2.107   2.946   2.487
 5165TIP3    H115459   2.102   2.851   2.478
 5165TIP3    H215460   2.031   2.969   2.541
 5166TIP3   OH215461   0.181   4.256   4.184
 5166TIP3    H115462   0.116   4.188   4.162
 5166TIP3    H215463   0.262   4.208   4.199
 5167TIP3   OH215464   0.623   6.094   5.079
 5167TIP3    H115465   0.679   6.017   5.090
 5167TIP3    H215466   0.623   6.136   5.165
 5168TIP3   OH215467   4.124   2.012   1.485
 5168TIP3    H115468   4.196   2.073   1.501
 5168TIP3    H215469   4.164   1.938   1.440
 5169TIP3   OH215470   1.936   1.663   0.273
 5169TIP3    H115471   1.931   1.670   0.178
 5169TIP3    H215472   1.961   1.751   0.303
 5170TIP3   OH215473   6.219   2.456   0.093
 5170TIP3    H115474   6.134   2.438   0.132
 5170TIP3    H215475   6.200   2.481   0.003
 5171TIP3   OH215476   2.039   6.312   3.436
 5171TIP3    H115477   2.091   6.347   3.364
 5171TIP3    H215478   2.085   6.339   3.515
 5172TIP3   OH215479   1.297   2.319   2.399
 5172TIP3    H115480   1.225   2.269   2.438
 5172TIP3    H215481   1.261   2.353   2.317
 5173TIP3   OH215482   1.084   0.279   5.354
 5173TIP3    H115483   1.020   0.215   5.324
 5173TIP3    H215484   1.082   0.348   5.287
 5174TIP3   OH215485   6.476   3.597   2.185
 5174TIP3    H115486   6.387   3.596   2.221
 5174TIP3    H215487   6.496   3.504   2.169
 5175TIP3   OH215488   0.701   3.837   4.399
 5175TIP3    H115489   0.788   3.877   4.391
 5175TIP3    H215490   0.714   3.763   4.458
 5176TIP3   OH215491   6.734   3.252   3.146
 5176TIP3    H115492   6.665   3.249   3.080
 5176TIP3    H215493   6.814   3.268   3.097
 5177TIP3   OH215494   3.123   1.332   1.199
 5177TIP3    H115495   3.116   1.405   1.261
 5177TIP3    H215496   3.168   1.369   1.123
 5178TIP3   OH215497   2.901   2.729   3.922
 5178TIP3    H115498   2.989   2.738   3.959
 5178TIP3    H215499   2.915   2.692   3.835
 5179TIP3   OH215500   0.931   1.855   2.092
 5179TIP3    H115501   0.995   1.882   2.158
 5179TIP3    H215502   0.948   1.913   2.017
 5180TIP3   OH215503   5.450   5.696   2.440
 5180TIP3    H115504   5.374   5.638   2.426
 5180TIP3    H215505   5.424   5.779   2.400
 5181TIP3   OH215506   0.719   2.002   0.527
 5181TIP3    H115507   0.797   2.008   0.583
 5181TIP3    H215508   0.650   1.969   0.585
 5182TIP3   OH215509   5.634   3.309   2.592
 5182TIP3    H115510   5.625   3.317   2.687
 5182TIP3    H215511   5.707   3.366   2.570
 5183TIP3   OH215512   2.013   5.470   5.278
 5183TIP3    H115513   1.964   5.412   5.220
 5183TIP3    H215514   1.961   5.473   5.359
 5184TIP3   OH215515   6.962   5.756   4.979
 5184TIP3    H115516   7.004   5.684   4.933
 5184TIP3    H215517   6.868   5.740   4.967
 5185TIP3   OH215518   2.246   5.003  -0.066
 5185TIP3    H115519   2.331   4.991  -0.024
 5185TIP3    H215520   2.207   5.077  -0.021
 5186TIP3   OH215521   5.095   1.200   4.153
 5186TIP3    H115522   5.085   1.150   4.072
 5186TIP3    H215523   5.136   1.282   4.125
 5187TIP3   OH215524   2.104   2.601   5.687
 5187TIP3    H115525   2.093   2.538   5.759
 5187TIP3    H215526   2.177   2.657   5.716
 5188TIP3   OH215527   4.982   4.518   1.754
 5188TIP3    H115528   5.012   4.438   1.711
 5188TIP3    H215529   5.045   4.585   1.727
 5189TIP3   OH215530   6.203   3.197   5.772
 5189TIP3    H115531   6.212   3.221   5.679
 5189TIP3    H215532   6.258   3.261   5.818
 5190TIP3   OH215533   7.116   2.526   5.476
 5190TIP3    H115534   7.065   2.497   5.400
 5190TIP3    H215535   7.100   2.621   5.479
 5191TIP3   OH215536   6.419   1.760   0.036
 5191TIP3    H115537   6.370   1.688  -0.004
 5191TIP3    H215538   6.446   1.726   0.121
 5192TIP3   OH215539   6.531   5.365   3.083
 5192TIP3    H115540   6.588   5.439   3.104
 5192TIP3    H215541   6.501   5.382   2.993
 5193TIP3   OH215542   0.737   0.402   5.669
 5193TIP3    H115543   0.663   0.403   5.729
 5193TIP3    H215544   0.814   0.419   5.724
 5194TIP3   OH215545   4.723   1.957   5.571
 5194TIP3    H115546   4.666   1.929   5.643
 5194TIP3    H215547   4.666   2.012   5.517
 5195TIP3   OH215548   7.170   0.933   4.090
 5195TIP3    H115549   7.115   0.915   4.014
 5195TIP3    H215550   7.195   0.846   4.123
 5196TIP3   OH215551   6.583   5.550   1.276
 5196TIP3    H115552   6.552   5.561   1.366
 5196TIP3    H215553   6.646   5.478   1.281
 5197TIP3   OH215554   5.833   2.859   3.824
 5197TIP3    H115555   5.926   2.873   3.840
 5197TIP3    H215556   5.801   2.818   3.905
 5198TIP3   OH215557   6.965   0.234   3.312
 5198TIP3    H115558   6.906   0.186   3.370
 5198TIP3    H215559   6.908   0.285   3.255
 5199TIP3   OH215560   5.146   0.890   4.474
 5199TIP3    H115561   5.156   0.977   4.435
 5199TIP3    H215562   5.221   0.882   4.533
 5200TIP3   OH215563   2.719   3.130   4.106
 5200TIP3    H115564   2.737   3.036   4.105
 5200TIP3    H215565   2.631   3.137   4.071
 5201TIP3   OH215566   5.604   3.938   0.022
 5201TIP3    H115567   5.589   3.999  -0.050
 5201TIP3    H215568   5.667   3.983   0.079
 5202TIP3   OH215569   3.308   5.366   5.032
 5202TIP3    H115570   3.236   5.344   4.974
 5202TIP3    H215571   3.309   5.296   5.097
 5203TIP3   OH215572   1.305   3.894   2.921
 5203TIP3    H115573   1.276   3.955   2.854
 5203TIP3    H215574   1.279   3.935   3.004
 5204TIP3   OH215575   2.130   3.904   0.808
 5204TIP3    H115576   2.047   3.949   0.793
 5204TIP3    H215577   2.172   3.953   0.879
 5205TIP3   OH215578   7.142   5.835   3.362
 5205TIP3    H115579   7.206   5.765   3.368
 5205TIP3    H215580   7.148   5.880   3.446
 5206TIP3   OH215581   3.697   0.621   3.499
 5206TIP3    H115582   3.716   0.679   3.573
 5206TIP3    H215583   3.681   0.535   3.538
 5207TIP3   OH215584   4.810   1.404   5.476
 5207TIP3    H115585   4.719   1.381   5.454
 5207TIP3    H215586   4.849   1.429   5.393
 5208TIP3   OH215587   4.930   3.824   5.106
 5208TIP3    H115588   4.922   3.886   5.178
 5208TIP3    H215589   4.994   3.864   5.046
 5209TIP3   OH215590   4.529   1.348   1.081
 5209TIP3    H115591   4.510   1.280   1.145
 5209TIP3    H215592   4.445   1.393   1.069
 5210TIP3   OH215593   0.459   4.356   5.100
 5210TIP3    H115594   0.480   4.295   5.169
 5210TIP3    H215595   0.529   4.346   5.036
 5211TIP3   OH215596   2.021   6.233   2.462
 5211TIP3    H115597   2.110   6.213   2.491
 5211TIP3    H215598   2.021   6.328   2.449
 5212TIP3   OH215599   3.647   3.624   3.165
 5212TIP3    H115600   3.617   3.574   3.089
 5212TIP3    H215601   3.570   3.633   3.220
 5213TIP3   OH215602   1.717   3.066   4.715
 5213TIP3    H115603   1.673   3.008   4.777
 5213TIP3    H215604   1.777   3.118   4.769
 5214TIP3   OH215605   6.404   5.546   2.239
 5214TIP3    H115606   6.364   5.609   2.299
 5214TIP3    H215607   6.347   5.545   2.163
 5215TIP3   OH215608   1.626   6.141   4.167
 5215TIP3    H115609   1.688   6.071   4.190
 5215TIP3    H215610   1.564   6.099   4.108
 5216TIP3   OH215611   6.263   5.701   3.900
 5216TIP3    H115612   6.253   5.630   3.965
 5216TIP3    H215613   6.277   5.655   3.817
 5217TIP3   OH215614   3.285   2.911   4.970
 5217TIP3    H115615   3.373   2.919   5.007
 5217TIP3    H215616   3.294   2.848   4.899
 5218TIP3   OH215617   3.644   1.925   0.221
 5218TIP3    H115618   3.714   1.902   0.282
 5218TIP3    H215619   3.686   1.982   0.157
 5219TIP3   OH215620   4.532   5.790   3.916
 5219TIP3    H115621   4.492   5.823   3.836
 5219TIP3    H215622   4.617   5.834   3.920
 5220TIP3   OH215623   5.306   0.227   1.067
 5220TIP3    H115624   5.301   0.159   1.000
 5220TIP3    H215625   5.363   0.294   1.029
 5221TIP3   OH215626   4.606   3.627   2.087
 5221TIP3    H115627   4.685   3.578   2.065
 5221TIP3    H215628   4.630   3.719   2.072
 5222TIP3   OH215629   3.107   3.549   3.387
 5222TIP3    H115630   3.099   3.531   3.481
 5222TIP3    H215631   3.038   3.496   3.348
 5223TIP3   OH215632   3.984   4.188   1.579
 5223TIP3    H115633   4.012   4.277   1.559
 5223TIP3    H215634   4.057   4.151   1.629
 5224TIP3   OH215635   0.039   6.663   3.942
 5224TIP3    H115636   0.132   6.642   3.948
 5224TIP3    H215637   0.027   6.690   3.851
 5225TIP3   OH215638   5.258   1.441   4.428
 5225TIP3    H115639   5.303   1.442   4.343
 5225TIP3    H215640   5.304   1.507   4.479
 5226TIP3   OH215641   2.730   5.716   1.218
 5226TIP3    H115642   2.662   5.649   1.217
 5226TIP3    H215643   2.776   5.701   1.301
 5227TIP3   OH215644   3.143   3.245   4.672
 5227TIP3    H115645   3.082   3.286   4.611
 5227TIP3    H215646   3.131   3.151   4.658
 5228TIP3   OH215647   6.630   5.806   5.267
 5228TIP3    H115648   6.616   5.845   5.180
 5228TIP3    H215649   6.560   5.842   5.321
 5229TIP3   OH215650   2.260   0.530   2.196
 5229TIP3    H115651   2.188   0.582   2.231
 5229TIP3    H215652   2.218   0.451   2.163
 5230TIP3   OH215653   5.569   1.633   2.404
 5230TIP3    H115654   5.582   1.669   2.316
 5230TIP3    H215655   5.658   1.613   2.435
 5231TIP3   OH215656   2.560   1.410   1.463
 5231TIP3    H115657   2.529   1.362   1.540
 5231TIP3    H215658   2.654   1.418   1.476
 5232TIP3   OH215659   4.825   6.494   4.875
 5232TIP3    H115660   4.892   6.545   4.919
 5232TIP3    H215661   4.795   6.550   4.803
 5233TIP3   OH215662   4.123   3.253   2.229
 5233TIP3    H115663   4.173   3.289   2.302
 5233TIP3    H215664   4.144   3.310   2.155
 5234TIP3   OH215665   2.101   4.987   0.771
 5234TIP3    H115666   2.157   4.909   0.773
 5234TIP3    H215667   2.123   5.034   0.852
 5235TIP3   OH215668   7.094   4.840   5.512
 5235TIP3    H115669   7.177   4.888   5.519
 5235TIP3    H215670   7.050   4.879   5.436
 5236TIP3   OH215671   2.944   6.170   2.238
 5236TIP3    H115672   2.962   6.191   2.146
 5236TIP3    H215673   3.000   6.231   2.287
 5237TIP3   OH215674   0.208   2.889   3.602
 5237TIP3    H115675   0.203   2.821   3.535
 5237TIP3    H215676   0.227   2.842   3.683
 5238TIP3   OH215677   2.889   1.162   4.487
 5238TIP3    H115678   2.932   1.134   4.407
 5238TIP3    H215679   2.846   1.083   4.520
 5239TIP3   OH215680   0.759   0.736   0.758
 5239TIP3    H115681   0.733   0.779   0.677
 5239TIP3    H215682   0.780   0.646   0.733
 5240TIP3   OH215683   0.366   3.934   2.382
 5240TIP3    H115684   0.309   3.918   2.306
 5240TIP3    H215685   0.307   3.926   2.457
 5241TIP3   OH215686   6.791   2.085   4.299
 5241TIP3    H115687   6.726   2.017   4.312
 5241TIP3    H215688   6.871   2.039   4.273
 5242TIP3   OH215689   6.232   1.465   1.863
 5242TIP3    H115690   6.188   1.525   1.802
 5242TIP3    H215691   6.212   1.501   1.950
 5243TIP3   OH215692   5.850   1.722   0.533
 5243TIP3    H115693   5.862   1.811   0.502
 5243TIP3    H215694   5.759   1.719   0.564
 5244TIP3   OH215695   3.495   0.841   1.083
 5244TIP3    H115696   3.468   0.855   1.174
 5244TIP3    H215697   3.426   0.883   1.031
 5245TIP3   OH215698   2.569   3.716   1.113
 5245TIP3    H115699   2.512   3.699   1.038
 5245TIP3    H215700   2.616   3.634   1.127
 5246TIP3   OH215701   1.799   4.844   3.626
 5246TIP3    H115702   1.800   4.831   3.532
 5246TIP3    H215703   1.887   4.822   3.655
 5247TIP3   OH215704   2.313   6.377   4.766
 5247TIP3    H115705   2.354   6.292   4.783
 5247TIP3    H215706   2.220   6.358   4.762
 5248TIP3   OH215707   4.790   5.268   1.116
 5248TIP3    H115708   4.869   5.256   1.170
 5248TIP3    H215709   4.812   5.227   1.033
 5249TIP3   OH215710   1.674   5.375   5.237
 5249TIP3    H115711   1.628   5.459   5.238
 5249TIP3    H215712   1.755   5.393   5.190
 5250TIP3   OH215713   1.944  -0.001   4.728
 5250TIP3    H115714   1.974   0.056   4.657
 5250TIP3    H215715   1.864  -0.041   4.694
 5251TIP3   OH215716   4.802   2.801   4.798
 5251TIP3    H115717   4.816   2.896   4.790
 5251TIP3    H215718   4.889   2.763   4.785
 5252TIP3   OH215719   6.496   5.632   0.785
 5252TIP3    H115720   6.567   5.627   0.849
 5252TIP3    H215721   6.425   5.581   0.824
 5253TIP3   OH215722   0.328   4.273   1.871
 5253TIP3    H115723   0.313   4.298   1.962
 5253TIP3    H215724   0.360   4.353   1.829
 5254TIP3   OH215725   1.819   5.686   4.087
 5254TIP3    H115726   1.746   5.653   4.035
 5254TIP3    H215727   1.864   5.608   4.118
 5255TIP3   OH215728   6.988   6.212   4.038
 5255TIP3    H115729   6.992   6.279   4.107
 5255TIP3    H215730   7.079   6.194   4.017
 5256TIP3   OH215731   0.165   5.611   3.417
 5256TIP3    H115732   0.186   5.562   3.337
 5256TIP3    H215733   0.167   5.545   3.486
 5257TIP3   OH215734   2.634   4.908   1.484
 5257TIP3    H115735   2.636   4.916   1.579
 5257TIP3    H215736   2.708   4.962   1.454
 5258TIP3   OH215737   1.092   0.314   3.480
 5258TIP3    H115738   1.159   0.375   3.512
 5258TIP3    H215739   1.012   0.367   3.476
 5259TIP3   OH215740   5.833   0.228   2.955
 5259TIP3    H115741   5.823   0.281   3.035
 5259TIP3    H215742   5.764   0.259   2.897
 5260TIP3   OH215743   6.499   6.283   1.908
 5260TIP3    H115744   6.588   6.310   1.931
 5260TIP3    H215745   6.492   6.300   1.814
 5261TIP3   OH215746   1.774   1.286   4.311
 5261TIP3    H115747   1.709   1.217   4.298
 5261TIP3    H215748   1.745   1.330   4.392
 5262TIP3   OH215749   4.859   5.151   1.641
 5262TIP3    H115750   4.871   5.135   1.734
 5262TIP3    H215751   4.834   5.065   1.605
 5263TIP3   OH215752   0.762   1.813   1.075
 5263TIP3    H115753   0.751   1.739   1.015
 5263TIP3    H215754   0.785   1.772   1.158
 5264TIP3   OH215755   4.728   0.659   3.564
 5264TIP3    H115756   4.708   0.644   3.657
 5264TIP3    H215757   4.658   0.613   3.517
 5265TIP3   OH215758   4.833   5.713   0.424
 5265TIP3    H115759   4.891   5.637   0.418
 5265TIP3    H215760   4.797   5.723   0.336
 5266TIP3   OH215761   1.029   4.926   5.382
 5266TIP3    H115762   0.972   4.870   5.329
 5266TIP3    H215763   1.071   4.865   5.443
 5267TIP3   OH215764   2.981   0.558   4.510
 5267TIP3    H115765   2.910   0.613   4.476
 5267TIP3    H215766   2.979   0.571   4.605
 5268TIP3   OH215767   2.170   1.115   3.908
 5268TIP3    H115768   2.195   1.067   3.829
 5268TIP3    H215769   2.191   1.055   3.980
 5269TIP3   OH215770   7.170   2.254   2.893
 5269TIP3    H115771   7.126   2.263   2.977
 5269TIP3    H215772   7.242   2.192   2.910
 5270TIP3   OH215773   5.231   2.327   2.033
 5270TIP3    H115774   5.309   2.329   1.978
 5270TIP3    H215775   5.251   2.267   2.104
 5271TIP3   OH215776   3.047   6.425   0.980
 5271TIP3    H115777   2.983   6.449   0.913
 5271TIP3    H215778   3.130   6.418   0.932
 5272TIP3   OH215779   5.302   3.581   2.815
 5272TIP3    H115780   5.321   3.584   2.909
 5272TIP3    H215781   5.231   3.644   2.802
 5273TIP3   OH215782   1.319   2.025   1.515
 5273TIP3    H115783   1.296   2.073   1.435
 5273TIP3    H215784   1.390   2.075   1.554
 5274TIP3   OH215785   3.182   0.381   2.596
 5274TIP3    H115786   3.113   0.436   2.633
 5274TIP3    H215787   3.157   0.292   2.621
 5275TIP3   OH215788   1.734   2.292  -0.007
 5275TIP3    H115789   1.737   2.375   0.042
 5275TIP3    H215790   1.650   2.253   0.019
 5276TIP3   OH215791   5.303   2.156   1.237
 5276TIP3    H115792   5.397   2.150   1.252
 5276TIP3    H215793   5.270   2.068   1.251
 5277TIP3   OH215794   6.717   2.487   0.887
 5277TIP3    H115795   6.645   2.474   0.826
 5277TIP3    H215796   6.675   2.512   0.969
 5278TIP3   OH215797   3.696   3.772   3.942
 5278TIP3    H115798   3.660   3.796   3.857
 5278TIP3    H215799   3.754   3.845   3.965
 5279TIP3   OH215800   4.484   6.497   5.082
 5279TIP3    H115801   4.551   6.559   5.111
 5279TIP3    H215802   4.446   6.537   5.003
 5280TIP3   OH215803   1.729   1.693   0.941
 5280TIP3    H115804   1.741   1.608   0.898
 5280TIP3    H215805   1.809   1.707   0.992
 5281TIP3   OH215806   2.250   5.803   5.431
 5281TIP3    H115807   2.307   5.737   5.392
 5281TIP3    H215808   2.293   5.827   5.513
 5282TIP3   OH215809   5.605   6.245   0.366
 5282TIP3    H115810   5.565   6.204   0.443
 5282TIP3    H215811   5.536   6.303   0.331
 5283TIP3   OH215812   1.727   5.184   0.456
 5283TIP3    H115813   1.732   5.184   0.360
 5283TIP3    H215814   1.698   5.272   0.479
 5284TIP3   OH215815   1.539   0.343   1.478
 5284TIP3    H115816   1.517   0.293   1.556
 5284TIP3    H215817   1.626   0.311   1.453
 5285TIP3   OH215818   6.026   0.311   0.357
 5285TIP3    H115819   6.037   0.298   0.452
 5285TIP3    H215820   5.938   0.346   0.349
 5286TIP3   OH215821   2.941   1.477   0.243
 5286TIP3    H115822   2.886   1.475   0.166
 5286TIP3    H215823   2.880   1.482   0.317
 5287TIP3   OH215824   2.823   0.772   5.630
 5287TIP3    H115825   2.834   0.679   5.609
 5287TIP3    H215826   2.732   0.779   5.660
 5288TIP3   OH215827   1.325   3.204   1.401
 5288TIP3    H115828   1.231   3.190   1.410
 5288TIP3    H215829   1.364   3.130   1.447
 5289TIP3   OH215830   7.104   5.762   2.433
 5289TIP3    H115831   7.191   5.724   2.423
 5289TIP3    H215832   7.043   5.693   2.408
 5290TIP3   OH215833   2.935   4.117   5.526
 5290TIP3    H115834   2.946   4.178   5.452
 5290TIP3    H215835   2.948   4.171   5.604
 5291TIP3   OH215836   0.627   1.629   2.703
 5291TIP3    H115837   0.558   1.673   2.653
 5291TIP3    H215838   0.676   1.700   2.743
 5292TIP3   OH215839   3.222   0.653   5.653
 5292TIP3    H115840   3.304   0.629   5.609
 5292TIP3    H215841   3.218   0.748   5.648
 5293TIP3   OH215842   5.841   4.449   5.310
 5293TIP3    H115843   5.906   4.397   5.263
 5293TIP3    H215844   5.772   4.387   5.333
 5294TIP3   OH215845   1.149   5.947   5.479
 5294TIP3    H115846   1.196   6.027   5.457
 5294TIP3    H215847   1.196   5.878   5.433
 5295TIP3   OH215848   4.991   3.185   2.361
 5295TIP3    H115849   4.983   3.179   2.266
 5295TIP3    H215850   5.075   3.229   2.376
 5296TIP3   OH215851   4.671   3.476   3.522
 5296TIP3    H115852   4.714   3.540   3.579
 5296TIP3    H215853   4.596   3.522   3.485
 5297TIP3   OH215854   3.320   2.000   3.397
 5297TIP3    H115855   3.265   1.922   3.401
 5297TIP3    H215856   3.338   2.021   3.489
 5298TIP3   OH215857   2.163   3.113   3.216
 5298TIP3    H115858   2.180   3.202   3.184
 5298TIP3    H215859   2.187   3.057   3.143
 5299TIP3   OH215860   5.072   5.920   0.308
 5299TIP3    H115861   5.081   5.995   0.249
 5299TIP3    H215862   4.980   5.923   0.336
 5300TIP3   OH215863   6.709   0.379   2.920
 5300TIP3    H115864   6.624   0.374   2.877
 5300TIP3    H215865   6.769   0.330   2.864
 5301TIP3   OH215866   3.937   0.878   0.424
 5301TIP3    H115867   4.024   0.865   0.462
 5301TIP3    H215868   3.887   0.800   0.449
 5302TIP3   OH215869   2.877   3.364   5.766
 5302TIP3    H115870   2.862   3.405   5.851
 5302TIP3    H215871   2.904   3.275   5.787
 5303TIP3   OH215872   0.092   5.571   3.848
 5303TIP3    H115873   0.079   5.502   3.913
 5303TIP3    H215874   0.158   5.628   3.886
 5304TIP3   OH215875   3.038   3.018   3.961
 5304TIP3    H115876   2.947   3.023   3.931
 5304TIP3    H215877   3.072   2.937   3.923
 5305TIP3   OH215878   6.417   5.420   2.811
 5305TIP3    H115879   6.335   5.404   2.764
 5305TIP3    H215880   6.449   5.502   2.775
 5306TIP3   OH215881   6.874   1.335   4.649
 5306TIP3    H115882   6.898   1.315   4.558
 5306TIP3    H215883   6.903   1.258   4.698
 5307TIP3   OH215884   6.731   4.635   5.403
 5307TIP3    H115885   6.663   4.570   5.386
 5307TIP3    H215886   6.804   4.608   5.347
 5308TIP3   OH215887   1.372   3.464   1.400
 5308TIP3    H115888   1.378   3.371   1.420
 5308TIP3    H215889   1.366   3.507   1.485
 5309TIP3   OH215890   6.451   2.425   5.747
 5309TIP3    H115891   6.467   2.519   5.748
 5309TIP3    H215892   6.424   2.404   5.837
 5310TIP3   OH215893   6.485   1.438   5.102
 5310TIP3    H115894   6.471   1.533   5.100
 5310TIP3    H215895   6.418   1.403   5.043
 5311TIP3   OH215896   0.642   4.747   5.657
 5311TIP3    H115897   0.706   4.799   5.608
 5311TIP3    H215898   0.561   4.755   5.608
 5312TIP3   OH215899   0.536   1.990   4.492
 5312TIP3    H115900   0.514   2.025   4.578
 5312TIP3    H215901   0.624   1.955   4.502
 5313TIP3   OH215902   1.477   1.125   1.240
 5313TIP3    H115903   1.433   1.063   1.297
 5313TIP3    H215904   1.570   1.103   1.248
 5314TIP3   OH215905   6.765   0.998   5.101
 5314TIP3    H115906   6.732   1.006   5.190
 5314TIP3    H215907   6.696   0.952   5.053
 5315TIP3   OH215908   5.170   1.260   0.217
 5315TIP3    H115909   5.206   1.276   0.304
 5315TIP3    H215910   5.189   1.341   0.169
 5316TIP3   OH215911   3.262   4.142   3.557
 5316TIP3    H115912   3.189   4.163   3.615
 5316TIP3    H215913   3.293   4.057   3.589
 5317TIP3   OH215914   4.277   4.656   3.361
 5317TIP3    H115915   4.279   4.747   3.392
 5317TIP3    H215916   4.352   4.650   3.302
 5318TIP3   OH215917   6.601   1.193   3.294
 5318TIP3    H115918   6.524   1.158   3.339
 5318TIP3    H215919   6.594   1.161   3.204
 5319TIP3   OH215920   2.949   1.919   3.835
 5319TIP3    H115921   2.859   1.906   3.867
 5319TIP3    H215922   2.997   1.948   3.912
 5320TIP3   OH215923   2.721   5.346   1.933
 5320TIP3    H115924   2.784   5.284   1.970
 5320TIP3    H215925   2.764   5.379   1.854
 5321TIP3   OH215926   1.130   2.260   0.056
 5321TIP3    H115927   1.132   2.174   0.016
 5321TIP3    H215928   1.221   2.291   0.053
 5322TIP3   OH215929   7.122   0.065   2.057
 5322TIP3    H115930   7.041   0.116   2.054
 5322TIP3    H215931   7.186   0.123   2.098
 5323TIP3   OH215932   4.657   0.736   5.498
 5323TIP3    H115933   4.717   0.724   5.572
 5323TIP3    H215934   4.674   0.661   5.441
 5324TIP3   OH215935   6.298   1.395   0.835
 5324TIP3    H115936   6.261   1.476   0.798
 5324TIP3    H215937   6.257   1.386   0.920
 5325TIP3   OH215938   2.284   3.339   4.378
 5325TIP3    H115939   2.354   3.371   4.321
 5325TIP3    H215940   2.284   3.401   4.451
 5326TIP3   OH215941   2.442   4.143   1.126
 5326TIP3    H115942   2.499   4.126   1.201
 5326TIP3    H215943   2.366   4.187   1.163
 5327TIP3   OH215944   2.863   5.827   3.705
 5327TIP3    H115945   2.887   5.899   3.763
 5327TIP3    H215946   2.925   5.758   3.726
 5328TIP3   OH215947   0.872   0.367   1.845
 5328TIP3    H115948   0.936   0.337   1.781
 5328TIP3    H215949   0.796   0.310   1.833
 5329TIP3   OH215950   4.845   0.250   2.611
 5329TIP3    H115951   4.771   0.214   2.660
 5329TIP3    H215952   4.888   0.173   2.573
 5330TIP3   OH215953   6.487   6.292   3.381
 5330TIP3    H115954   6.517   6.368   3.431
 5330TIP3    H215955   6.546   6.221   3.407
 5331TIP3   OH215956   2.484   1.823   0.926
 5331TIP3    H115957   2.461   1.752   0.867
 5331TIP3    H215958   2.412   1.827   0.989
 5332TIP3   OH215959   7.037   6.046   2.325
 5332TIP3    H115960   6.961   6.085   2.369
 5332TIP3    H215961   7.036   5.955   2.352
 5333TIP3   OH215962   3.503   2.882   4.270
 5333TIP3    H115963   3.504   2.925   4.184
 5333TIP3    H215964   3.412   2.886   4.298
 5334TIP3   OH215965   0.744   0.476   4.729
 5334TIP3    H115966   0.797   0.554   4.716
 5334TIP3    H215967   0.680   0.478   4.657
 5335TIP3   OH215968   6.468   1.022   5.670
 5335TIP3    H115969   6.396   1.064   5.622
 5335TIP3    H215970   6.537   1.011   5.604
 5336TIP3   OH215971   3.490   4.356   3.137
 5336TIP3    H115972   3.505   4.329   3.046
 5336TIP3    H215973   3.491   4.452   3.134
 5337TIP3   OH215974   5.302   3.623   3.115
 5337TIP3    H115975   5.219   3.658   3.083
 5337TIP3    H215976   5.297   3.631   3.210
 5338TIP3   OH215977   2.272   3.394   4.907
 5338TIP3    H115978   2.331   3.357   4.973
 5338TIP3    H215979   2.189   3.407   4.953
 5339TIP3   OH215980   5.904   5.706   2.717
 5339TIP3    H115981   5.819   5.672   2.692
 5339TIP3    H215982   5.888   5.753   2.800
 5340TIP3   OH215983   6.845   2.607   0.117
 5340TIP3    H115984   6.785   2.539   0.148
 5340TIP3    H215985   6.929   2.586   0.158
 5341TIP3   OH215986   4.553   2.963   0.018
 5341TIP3    H115987   4.535   3.032  -0.046
 5341TIP3    H215988   4.605   3.007   0.086
 5342TIP3   OH215989   3.603   4.454   0.164
 5342TIP3    H115990   3.691   4.418   0.168
 5342TIP3    H215991   3.556   4.412   0.236
 5343TIP3   OH215992   0.091   2.907   2.641
 5343TIP3    H115993   0.040   2.948   2.571
 5343TIP3    H215994   0.177   2.892   2.602
 5344TIP3   OH215995   4.499   3.022   4.159
 5344TIP3    H115996   4.548   3.024   4.241
 5344TIP3    H215997   4.554   2.971   4.099
 5345TIP3   OH215998   2.811   1.731   3.224
 5345TIP3    H115999   2.895   1.747   3.182
 5345TIP3    H216000   2.773   1.818   3.235
 5346TIP3   OH216001   2.052   5.361   3.656
 5346TIP3    H116002   2.054   5.416   3.735
 5346TIP3    H216003   1.994   5.408   3.597
 5347TIP3   OH216004   0.857   5.365   3.267
 5347TIP3    H116005   0.943   5.400   3.290
 5347TIP3    H216006   0.811   5.357   3.351
 5348TIP3   OH216007   1.025   5.916   0.611
 5348TIP3    H116008   1.087   5.946   0.545
 5348TIP3    H216009   0.946   5.893   0.561
 5349TIP3   OH216010   6.329   6.169   1.557
 5349TIP3    H116011   6.247   6.190   1.602
 5349TIP3    H216012   6.341   6.075   1.572
 5350TIP3   OH216013   0.763   4.875   2.941
 5350TIP3    H116014   0.713   4.837   3.013
 5350TIP3    H216015   0.851   4.887   2.976
 5351TIP3   OH216016   6.776   6.469   3.739
 5351TIP3    H116017   6.747   6.466   3.830
 5351TIP3    H216018   6.810   6.381   3.722
 5352TIP3   OH216019   0.021   0.062   5.021
 5352TIP3    H116020   0.115   0.072   5.031
 5352TIP3    H216021  -0.016   0.143   5.056
 5353TIP3   OH216022   6.160   0.254   4.646
 5353TIP3    H116023   6.083   0.284   4.598
 5353TIP3    H216024   6.210   0.204   4.581
 5354TIP3   OH216025   1.511   0.262   3.422
 5354TIP3    H116026   1.575   0.190   3.423
 5354TIP3    H216027   1.436   0.229   3.471
 5355TIP3   OH216028   4.011   4.419   5.514
 5355TIP3    H116029   3.946   4.372   5.463
 5355TIP3    H216030   4.090   4.366   5.507
 5356TIP3   OH216031   3.544   0.025   1.845
 5356TIP3    H116032   3.616   0.086   1.857
 5356TIP3    H216033   3.524  -0.008   1.932
 5357TIP3   OH216034   2.968   0.168   2.718
 5357TIP3    H116035   2.942   0.079   2.692
 5357TIP3    H216036   2.886   0.210   2.745
 5358TIP3   OH216037   0.678   4.583   0.562
 5358TIP3    H116038   0.593   4.567   0.520
 5358TIP3    H216039   0.733   4.511   0.531
 5359TIP3   OH216040   3.817   1.171   4.994
 5359TIP3    H116041   3.808   1.184   4.900
 5359TIP3    H216042   3.728   1.176   5.029
 5360TIP3   OH216043   1.145   5.757   0.841
 5360TIP3    H116044   1.114   5.827   0.783
 5360TIP3    H216045   1.079   5.688   0.832
 5361TIP3   OH216046   4.834   0.603   4.215
 5361TIP3    H116047   4.747   0.621   4.179
 5361TIP3    H216048   4.822   0.524   4.268
 5362TIP3   OH216049   6.557   0.220   4.720
 5362TIP3    H116050   6.651   0.213   4.702
 5362TIP3    H216051   6.544   0.311   4.746
 5363TIP3   OH216052   6.820   6.675   3.158
 5363TIP3    H116053   6.828   6.586   3.123
 5363TIP3    H216054   6.910   6.707   3.163
 5364TIP3   OH216055   6.891   1.050   4.584
 5364TIP3    H116056   6.949   1.016   4.516
 5364TIP3    H216057   6.803   1.043   4.547
 5365TIP3   OH216058   1.602   5.797   5.443
 5365TIP3    H116059   1.683   5.830   5.481
 5365TIP3    H216060   1.568   5.736   5.508
 5366TIP3   OH216061   0.949   2.260   4.127
 5366TIP3    H116062   0.922   2.311   4.203
 5366TIP3    H216063   0.970   2.173   4.162
 5367TIP3   OH216064   5.031   1.514   5.805
 5367TIP3    H116065   4.996   1.558   5.728
 5367TIP3    H216066   4.990   1.428   5.804
 5368TIP3   OH216067   3.956   2.811   4.673
 5368TIP3    H116068   3.956   2.785   4.765
 5368TIP3    H216069   4.041   2.853   4.661
 5369TIP3   OH216070   1.693   5.386   2.980
 5369TIP3    H116071   1.643   5.307   3.003
 5369TIP3    H216072   1.781   5.369   3.014
 5370TIP3   OH216073   6.064   1.378   5.680
 5370TIP3    H116074   6.039   1.438   5.750
 5370TIP3    H216075   6.051   1.291   5.718
 5371TIP3   OH216076   0.670   5.738   4.659
 5371TIP3    H116077   0.672   5.646   4.630
 5371TIP3    H216078   0.587   5.772   4.627
 5372TIP3   OH216079   3.122   5.919   4.607
 5372TIP3    H116080   3.070   5.902   4.686
 5372TIP3    H216081   3.124   6.014   4.600
 5373TIP3   OH216082   6.407   1.496   2.510
 5373TIP3    H116083   6.431   1.551   2.585
 5373TIP3    H216084   6.369   1.557   2.447
 5374TIP3   OH216085   0.928   4.164   5.261
 5374TIP3    H116086   0.932   4.131   5.172
 5374TIP3    H216087   1.005   4.222   5.269
 5375TIP3   OH216088   0.370   6.001   1.602
 5375TIP3    H116089   0.387   6.055   1.525
 5375TIP3    H216090   0.297   6.045   1.646
 5376TIP3   OH216091   0.028   1.636   5.054
 5376TIP3    H116092  -0.051   1.583   5.060
 5376TIP3    H216093   0.062   1.617   4.966
 5377TIP3   OH216094  -0.024   2.423   4.877
 5377TIP3    H116095  -0.028   2.393   4.786
 5377TIP3    H216096   0.016   2.510   4.872
 5378TIP3   OH216097   1.504   4.898   1.978
 5378TIP3    H116098   1.418   4.858   1.965
 5378TIP3    H216099   1.511   4.909   2.073
 5379TIP3   OH216100   6.708   2.491   3.809
 5379TIP3    H116101   6.799   2.510   3.832
 5379TIP3    H216102   6.694   2.400   3.836
 5380TIP3   OH216103   5.862   1.010   0.749
 5380TIP3    H116104   5.776   1.003   0.791
 5380TIP3    H216105   5.884   1.103   0.756
 5381TIP3   OH216106   0.690   2.991   4.827
 5381TIP3    H116107   0.725   2.904   4.849
 5381TIP3    H216108   0.766   3.041   4.799
 5382TIP3   OH216109   4.842   6.300   2.660
 5382TIP3    H116110   4.785   6.356   2.713
 5382TIP3    H216111   4.872   6.357   2.589
 5383TIP3   OH216112   1.261   3.344   4.499
 5383TIP3    H116113   1.289   3.253   4.508
 5383TIP3    H216114   1.242   3.353   4.406
 5384TIP3   OH216115   0.771   3.185   5.752
 5384TIP3    H116116   0.802   3.236   5.677
 5384TIP3    H216117   0.709   3.242   5.796
 5385TIP3   OH216118   3.273   3.703   0.335
 5385TIP3    H116119   3.342   3.769   0.337
 5385TIP3    H216120   3.319   3.621   0.315
 5386TIP3   OH216121   3.897   1.370   2.561
 5386TIP3    H116122   3.924   1.451   2.604
 5386TIP3    H216123   3.867   1.313   2.632
 5387TIP3   OH216124   2.204   0.315   0.676
 5387TIP3    H116125   2.203   0.410   0.665
 5387TIP3    H216126   2.262   0.284   0.607
 5388TIP3   OH216127   2.852   4.161   0.185
 5388TIP3    H116128   2.782   4.111   0.228
 5388TIP3    H216129   2.915   4.094   0.157
 5389TIP3   OH216130   1.290   5.618   5.110
 5389TIP3    H116131   1.302   5.569   5.192
 5389TIP3    H216132   1.298   5.552   5.041
 5390TIP3   OH216133   2.922   3.590   3.062
 5390TIP3    H116134   2.929   3.603   2.967
 5390TIP3    H216135   2.828   3.597   3.079
 5391TIP3   OH216136   5.589   2.040   5.019
 5391TIP3    H116137   5.613   2.067   5.108
 5391TIP3    H216138   5.671   2.015   4.978
 5392TIP3   OH216139   5.098   3.420   4.271
 5392TIP3    H116140   5.070   3.448   4.358
 5392TIP3    H216141   5.154   3.492   4.240
 5393TIP3   OH216142   1.079   3.533   2.909
 5393TIP3    H116143   1.094   3.617   2.953
 5393TIP3    H216144   1.140   3.533   2.835
 5394TIP3   OH216145   2.257   2.296   1.316
 5394TIP3    H116146   2.269   2.311   1.410
 5394TIP3    H216147   2.241   2.383   1.280
 5395TIP3   OH216148   1.521   4.728   2.547
 5395TIP3    H116149   1.562   4.667   2.607
 5395TIP3    H216150   1.578   4.728   2.470
 5396TIP3   OH216151   2.290   1.107   1.532
 5396TIP3    H116152   2.356   1.055   1.487
 5396TIP3    H216153   2.333   1.190   1.550
 5397TIP3   OH216154   1.594   5.626   5.225
 5397TIP3    H116155   1.600   5.689   5.297
 5397TIP3    H216156   1.644   5.666   5.154
 5398TIP3   OH216157   1.498   3.576   3.681
 5398TIP3    H116158   1.518   3.517   3.608
 5398TIP3    H216159   1.404   3.564   3.696
 5399TIP3   OH216160   3.867   5.936   3.333
 5399TIP3    H116161   3.839   5.894   3.251
 5399TIP3    H216162   3.791   5.931   3.390
 5400TIP3   OH216163   6.995   6.440   3.054
 5400TIP3    H116164   7.005   6.534   3.040
 5400TIP3    H216165   6.911   6.418   3.014
 5401TIP3   OH216166   5.769   5.350   4.422
 5401TIP3    H116167   5.826   5.425   4.432
 5401TIP3    H216168   5.827   5.279   4.395
 5402TIP3   OH216169   1.768   5.465   4.798
 5402TIP3    H116170   1.822   5.511   4.862
 5402TIP3    H216171   1.713   5.533   4.759
 5403TIP3   OH216172   1.061   6.405   4.494
 5403TIP3    H116173   1.037   6.355   4.572
 5403TIP3    H216174   1.108   6.343   4.438
 5404TIP3   OH216175   4.068   6.427   5.771
 5404TIP3    H116176   3.978   6.403   5.794
 5404TIP3    H216177   4.059   6.507   5.720
 5405TIP3   OH216178   0.223   5.444   2.630
 5405TIP3    H116179   0.273   5.476   2.705
 5405TIP3    H216180   0.263   5.360   2.608
 5406TIP3   OH216181   0.414   6.262   5.909
 5406TIP3    H116182   0.486   6.244   5.849
 5406TIP3    H216183   0.354   6.188   5.899
 5407TIP3   OH216184   3.181   6.583   4.673
 5407TIP3    H116185   3.188   6.639   4.595
 5407TIP3    H216186   3.267   6.543   4.682
 5408TIP3   OH216187   5.991   5.236   1.671
 5408TIP3    H116188   6.055   5.230   1.601
 5408TIP3    H216189   6.000   5.153   1.719
 5409TIP3   OH216190   4.815   5.358   2.562
 5409TIP3    H116191   4.799   5.338   2.469
 5409TIP3    H216192   4.736   5.326   2.606
 5410TIP3   OH216193   4.338   1.469   2.959
 5410TIP3    H116194   4.395   1.396   2.980
 5410TIP3    H216195   4.390   1.523   2.899
 5411TIP3   OH216196   2.453   0.471   5.032
 5411TIP3    H116197   2.398   0.394   5.016
 5411TIP3    H216198   2.526   0.438   5.086
 5412TIP3   OH216199   3.475   2.015   4.386
 5412TIP3    H116200   3.412   2.049   4.323
 5412TIP3    H216201   3.550   1.989   4.333
 5413TIP3   OH216202   4.908   1.759   0.503
 5413TIP3    H116203   4.856   1.692   0.548
 5413TIP3    H216204   4.981   1.775   0.563
 5414TIP3   OH216205   1.916   1.089   4.158
 5414TIP3    H116206   1.842   1.124   4.206
 5414TIP3    H216207   1.923   1.143   4.079
 5415TIP3   OH216208   0.737   0.407   3.148
 5415TIP3    H116209   0.697   0.416   3.061
 5415TIP3    H216210   0.699   0.327   3.184
 5416TIP3   OH216211   1.540   4.699   0.808
 5416TIP3    H116212   1.456   4.719   0.847
 5416TIP3    H216213   1.603   4.755   0.855
 5417TIP3   OH216214   1.399   0.403   2.914
 5417TIP3    H116215   1.309   0.436   2.919
 5417TIP3    H216216   1.452   0.481   2.897
 5418TIP3   OH216217   2.276   5.318   2.595
 5418TIP3    H116218   2.222   5.397   2.590
 5418TIP3    H216219   2.256   5.280   2.680
 5419TIP3   OH216220   7.186   5.205   4.291
 5419TIP3    H116221   7.212   5.224   4.201
 5419TIP3    H216222   7.202   5.111   4.302
 5420TIP3   OH216223   5.228   2.234   3.519
 5420TIP3    H116224   5.149   2.257   3.569
 5420TIP3    H216225   5.301   2.264   3.574
 5421TIP3   OH216226   0.751   5.284   1.142
 5421TIP3    H116227   0.840   5.249   1.153
 5421TIP3    H216228   0.764   5.370   1.102
 5422TIP3   OH216229   0.345   1.676   3.943
 5422TIP3    H116230   0.404   1.656   3.871
 5422TIP3    H216231   0.381   1.628   4.018
 5423TIP3   OH216232   3.365   6.276   3.978
 5423TIP3    H116233   3.290   6.267   3.919
 5423TIP3    H216234   3.411   6.192   3.971
 5424TIP3   OH216235   3.981   2.445   0.129
 5424TIP3    H116236   4.046   2.376   0.118
 5424TIP3    H216237   4.027   2.525   0.106
 5425TIP3   OH216238   5.550   2.955   2.955
 5425TIP3    H116239   5.603   2.887   2.914
 5425TIP3    H216240   5.486   2.980   2.888
 5426TIP3   OH216241   7.076   0.028   0.446
 5426TIP3    H116242   7.165   0.052   0.471
 5426TIP3    H216243   7.026   0.109   0.458
 5427TIP3   OH216244   3.694   2.849   2.323
 5427TIP3    H116245   3.622   2.800   2.361
 5427TIP3    H216246   3.758   2.858   2.394
 5428TIP3   OH216247   2.090   1.468   3.390
 5428TIP3    H116248   2.086   1.396   3.454
 5428TIP3    H216249   2.154   1.529   3.426
 5429TIP3   OH216250   5.400   2.020   2.403
 5429TIP3    H116251   5.406   1.943   2.345
 5429TIP3    H216252   5.468   2.006   2.468
 5430TIP3   OH216253   0.259   5.716   5.171
 5430TIP3    H116254   0.164   5.716   5.159
 5430TIP3    H216255   0.272   5.728   5.265
 5431TIP3   OH216256   0.042   2.692   1.088
 5431TIP3    H116257   0.105   2.750   1.129
 5431TIP3    H216258   0.087   2.655   1.012
 5432TIP3   OH216259   3.956   4.401   4.033
 5432TIP3    H116260   4.013   4.431   3.961
 5432TIP3    H216261   3.968   4.467   4.101
 5433TIP3   OH216262   4.318   5.734   1.265
 5433TIP3    H116263   4.259   5.768   1.198
 5433TIP3    H216264   4.275   5.756   1.348
 5434TIP3   OH216265   5.705   2.104   3.137
 5434TIP3    H116266   5.630   2.161   3.152
 5434TIP3    H216267   5.697   2.035   3.203
 5435TIP3   OH216268   5.864   5.057   4.163
 5435TIP3    H116269   5.890   4.966   4.145
 5435TIP3    H216270   5.946   5.104   4.174
 5436TIP3   OH216271   1.055   1.693   1.516
 5436TIP3    H116272   1.082   1.705   1.607
 5436TIP3    H216273   1.131   1.719   1.464
 5437TIP3   OH216274   0.055   0.395   5.111
 5437TIP3    H116275   0.117   0.429   5.176
 5437TIP3    H216276   0.072   0.447   5.032
 5438TIP3   OH216277   2.441   3.111   2.247
 5438TIP3    H116278   2.469   3.047   2.181
 5438TIP3    H216279   2.483   3.193   2.220
 5439TIP3   OH216280   2.079   5.706   4.429
 5439TIP3    H116281   2.089   5.629   4.485
 5439TIP3    H216282   2.167   5.723   4.396
 5440TIP3   OH216283   5.437   1.099   2.744
 5440TIP3    H116284   5.354   1.130   2.780
 5440TIP3    H216285   5.423   1.098   2.649
 5441TIP3   OH216286   1.178   0.950   2.262
 5441TIP3    H116287   1.114   0.880   2.270
 5441TIP3    H216288   1.208   0.966   2.351
 5442TIP3   OH216289   0.002   3.043   2.854
 5442TIP3    H116290   0.008   2.988   2.776
 5442TIP3    H216291   0.027   3.130   2.825
 5443TIP3   OH216292   2.948   0.633   5.086
 5443TIP3    H116293   2.934   0.601   4.996
 5443TIP3    H216294   2.910   0.721   5.086
 5444TIP3   OH216295   5.078   0.933   2.894
 5444TIP3    H116296   5.015   0.909   2.826
 5444TIP3    H216297   5.084   0.856   2.949
 5445TIP3   OH216298   2.339   5.513   3.299
 5445TIP3    H116299   2.403   5.467   3.244
 5445TIP3    H216300   2.310   5.447   3.362
 5446TIP3   OH216301   5.066   6.097   0.567
 5446TIP3    H116302   5.107   6.104   0.481
 5446TIP3    H216303   5.140   6.087   0.628
 5447TIP3   OH216304   2.720   5.088   2.470
 5447TIP3    H116305   2.742   5.177   2.498
 5447TIP3    H216306   2.714   5.038   2.552
 5448TIP3   OH216307   6.295   4.547   5.424
 5448TIP3    H116308   6.360   4.477   5.415
 5448TIP3    H216309   6.266   4.564   5.334
 5449TIP3   OH216310   1.031   6.154   1.605
 5449TIP3    H116311   1.098   6.223   1.607
 5449TIP3    H216312   1.081   6.072   1.610
 5450TIP3   OH216313   6.920   1.703   5.441
 5450TIP3    H116314   6.943   1.658   5.360
 5450TIP3    H216315   7.000   1.702   5.493
 5451TIP3   OH216316   5.980   2.993   1.253
 5451TIP3    H116317   5.914   3.018   1.318
 5451TIP3    H216318   5.932   2.989   1.170
 5452TIP3   OH216319   6.041  -0.014   0.099
 5452TIP3    H116320   5.983  -0.078   0.058
 5452TIP3    H216321   6.040   0.061   0.040
 5453TIP3   OH216322   3.207   0.547   1.590
 5453TIP3    H116323   3.132   0.487   1.596
 5453TIP3    H216324   3.271   0.500   1.536
 5454TIP3   OH216325   1.858   1.623   4.622
 5454TIP3    H116326   1.933   1.579   4.582
 5454TIP3    H216327   1.802   1.645   4.547
 5455TIP3   OH216328   1.237   5.192   3.701
 5455TIP3    H116329   1.249   5.243   3.621
 5455TIP3    H216330   1.252   5.101   3.674
 5456TIP3   OH216331   4.857   0.480   3.860
 5456TIP3    H116332   4.940   0.432   3.861
 5456TIP3    H216333   4.792   0.416   3.833
 5457TIP3   OH216334   5.307   5.682   5.093
 5457TIP3    H116335   5.336   5.699   5.004
 5457TIP3    H216336   5.352   5.749   5.146
 5458TIP3   OH216337   0.062   3.846   3.604
 5458TIP3    H116338  -0.028   3.814   3.597
 5458TIP3    H216339   0.083   3.834   3.697
 5459TIP3   OH216340   1.987   0.405   5.425
 5459TIP3    H116341   1.949   0.383   5.340
 5459TIP3    H216342   2.081   0.393   5.413
 5460TIP3   OH216343   5.326   0.083   5.646
 5460TIP3    H116344   5.241   0.078   5.690
 5460TIP3    H216345   5.332   0.174   5.616
 5461TIP3   OH216346   4.903   2.878   0.878
 5461TIP3    H116347   4.929   2.906   0.966
 5461TIP3    H216348   4.832   2.938   0.855
 5462TIP3   OH216349   1.797   3.882   2.216
 5462TIP3    H116350   1.892   3.889   2.221
 5462TIP3    H216351   1.773   3.834   2.295
 5463TIP3   OH216352   2.236   1.300   4.093
 5463TIP3    H116353   2.308   1.354   4.060
 5463TIP3    H216354   2.211   1.245   4.019
 5464TIP3   OH216355   1.579   0.579   1.342
 5464TIP3    H116356   1.568   0.491   1.378
 5464TIP3    H216357   1.672   0.598   1.354
 5465TIP3   OH216358   0.385   1.564   5.259
 5465TIP3    H116359   0.443   1.596   5.190
 5465TIP3    H216360   0.318   1.513   5.212
 5466TIP3   OH216361   6.236   2.923   5.758
 5466TIP3    H116362   6.222   3.013   5.786
 5466TIP3    H216363   6.330   2.908   5.771
 5467TIP3   OH216364   2.605   4.821   3.864
 5467TIP3    H116365   2.515   4.800   3.891
 5467TIP3    H216366   2.637   4.741   3.822
 5468TIP3   OH216367   2.461   5.052   2.364
 5468TIP3    H116368   2.427   5.141   2.364
 5468TIP3    H216369   2.549   5.060   2.402
 5469TIP3   OH216370   0.729   6.577   5.610
 5469TIP3    H116371   0.788   6.640   5.652
 5469TIP3    H216372   0.782   6.536   5.543
 5470TIP3   OH216373   0.961   6.115   1.001
 5470TIP3    H116374   0.981   6.207   0.983
 5470TIP3    H216375   0.876   6.118   1.045
 5471TIP3   OH216376   2.413   4.900   1.152
 5471TIP3    H116377   2.485   4.837   1.155
 5471TIP3    H216378   2.451   4.978   1.110
 5472TIP3   OH216379   5.127   1.618   3.541
 5472TIP3    H116380   5.159   1.536   3.579
 5472TIP3    H216381   5.066   1.590   3.473
 5473TIP3   OH216382   6.269   6.601   1.370
 5473TIP3    H116383   6.286   6.655   1.293
 5473TIP3    H216384   6.178   6.621   1.392
 5474TIP3   OH216385   1.342   1.292   1.905
 5474TIP3    H116386   1.357   1.339   1.824
 5474TIP3    H216387   1.430   1.269   1.936
 5475TIP3   OH216388   2.131   2.091   2.951
 5475TIP3    H116389   2.093   2.004   2.955
 5475TIP3    H216390   2.088   2.132   2.876
 5476TIP3   OH216391   3.949   4.109   3.338
 5476TIP3    H116392   3.898   4.140   3.264
 5476TIP3    H216393   3.886   4.063   3.394
 5477TIP3   OH216394   3.125   4.791   4.974
 5477TIP3    H116395   3.218   4.786   4.995
 5477TIP3    H216396   3.081   4.764   5.055
 5478TIP3   OH216397   3.677   6.717   4.021
 5478TIP3    H116398   3.603   6.773   4.045
 5478TIP3    H216399   3.739   6.777   3.980
 5479TIP3   OH216400   0.721   6.157   0.623
 5479TIP3    H116401   0.632   6.166   0.590
 5479TIP3    H216402   0.713   6.164   0.718
 5480TIP3   OH216403   6.359   4.482   3.783
 5480TIP3    H116404   6.274   4.512   3.751
 5480TIP3    H216405   6.392   4.426   3.714
 5481TIP3   OH216406   6.351   2.531   1.075
 5481TIP3    H116407   6.421   2.497   1.131
 5481TIP3    H216408   6.271   2.515   1.125
 5482TIP3   OH216409   6.332   6.222   4.447
 5482TIP3    H116410   6.392   6.194   4.517
 5482TIP3    H216411   6.262   6.269   4.494
 5483TIP3   OH216412   2.920   5.849   3.133
 5483TIP3    H116413   3.001   5.868   3.180
 5483TIP3    H216414   2.853   5.845   3.201
 5484TIP3   OH216415   0.600   2.474   3.131
 5484TIP3    H116416   0.535   2.403   3.129
 5484TIP3    H216417   0.563   2.542   3.075
 5485TIP3   OH216418   6.866   4.040   1.869
 5485TIP3    H116419   6.903   4.107   1.812
 5485TIP3    H216420   6.894   4.065   1.957
 5486TIP3   OH216421   5.649   5.697   4.087
 5486TIP3    H116422   5.725   5.714   4.143
 5486TIP3    H216423   5.586   5.765   4.112
 5487TIP3   OH216424   4.256   3.346   3.771
 5487TIP3    H116425   4.270   3.436   3.741
 5487TIP3    H216426   4.319   3.336   3.843
 5488TIP3   OH216427   3.273   4.623   4.451
 5488TIP3    H116428   3.311   4.567   4.383
 5488TIP3    H216429   3.334   4.618   4.524
 5489TIP3   OH216430   6.452   5.868   5.591
 5489TIP3    H116431   6.366   5.858   5.633
 5489TIP3    H216432   6.492   5.781   5.599
 5490TIP3   OH216433   5.309   4.225   3.062
 5490TIP3    H116434   5.287   4.140   3.023
 5490TIP3    H216435   5.400   4.240   3.036
 5491TIP3   OH216436   1.482   6.157   2.380
 5491TIP3    H116437   1.465   6.182   2.289
 5491TIP3    H216438   1.541   6.081   2.374
 5492TIP3   OH216439   2.094   0.771   5.219
 5492TIP3    H116440   2.054   0.780   5.305
 5492TIP3    H216441   2.174   0.722   5.234
 5493TIP3   OH216442   4.713   2.012   3.044
 5493TIP3    H116443   4.640   1.951   3.044
 5493TIP3    H216444   4.748   2.008   2.955
 5494TIP3   OH216445   2.783   6.271   4.868
 5494TIP3    H116446   2.778   6.242   4.959
 5494TIP3    H216447   2.790   6.189   4.818
 5495TIP3   OH216448   1.197   6.526   4.728
 5495TIP3    H116449   1.229   6.454   4.781
 5495TIP3    H216450   1.157   6.484   4.652
 5496TIP3   OH216451   3.075   6.455   1.427
 5496TIP3    H116452   3.156   6.456   1.478
 5496TIP3    H216453   3.093   6.395   1.355
 5497TIP3   OH216454   3.702   5.725   1.696
 5497TIP3    H116455   3.615   5.692   1.672
 5497TIP3    H216456   3.758   5.648   1.694
 5498TIP3   OH216457   0.438   4.419   0.582
 5498TIP3    H116458   0.352   4.380   0.597
 5498TIP3    H216459   0.499   4.359   0.625
 5499TIP3   OH216460   0.571   4.880   1.962
 5499TIP3    H116461   0.557   4.803   1.906
 5499TIP3    H216462   0.592   4.950   1.900
 5500TIP3   OH216463   3.857   0.310   5.012
 5500TIP3    H116464   3.777   0.326   5.061
 5500TIP3    H216465   3.839   0.231   4.961
 5501TIP3   OH216466   0.206   0.146   0.887
 5501TIP3    H116467   0.218   0.198   0.807
 5501TIP3    H216468   0.271   0.181   0.947
 5502TIP3   OH216469   6.270   0.678   5.466
 5502TIP3    H116470   6.283   0.638   5.552
 5502TIP3    H216471   6.248   0.605   5.408
 5503TIP3   OH216472   0.498   6.447   1.169
 5503TIP3    H116473   0.438   6.373   1.173
 5503TIP3    H216474   0.454   6.516   1.220
 5504TIP3   OH216475   3.857   3.330   1.060
 5504TIP3    H116476   3.835   3.243   1.027
 5504TIP3    H216477   3.868   3.383   0.982
 5505TIP3   OH216478   4.784   5.724   4.286
 5505TIP3    H116479   4.749   5.705   4.199
 5505TIP3    H216480   4.707   5.735   4.342
 5506TIP3   OH216481   2.006   5.944   1.926
 5506TIP3    H116482   1.974   5.939   2.016
 5506TIP3    H216483   2.088   5.895   1.927
 5507TIP3   OH216484   7.156   4.687   3.688
 5507TIP3    H116485   7.096   4.754   3.722
 5507TIP3    H216486   7.239   4.732   3.678
 5508TIP3   OH216487   2.190   1.471   3.841
 5508TIP3    H116488   2.226   1.392   3.801
 5508TIP3    H216489   2.266   1.528   3.854
 5509TIP3   OH216490   4.339   6.382   3.030
 5509TIP3    H116491   4.411   6.321   3.014
 5509TIP3    H216492   4.260   6.328   3.020
 5510TIP3   OH216493   6.125   3.691   1.733
 5510TIP3    H116494   6.208   3.702   1.688
 5510TIP3    H216495   6.095   3.604   1.709
 5511TIP3   OH216496   6.015   1.688   5.711
 5511TIP3    H116497   5.953   1.624   5.746
 5511TIP3    H216498   6.064   1.718   5.788
 5512TIP3   OH216499   0.145   4.358   5.097
 5512TIP3    H116500   0.211   4.406   5.147
 5512TIP3    H216501   0.180   4.270   5.089
 5513TIP3   OH216502   0.512   1.744   5.083
 5513TIP3    H116503   0.485   1.746   4.991
 5513TIP3    H216504   0.483   1.829   5.118
 5514TIP3   OH216505   4.105   3.295   5.354
 5514TIP3    H116506   4.018   3.276   5.390
 5514TIP3    H216507   4.089   3.358   5.284
 5515TIP3   OH216508   3.973   2.722   1.751
 5515TIP3    H116509   4.051   2.777   1.744
 5515TIP3    H216510   4.007   2.633   1.761
 5516TIP3   OH216511   5.870   6.530   4.005
 5516TIP3    H116512   5.792   6.489   4.043
 5516TIP3    H216513   5.877   6.614   4.050
 5517TIP3   OH216514   0.633   4.424   3.179
 5517TIP3    H116515   0.710   4.436   3.235
 5517TIP3    H216516   0.562   4.405   3.240
 5518TIP3   OH216517   3.257   1.463   1.015
 5518TIP3    H116518   3.311   1.477   0.938
 5518TIP3    H216519   3.270   1.542   1.068
 5519TIP3   OH216520   1.518   6.308   5.539
 5519TIP3    H116521   1.515   6.402   5.555
 5519TIP3    H216522   1.611   6.286   5.538
 5520TIP3   OH216523   2.150   1.922   2.619
 5520TIP3    H116524   2.056   1.925   2.639
 5520TIP3    H216525   2.191   1.973   2.688
 5521TIP3   OH216526   2.168   3.257   2.767
 5521TIP3    H116527   2.091   3.303   2.801
 5521TIP3    H216528   2.239   3.283   2.825
 5522TIP3   OH216529   4.324   1.920   5.464
 5522TIP3    H116530   4.264   1.985   5.428
 5522TIP3    H216531   4.319   1.845   5.405
 5523TIP3   OH216532   1.233   5.013   5.217
 5523TIP3    H116533   1.253   4.920   5.217
 5523TIP3    H216534   1.158   5.022   5.276
 5524TIP3   OH216535   6.129   2.512   4.178
 5524TIP3    H116536   6.207   2.559   4.208
 5524TIP3    H216537   6.056   2.564   4.209
 5525TIP3   OH216538   4.469   0.240   0.277
 5525TIP3    H116539   4.467   0.150   0.245
 5525TIP3    H216540   4.555   0.249   0.318
 5526TIP3   OH216541   1.476   4.619   4.936
 5526TIP3    H116542   1.476   4.523   4.941
 5526TIP3    H216543   1.403   4.640   4.878
 5527TIP3   OH216544   4.413   1.503   5.168
 5527TIP3    H116545   4.442   1.486   5.079
 5527TIP3    H216546   4.349   1.434   5.186
 5528TIP3   OH216547   1.644   0.091   4.969
 5528TIP3    H116548   1.652  -0.005   4.975
 5528TIP3    H216549   1.734   0.123   4.982
 5529TIP3   OH216550   1.219   3.706   0.429
 5529TIP3    H116551   1.137   3.659   0.442
 5529TIP3    H216552   1.208   3.788   0.478
 5530TIP3   OH216553   3.641   2.546   2.754
 5530TIP3    H116554   3.693   2.587   2.822
 5530TIP3    H216555   3.553   2.581   2.767
 5531TIP3   OH216556   2.325   5.206   3.100
 5531TIP3    H116557   2.243   5.205   3.150
 5531TIP3    H216558   2.359   5.116   3.108
 5532TIP3   OH216559   1.216   2.982   2.702
 5532TIP3    H116560   1.126   3.000   2.730
 5532TIP3    H216561   1.257   2.941   2.778
 5533TIP3   OH216562   3.355   3.103   1.711
 5533TIP3    H116563   3.328   3.020   1.750
 5533TIP3    H216564   3.290   3.167   1.741
 5534TIP3   OH216565   2.659   4.737   2.033
 5534TIP3    H116566   2.577   4.708   1.994
 5534TIP3    H216567   2.639   4.822   2.072
 5535TIP3   OH216568   0.933   1.602   2.012
 5535TIP3    H116569   0.983   1.607   1.931
 5535TIP3    H216570   0.929   1.692   2.044
 5536TIP3   OH216571   4.551   6.300   0.238
 5536TIP3    H116572   4.462   6.281   0.269
 5536TIP3    H216573   4.567   6.234   0.170
 5537TIP3   OH216574   3.991   3.327   1.677
 5537TIP3    H116575   4.008   3.271   1.601
 5537TIP3    H216576   4.078   3.357   1.704
 5538TIP3   OH216577   3.335   5.037   2.921
 5538TIP3    H116578   3.261   4.995   2.965
 5538TIP3    H216579   3.410   5.019   2.977
 5539TIP3   OH216580   5.038   0.202   5.374
 5539TIP3    H116581   4.981   0.185   5.299
 5539TIP3    H216582   5.110   0.140   5.364
 5540TIP3   OH216583   5.985   4.274   3.248
 5540TIP3    H116584   5.988   4.284   3.153
 5540TIP3    H216585   5.933   4.195   3.262
 5541TIP3   OH216586   5.887   5.359   2.984
 5541TIP3    H116587   5.927   5.292   2.930
 5541TIP3    H216588   5.803   5.378   2.942
 5542TIP3   OH216589   6.121   3.792   3.122
 5542TIP3    H116590   6.127   3.718   3.062
 5542TIP3    H216591   6.072   3.759   3.197
 5543TIP3   OH216592   4.290   1.049   5.761
 5543TIP3    H116593   4.229   1.122   5.774
 5543TIP3    H216594   4.375   1.084   5.786
 5544TIP3   OH216595   0.799   1.561   0.561
 5544TIP3    H116596   0.832   1.644   0.594
 5544TIP3    H216597   0.872   1.500   0.571
 5545TIP3   OH216598   2.686   2.395   0.289
 5545TIP3    H116599   2.724   2.480   0.268
 5545TIP3    H216600   2.715   2.378   0.379
 5546TIP3   OH216601   1.468   6.131   3.740
 5546TIP3    H116602   1.525   6.206   3.725
 5546TIP3    H216603   1.395   6.143   3.679
 5547TIP3   OH216604   1.896   4.634   0.706
 5547TIP3    H116605   1.889   4.630   0.802
 5547TIP3    H216606   1.990   4.636   0.689
 5548TIP3   OH216607   5.126   5.071   0.035
 5548TIP3    H116608   5.171   5.077   0.120
 5548TIP3    H216609   5.196   5.049  -0.027
 5549TIP3   OH216610   2.408   3.362   0.047
 5549TIP3    H116611   2.391   3.427   0.115
 5549TIP3    H216612   2.502   3.367   0.031
 5550TIP3   OH216613   6.693   2.286   5.075
 5550TIP3    H116614   6.611   2.267   5.030
 5550TIP3    H216615   6.720   2.371   5.041
 5551TIP3   OH216616   1.071   3.778   3.058
 5551TIP3    H116617   0.978   3.793   3.074
 5551TIP3    H216618   1.112   3.863   3.073
 5552TIP3   OH216619   5.645   6.091   2.445
 5552TIP3    H116620   5.666   6.179   2.475
 5552TIP3    H216621   5.592   6.054   2.516
 5553TIP3   OH216622   6.491   0.347   1.956
 5553TIP3    H116623   6.506   0.278   1.891
 5553TIP3    H216624   6.528   0.312   2.037
 5554TIP3   OH216625   1.864   1.627   4.046
 5554TIP3    H116626   1.940   1.609   4.101
 5554TIP3    H216627   1.870   1.720   4.025
 5555TIP3   OH216628   6.759   0.384   4.394
 5555TIP3    H116629   6.791   0.329   4.465
 5555TIP3    H216630   6.838   0.407   4.344
 5556TIP3   OH216631   1.405   1.109   4.753
 5556TIP3    H116632   1.458   1.059   4.691
 5556TIP3    H216633   1.414   1.061   4.836
 5557TIP3   OH216634   1.050   3.212   1.503
 5557TIP3    H116635   0.967   3.176   1.533
 5557TIP3    H216636   1.033   3.238   1.412
 5558TIP3   OH216637   0.395   0.397   0.132
 5558TIP3    H116638   0.366   0.477   0.176
 5558TIP3    H216639   0.448   0.427   0.058
 5559TIP3   OH216640   2.653   5.140   0.025
 5559TIP3    H116641   2.648   5.160  -0.068
 5559TIP3    H216642   2.669   5.046   0.029
 5560TIP3   OH216643   6.094   2.325   1.820
 5560TIP3    H116644   6.098   2.417   1.844
 5560TIP3    H216645   6.064   2.280   1.899
 5561TIP3   OH216646   5.804   4.227   4.370
 5561TIP3    H116647   5.898   4.242   4.383
 5561TIP3    H216648   5.764   4.257   4.452
 5562TIP3   OH216649   3.606   1.851   3.812
 5562TIP3    H116650   3.691   1.842   3.856
 5562TIP3    H216651   3.619   1.809   3.727
 5563TIP3   OH216652   5.970   1.914   3.139
 5563TIP3    H116653   5.897   1.916   3.076
 5563TIP3    H216654   6.048   1.928   3.085
 5564TIP3   OH216655   4.412   5.018   0.507
 5564TIP3    H116656   4.328   5.062   0.520
 5564TIP3    H216657   4.394   4.926   0.525
 5565TIP3   OH216658   0.589   4.564   2.053
 5565TIP3    H116659   0.655   4.578   2.121
 5565TIP3    H216660   0.534   4.493   2.088
 5566TIP3   OH216661   6.079   0.745   5.116
 5566TIP3    H116662   6.026   0.672   5.086
 5566TIP3    H216663   6.021   0.796   5.173
 5567TIP3   OH216664   6.843   1.648   3.518
 5567TIP3    H116665   6.815   1.625   3.430
 5567TIP3    H216666   6.894   1.573   3.548
 5568TIP3   OH216667   5.800   3.375   0.981
 5568TIP3    H116668   5.747   3.342   0.909
 5568TIP3    H216669   5.771   3.325   1.057
 5569TIP3   OH216670   2.876   1.106   2.730
 5569TIP3    H116671   2.953   1.160   2.712
 5569TIP3    H216672   2.912   1.020   2.754
 5570TIP3   OH216673   6.572   6.379   5.181
 5570TIP3    H116674   6.563   6.457   5.235
 5570TIP3    H216675   6.655   6.392   5.134
 5571TIP3   OH216676   6.203   5.973   5.275
 5571TIP3    H116677   6.277   5.942   5.222
 5571TIP3    H216678   6.154   5.893   5.296
 5572TIP3   OH216679   2.993   3.159   0.554
 5572TIP3    H116680   2.975   3.225   0.622
 5572TIP3    H216681   2.908   3.137   0.518
 5573TIP3   OH216682   1.063   1.282   5.664
 5573TIP3    H116683   1.055   1.356   5.603
 5573TIP3    H216684   1.083   1.207   5.608
 5574TIP3   OH216685   4.544   4.882   5.884
 5574TIP3    H116686   4.590   4.855   5.805
 5574TIP3    H216687   4.485   4.952   5.855
 5575TIP3   OH216688   2.146   6.755   4.674
 5575TIP3    H116689   2.124   6.666   4.645
 5575TIP3    H216690   2.063   6.792   4.702
 5576TIP3   OH216691   4.207   1.506   5.852
 5576TIP3    H116692   4.189   1.547   5.767
 5576TIP3    H216693   4.187   1.413   5.838
 5577TIP3   OH216694   4.447   5.884   1.861
 5577TIP3    H116695   4.363   5.926   1.844
 5577TIP3    H216696   4.510   5.956   1.867
 5578TIP3   OH216697   2.404   2.052   0.787
 5578TIP3    H116698   2.455   2.125   0.823
 5578TIP3    H216699   2.445   1.974   0.823
 5579TIP3   OH216700   2.588   2.093   2.428
 5579TIP3    H116701   2.661   2.119   2.484
 5579TIP3    H216702   2.521   2.160   2.444
 5580TIP3   OH216703   3.215   0.885   1.398
 5580TIP3    H116704   3.153   0.956   1.416
 5580TIP3    H216705   3.226   0.841   1.482
 5581TIP3   OH216706   0.745   5.241   1.617
 5581TIP3    H116707   0.814   5.269   1.677
 5581TIP3    H216708   0.692   5.179   1.668
 5582TIP3   OH216709   2.669   6.037   5.654
 5582TIP3    H116710   2.693   6.101   5.721
 5582TIP3    H216711   2.588   5.999   5.686
 5583TIP3   OH216712   3.291   3.695   5.345
 5583TIP3    H116713   3.203   3.662   5.363
 5583TIP3    H216714   3.281   3.790   5.345
 5584TIP3   OH216715   1.382   1.831   2.689
 5584TIP3    H116716   1.462   1.783   2.709
 5584TIP3    H216717   1.311   1.770   2.711
 5585TIP3   OH216718   4.071   4.993   1.390
 5585TIP3    H116719   4.087   5.003   1.484
 5585TIP3    H216720   4.003   5.058   1.370
 5586TIP3   OH216721  -0.005   2.353   3.760
 5586TIP3    H116722   0.035   2.345   3.673
 5586TIP3    H216723  -0.029   2.264   3.784
 5587TIP3   OH216724   3.885   1.422   3.442
 5587TIP3    H116725   3.949   1.371   3.392
 5587TIP3    H216726   3.862   1.365   3.515
 5588TIP3   OH216727   4.029   1.458   2.162
 5588TIP3    H116728   3.984   1.539   2.140
 5588TIP3    H216729   3.959   1.395   2.178
 5589TIP3   OH216730   2.034   4.166   2.114
 5589TIP3    H116731   1.953   4.120   2.092
 5589TIP3    H216732   2.101   4.123   2.060
 5590TIP3   OH216733   2.937   3.878   5.796
 5590TIP3    H116734   3.011   3.855   5.739
 5590TIP3    H216735   2.903   3.959   5.759
 5591TIP3   OH216736   4.810   4.077   2.832
 5591TIP3    H116737   4.775   4.013   2.894
 5591TIP3    H216738   4.892   4.039   2.802
 5592TIP3   OH216739   1.538   2.745   3.578
 5592TIP3    H116740   1.475   2.694   3.628
 5592TIP3    H216741   1.588   2.680   3.529
 5593TIP3   OH216742   0.114   0.871   4.371
 5593TIP3    H116743   0.092   0.782   4.345
 5593TIP3    H216744   0.191   0.893   4.318
 5594TIP3   OH216745   7.095   5.641   3.643
 5594TIP3    H116746   7.175   5.633   3.696
 5594TIP3    H216747   7.114   5.713   3.583
 5595TIP3   OH216748   1.728   0.110   2.251
 5595TIP3    H116749   1.724   0.135   2.159
 5595TIP3    H216750   1.639   0.122   2.283
 5596TIP3   OH216751   6.848   4.808   4.691
 5596TIP3    H116752   6.889   4.737   4.741
 5596TIP3    H216753   6.922   4.858   4.656
 5597TIP3   OH216754   2.950   4.011   0.641
 5597TIP3    H116755   3.034   4.008   0.596
 5597TIP3    H216756   2.886   3.983   0.574
 5598TIP3   OH216757   6.289   6.382   0.295
 5598TIP3    H116758   6.196   6.401   0.297
 5598TIP3    H216759   6.320   6.419   0.212
 5599TIP3   OH216760   2.811   5.922   1.547
 5599TIP3    H116761   2.744   5.937   1.614
 5599TIP3    H216762   2.873   5.993   1.560
 5600TIP3   OH216763   0.190   4.288   0.612
 5600TIP3    H116764   0.215   4.196   0.602
 5600TIP3    H216765   0.112   4.298   0.557
 5601TIP3   OH216766   1.077   2.177   0.924
 5601TIP3    H116767   1.172   2.170   0.916
 5601TIP3    H216768   1.044   2.093   0.892
 5602TIP3   OH216769   6.094   0.140   5.557
 5602TIP3    H116770   6.133   0.103   5.478
 5602TIP3    H216771   6.000   0.127   5.546
 5603TIP3   OH216772   7.083   4.263   3.612
 5603TIP3    H116773   7.024   4.299   3.677
 5603TIP3    H216774   7.070   4.168   3.618
 5604TIP3   OH216775   3.369   4.676   2.822
 5604TIP3    H116776   3.418   4.669   2.904
 5604TIP3    H216777   3.375   4.588   2.784
 5605TIP3   OH216778   5.393   0.614   3.167
 5605TIP3    H116779   5.470   0.665   3.143
 5605TIP3    H216780   5.384   0.627   3.261
 5606TIP3   OH216781   2.177   1.681   4.422
 5606TIP3    H116782   2.131   1.624   4.360
 5606TIP3    H216783   2.142   1.769   4.404
 5607TIP3   OH216784   2.120   2.309   0.873
 5607TIP3    H116785   2.027   2.291   0.859
 5607TIP3    H216786   2.132   2.399   0.845
 5608TIP3   OH216787   2.145   2.558   1.840
 5608TIP3    H116788   2.072   2.499   1.820
 5608TIP3    H216789   2.141   2.625   1.772
 5609TIP3   OH216790   1.677   6.536   1.083
 5609TIP3    H116791   1.625   6.555   1.162
 5609TIP3    H216792   1.671   6.617   1.031
 5610TIP3   OH216793   7.074   0.124   1.218
 5610TIP3    H116794   7.103   0.094   1.131
 5610TIP3    H216795   7.056   0.217   1.206
 5611TIP3   OH216796   0.424   2.309   3.553
 5611TIP3    H116797   0.375   2.391   3.545
 5611TIP3    H216798   0.374   2.246   3.502
 5612TIP3   OH216799   3.737   6.026   2.119
 5612TIP3    H116800   3.769   6.021   2.029
 5612TIP3    H216801   3.796   5.970   2.169
 5613TIP3   OH216802   3.444   3.145   5.348
 5613TIP3    H116803   3.477   3.234   5.334
 5613TIP3    H216804   3.458   3.128   5.441
 5614TIP3   OH216805   6.698   6.029   1.386
 5614TIP3    H116806   6.619   6.026   1.440
 5614TIP3    H216807   6.720   6.122   1.381
 5615TIP3   OH216808   3.486   5.368   1.496
 5615TIP3    H116809   3.486   5.335   1.586
 5615TIP3    H216810   3.495   5.463   1.505
 5616TIP3   OH216811   0.283   2.760   1.752
 5616TIP3    H116812   0.188   2.755   1.739
 5616TIP3    H216813   0.294   2.772   1.847
 5617TIP3   OH216814   5.985   2.831   0.283
 5617TIP3    H116815   5.914   2.768   0.276
 5617TIP3    H216816   5.961   2.902   0.223
 5618TIP3   OH216817   6.990   4.307   5.179
 5618TIP3    H116818   7.008   4.275   5.092
 5618TIP3    H216819   7.054   4.264   5.236
 5619TIP3   OH216820   0.735   1.395   1.963
 5619TIP3    H116821   0.724   1.381   2.057
 5619TIP3    H216822   0.811   1.453   1.956
 5620TIP3   OH216823   3.084   2.024   5.475
 5620TIP3    H116824   3.155   1.967   5.503
 5620TIP3    H216825   3.096   2.031   5.380
 5621TIP3   OH216826   1.756   3.719   3.297
 5621TIP3    H116827   1.793   3.793   3.248
 5621TIP3    H216828   1.736   3.654   3.229
 5622TIP3   OH216829   5.735   5.708   4.626
 5622TIP3    H116830   5.779   5.773   4.680
 5622TIP3    H216831   5.647   5.743   4.613
 5623TIP3   OH216832   5.144   2.286   4.739
 5623TIP3    H116833   5.067   2.301   4.684
 5623TIP3    H216834   5.108   2.268   4.826
 5624TIP3   OH216835   7.116   4.332   0.142
 5624TIP3    H116836   7.165   4.296   0.069
 5624TIP3    H216837   7.048   4.386   0.101
 5625TIP3   OH216838   1.486   4.993   0.176
 5625TIP3    H116839   1.449   5.073   0.211
 5625TIP3    H216840   1.552   4.966   0.240
 5626TIP3   OH216841   4.628   4.563   4.565
 5626TIP3    H116842   4.623   4.654   4.535
 5626TIP3    H216843   4.686   4.566   4.641
 5627TIP3   OH216844   4.591   1.694   0.408
 5627TIP3    H116845   4.610   1.787   0.414
 5627TIP3    H216846   4.498   1.687   0.431
 5628TIP3   OH216847   3.771   4.754   1.384
 5628TIP3    H116848   3.685   4.723   1.412
 5628TIP3    H216849   3.795   4.819   1.450
 5629TIP3   OH216850   2.584   2.826   4.648
 5629TIP3    H116851   2.526   2.750   4.655
 5629TIP3    H216852   2.570   2.859   4.559
 5630TIP3   OH216853   7.118   3.764   1.017
 5630TIP3    H116854   7.047   3.797   1.072
 5630TIP3    H216855   7.112   3.814   0.936
 5631TIP3   OH216856   4.829   4.128   3.489
 5631TIP3    H116857   4.897   4.189   3.519
 5631TIP3    H216858   4.760   4.136   3.554
 5632TIP3   OH216859   3.954   5.223   1.300
 5632TIP3    H116860   3.879   5.254   1.351
 5632TIP3    H216861   3.933   5.248   1.210
 5633TIP3   OH216862   4.199   2.681   2.390
 5633TIP3    H116863   4.137   2.658   2.320
 5633TIP3    H216864   4.172   2.628   2.465
 5634TIP3   OH216865   0.450   1.422   0.226
 5634TIP3    H116866   0.497   1.345   0.195
 5634TIP3    H216867   0.381   1.388   0.283
 5635TIP3   OH216868   2.666   0.474   1.162
 5635TIP3    H116869   2.586   0.504   1.119
 5635TIP3    H216870   2.730   0.543   1.145
 5636TIP3   OH216871   3.904   2.018   5.580
 5636TIP3    H116872   3.906   1.924   5.561
 5636TIP3    H216873   3.861   2.025   5.665
 5637TIP3   OH216874   7.151   5.114   0.064
 5637TIP3    H116875   7.197   5.073  -0.010
 5637TIP3    H216876   7.089   5.048   0.094
 5638TIP3   OH216877   3.794   2.927   1.363
 5638TIP3    H116878   3.798   2.891   1.274
 5638TIP3    H216879   3.742   3.007   1.354
 5639TIP3   OH216880   2.808   4.391   5.353
 5639TIP3    H116881   2.878   4.438   5.398
 5639TIP3    H216882   2.843   4.373   5.266
 5640TIP3   OH216883   6.693   5.184   2.740
 5640TIP3    H116884   6.609   5.151   2.773
 5640TIP3    H216885   6.728   5.112   2.688
 5641TIP3   OH216886   2.417   4.552   2.756
 5641TIP3    H116887   2.369   4.563   2.674
 5641TIP3    H216888   2.504   4.588   2.738
 5642TIP3   OH216889   4.068   5.009   4.432
 5642TIP3    H116890   4.057   5.104   4.436
 5642TIP3    H216891   4.120   4.988   4.510
 5643TIP3   OH216892   0.231   5.775   1.871
 5643TIP3    H116893   0.315   5.728   1.874
 5643TIP3    H216894   0.211   5.783   1.777
 5644TIP3   OH216895   7.086   5.574   4.827
 5644TIP3    H116896   7.176   5.541   4.837
 5644TIP3    H216897   7.054   5.531   4.748
 5645TIP3   OH216898   1.400   5.267   3.976
 5645TIP3    H116899   1.452   5.241   3.900
 5645TIP3    H216900   1.324   5.311   3.938
 5646TIP3   OH216901   2.129   0.412   0.127
 5646TIP3    H116902   2.122   0.352   0.053
 5646TIP3    H216903   2.049   0.399   0.176
 5647TIP3   OH216904   1.749   0.330   2.571
 5647TIP3    H116905   1.808   0.255   2.579
 5647TIP3    H216906   1.705   0.317   2.487
 5648TIP3   OH216907   5.148   6.148   0.960
 5648TIP3    H116908   5.069   6.199   0.977
 5648TIP3    H216909   5.150   6.083   1.030
 5649TIP3   OH216910   2.282   4.627   0.947
 5649TIP3    H116911   2.240   4.562   1.003
 5649TIP3    H216912   2.343   4.577   0.893
 5650TIP3   OH216913   4.548   5.855   2.436
 5650TIP3    H116914   4.580   5.944   2.422
 5650TIP3    H216915   4.512   5.829   2.351
 5651TIP3   OH216916   0.405   6.739   2.678
 5651TIP3    H116917   0.482   6.690   2.648
 5651TIP3    H216918   0.400   6.719   2.772
 5652TIP3   OH216919   4.468   3.553   0.761
 5652TIP3    H116920   4.445   3.554   0.854
 5652TIP3    H216921   4.544   3.496   0.756
 5653TIP3   OH216922   6.432   0.877   2.906
 5653TIP3    H116923   6.494   0.804   2.906
 5653TIP3    H216924   6.406   0.887   2.815
 5654TIP3   OH216925   2.484   3.041   3.522
 5654TIP3    H116926   2.397   3.001   3.514
 5654TIP3    H216927   2.545   2.966   3.519
 5655TIP3   OH216928   2.333   6.758   3.019
 5655TIP3    H116929   2.409   6.798   2.976
 5655TIP3    H216930   2.366   6.732   3.105
 5656TIP3   OH216931   1.366   1.935   4.985
 5656TIP3    H116932   1.350   1.894   4.901
 5656TIP3    H216933   1.442   1.889   5.020
 5657TIP3   OH216934   0.142   1.766   5.653
 5657TIP3    H116935   0.149   1.706   5.578
 5657TIP3    H216936   0.058   1.810   5.641
 5658TIP3   OH216937   2.985   5.669   2.957
 5658TIP3    H116938   3.044   5.705   2.891
 5658TIP3    H216939   2.950   5.746   3.002
 5659TIP3   OH216940   0.578   0.917   2.146
 5659TIP3    H116941   0.636   0.990   2.169
 5659TIP3    H216942   0.633   0.858   2.094
 5660TIP3   OH216943   5.003   4.502   2.083
 5660TIP3    H116944   5.061   4.488   2.009
 5660TIP3    H216945   4.947   4.425   2.085
 5661TIP3   OH216946   4.198   0.049   2.062
 5661TIP3    H116947   4.281   0.004   2.076
 5661TIP3    H216948   4.218   0.142   2.075
 5662TIP3   OH216949   5.873   1.804   3.793
 5662TIP3    H116950   5.836   1.890   3.814
 5662TIP3    H216951   5.813   1.768   3.728
 5663TIP3   OH216952   2.154   5.340   0.493
 5663TIP3    H116953   2.091   5.412   0.497
 5663TIP3    H216954   2.102   5.261   0.509
 5664TIP3   OH216955   6.013   3.487   3.477
 5664TIP3    H116956   6.050   3.522   3.396
 5664TIP3    H216957   5.940   3.432   3.449
 5665TIP3   OH216958   7.020   0.252   5.104
 5665TIP3    H116959   6.933   0.280   5.075
 5665TIP3    H216960   7.063   0.334   5.131
 5666TIP3   OH216961   5.319   1.473   0.702
 5666TIP3    H116962   5.337   1.491   0.794
 5666TIP3    H216963   5.225   1.487   0.692
 5667TIP3   OH216964   1.335   5.990   4.334
 5667TIP3    H116965   1.379   5.968   4.252
 5667TIP3    H216966   1.242   5.975   4.316
 5668TIP3   OH216967   4.852   5.375   1.433
 5668TIP3    H116968   4.880   5.348   1.346
 5668TIP3    H216969   4.868   5.299   1.489
 5669TIP3   OH216970   4.675   3.311   1.017
 5669TIP3    H116971   4.609   3.241   1.021
 5669TIP3    H216972   4.758   3.265   1.006
 5670TIP3   OH216973  -0.047   4.942   1.891
 5670TIP3    H116974   0.002   4.941   1.809
 5670TIP3    H216975   0.021   4.948   1.959
 5671TIP3   OH216976   3.144   2.007   2.304
 5671TIP3    H116977   3.239   2.010   2.309
 5671TIP3    H216978   3.124   1.922   2.264
 5672TIP3   OH216979   3.545   5.341   0.175
 5672TIP3    H116980   3.538   5.426   0.219
 5672TIP3    H216981   3.462   5.297   0.197
 5673TIP3   OH216982   4.188   5.283   1.577
 5673TIP3    H116983   4.171   5.190   1.597
 5673TIP3    H216984   4.246   5.281   1.502
 5674TIP3   OH216985   1.391   6.005   0.299
 5674TIP3    H116986   1.440   6.056   0.234
 5674TIP3    H216987   1.409   6.048   0.382
 5675TIP3   OH216988   2.447   5.498   4.861
 5675TIP3    H116989   2.414   5.454   4.782
 5675TIP3    H216990   2.383   5.566   4.880
 5676TIP3   OH216991   1.028   6.507   3.127
 5676TIP3    H116992   1.034   6.413   3.148
 5676TIP3    H216993   0.972   6.511   3.050
 5677TIP3   OH216994   0.845   2.788   5.778
 5677TIP3    H116995   0.857   2.835   5.695
 5677TIP3    H216996   0.750   2.779   5.787
 5678TIP3   OH216997   2.252   6.045   2.219
 5678TIP3    H116998   2.307   5.969   2.200
 5678TIP3    H216999   2.164   6.009   2.227
 5679TIP3   OH217000   1.942   6.252   4.689
 5679TIP3    H117001   1.942   6.176   4.630
 5679TIP3    H217002   1.850   6.275   4.699
 5680TIP3   OH217003   1.051   0.076   0.970
 5680TIP3    H117004   1.044  -0.018   0.988
 5680TIP3    H217005   0.993   0.117   1.035
 5681TIP3   OH217006   6.895   5.185   0.335
 5681TIP3    H117007   6.857   5.133   0.265
 5681TIP3    H217008   6.833   5.257   0.348
 5682TIP3   OH217009   2.751   0.288   1.315
 5682TIP3    H117010   2.831   0.282   1.264
 5682TIP3    H217011   2.700   0.357   1.271
 5683TIP3   OH217012   0.696   5.746   0.714
 5683TIP3    H117013   0.728   5.806   0.646
 5683TIP3    H217014   0.698   5.799   0.794
 5684TIP3   OH217015   6.010   3.930   4.387
 5684TIP3    H117016   5.961   3.922   4.469
 5684TIP3    H217017   6.074   3.999   4.403
 5685TIP3   OH217018   3.142   2.593   5.368
 5685TIP3    H117019   3.117   2.579   5.460
 5685TIP3    H217020   3.156   2.687   5.361
 5686TIP3   OH217021   4.622   0.413   2.350
 5686TIP3    H117022   4.711   0.430   2.378
 5686TIP3    H217023   4.607   0.320   2.369
 5687TIP3   OH217024   3.864   2.529   5.345
 5687TIP3    H117025   3.835   2.483   5.424
 5687TIP3    H217026   3.870   2.460   5.278
 5688TIP3   OH217027   4.039   2.992   4.426
 5688TIP3    H117028   4.060   2.909   4.382
 5688TIP3    H217029   3.945   2.986   4.443
 5689TIP3   OH217030   3.034   2.808   2.072
 5689TIP3    H117031   3.102   2.860   2.029
 5689TIP3    H217032   3.080   2.761   2.142
 5690TIP3   OH217033   6.682   4.919   0.796
 5690TIP3    H117034   6.677   4.898   0.889
 5690TIP3    H217035   6.640   4.845   0.752
 5691TIP3   OH217036   6.733   3.489   4.743
 5691TIP3    H117037   6.685   3.540   4.678
 5691TIP3    H217038   6.720   3.398   4.716
 5692TIP3   OH217039   0.516   2.688   4.515
 5692TIP3    H117040   0.519   2.755   4.583
 5692TIP3    H217041   0.598   2.639   4.526
 5693TIP3   OH217042   0.854   0.102   5.550
 5693TIP3    H117043   0.924   0.077   5.611
 5693TIP3    H217044   0.882   0.066   5.466
 5694TIP3   OH217045   4.054   5.648   3.718
 5694TIP3    H117046   4.125   5.711   3.703
 5694TIP3    H217047   3.974   5.696   3.696
 5695TIP3   OH217048   6.905   0.057   0.874
 5695TIP3    H117049   6.997   0.051   0.902
 5695TIP3    H217050   6.854   0.037   0.953
 5696TIP3   OH217051   3.693   2.357   0.410
 5696TIP3    H117052   3.654   2.377   0.495
 5696TIP3    H217053   3.750   2.432   0.392
 5697TIP3   OH217054   0.348   0.700   5.499
 5697TIP3    H117055   0.311   0.786   5.517
 5697TIP3    H217056   0.377   0.668   5.585
 5698TIP3   OH217057   5.992   3.427   1.738
 5698TIP3    H117058   5.987   3.352   1.679
 5698TIP3    H217059   5.910   3.474   1.725
 5699TIP3   OH217060   2.779   6.483   5.338
 5699TIP3    H117061   2.714   6.498   5.269
 5699TIP3    H217062   2.746   6.406   5.385
 5700TIP3   OH217063   6.462   6.006   5.142
 5700TIP3    H117064   6.417   6.028   5.061
 5700TIP3    H217065   6.552   6.034   5.129
 5701TIP3   OH217066   3.358   2.035   1.418
 5701TIP3    H117067   3.307   2.007   1.494
 5701TIP3    H217068   3.430   1.974   1.413
 5702TIP3   OH217069   2.791   5.633   2.120
 5702TIP3    H117070   2.868   5.577   2.129
 5702TIP3    H217071   2.823   5.721   2.138
 5703TIP3   OH217072   2.931   3.139   4.297
 5703TIP3    H117073   3.009   3.188   4.271
 5703TIP3    H217074   2.867   3.157   4.229
 5704TIP3   OH217075   2.693   6.247   1.945
 5704TIP3    H117076   2.649   6.250   1.860
 5704TIP3    H217077   2.766   6.187   1.933
 5705TIP3   OH217078   0.180   3.129   1.099
 5705TIP3    H117079   0.159   3.041   1.067
 5705TIP3    H217080   0.102   3.155   1.148
 5706TIP3   OH217081   3.111   0.490   3.967
 5706TIP3    H117082   3.051   0.484   4.041
 5706TIP3    H217083   3.171   0.561   3.990
 5707TIP3   OH217084   2.652   5.155   5.438
 5707TIP3    H117085   2.565   5.121   5.458
 5707TIP3    H217086   2.684   5.101   5.366
 5708TIP3   OH217087   2.029   1.367   0.228
 5708TIP3    H117088   1.948   1.399   0.190
 5708TIP3    H217089   2.098   1.414   0.181
 5709TIP3   OH217090   3.729   4.229   5.611
 5709TIP3    H117091   3.801   4.190   5.562
 5709TIP3    H217092   3.771   4.270   5.687
 5710TIP3   OH217093   1.431   1.569   0.916
 5710TIP3    H117094   1.454   1.479   0.896
 5710TIP3    H217095   1.486   1.622   0.857
 5711TIP3   OH217096   0.530   0.994   0.747
 5711TIP3    H117097   0.502   1.045   0.823
 5711TIP3    H217098   0.507   0.903   0.769
 5712TIP3   OH217099   3.988   5.731   2.560
 5712TIP3    H117100   4.082   5.748   2.564
 5712TIP3    H217101   3.980   5.636   2.564
 5713TIP3   OH217102   2.525   1.236   3.451
 5713TIP3    H117103   2.620   1.242   3.435
 5713TIP3    H217104   2.488   1.215   3.366
 5714TIP3   OH217105   4.220   2.547   0.386
 5714TIP3    H117106   4.279   2.551   0.312
 5714TIP3    H217107   4.163   2.472   0.368
 5715TIP3   OH217108   4.092   6.010   4.513
 5715TIP3    H117109   4.054   6.028   4.427
 5715TIP3    H217110   4.185   6.028   4.502
 5716TIP3   OH217111   1.540   6.596   4.910
 5716TIP3    H117112   1.479   6.523   4.906
 5716TIP3    H217113   1.485   6.674   4.905
 5717TIP3   OH217114   4.403   2.777   0.311
 5717TIP3    H117115   4.445   2.856   0.347
 5717TIP3    H217116   4.406   2.714   0.383
 5718TIP3   OH217117   6.743   3.274   0.795
 5718TIP3    H117118   6.780   3.276   0.884
 5718TIP3    H217119   6.806   3.222   0.745
 5719TIP3   OH217120   0.581   3.510   2.988
 5719TIP3    H117121   0.493   3.493   2.955
 5719TIP3    H217122   0.633   3.436   2.958
 5720TIP3   OH217123   7.081   6.309   2.018
 5720TIP3    H117124   7.120   6.347   2.097
 5720TIP3    H217125   7.069   6.217   2.039
 5721TIP3   OH217126   1.504   1.543   5.498
 5721TIP3    H117127   1.512   1.465   5.552
 5721TIP3    H217128   1.410   1.558   5.490
 5722TIP3   OH217129   5.805   4.396   5.783
 5722TIP3    H117130   5.714   4.423   5.789
 5722TIP3    H217131   5.837   4.402   5.873
 5723TIP3   OH217132   1.541   4.917   3.693
 5723TIP3    H117133   1.609   4.885   3.633
 5723TIP3    H217134   1.572   4.890   3.779
 5724TIP3   OH217135   5.503   4.409   4.385
 5724TIP3    H117136   5.576   4.392   4.444
 5724TIP3    H217137   5.451   4.330   4.388
 5725TIP3   OH217138   1.525   0.817   1.650
 5725TIP3    H117139   1.582   0.740   1.644
 5725TIP3    H217140   1.522   0.851   1.561
 5726TIP3   OH217141   3.678   5.915   5.140
 5726TIP3    H117142   3.664   5.870   5.057
 5726TIP3    H217143   3.726   5.852   5.194
 5727TIP3   OH217144   6.440   6.218   4.710
 5727TIP3    H117145   6.517   6.242   4.763
 5727TIP3    H217146   6.365   6.244   4.763
 5728TIP3   OH217147   6.891   1.330   3.530
 5728TIP3    H117148   6.848   1.279   3.599
 5728TIP3    H217149   6.820   1.372   3.482
 5729TIP3   OH217150   3.537   1.326   4.148
 5729TIP3    H117151   3.605   1.356   4.209
 5729TIP3    H217152   3.547   1.382   4.071
 5730TIP3   OH217153   0.214   0.427   3.151
 5730TIP3    H117154   0.287   0.409   3.092
 5730TIP3    H217155   0.148   0.361   3.130
 5731TIP3   OH217156   1.818   5.864   3.839
 5731TIP3    H117157   1.897   5.835   3.886
 5731TIP3    H217158   1.750   5.866   3.906
 5732TIP3   OH217159   6.706   4.632   1.733
 5732TIP3    H117160   6.801   4.623   1.739
 5732TIP3    H217161   6.673   4.543   1.746
 5733TIP3   OH217162   6.546   2.959   0.611
 5733TIP3    H117163   6.534   2.883   0.554
 5733TIP3    H217164   6.575   2.921   0.694
 5734TIP3   OH217165   6.553   2.791   1.648
 5734TIP3    H117166   6.593   2.804   1.734
 5734TIP3    H217167   6.624   2.759   1.594
 5735TIP3   OH217168   5.284   5.010   0.313
 5735TIP3    H117169   5.348   4.949   0.276
 5735TIP3    H217170   5.231   4.956   0.372
 5736TIP3   OH217171   5.773   1.666   5.008
 5736TIP3    H117172   5.867   1.656   5.027
 5736TIP3    H217173   5.748   1.584   4.967
 5737TIP3   OH217174   0.414   3.270   4.253
 5737TIP3    H117175   0.411   3.206   4.324
 5737TIP3    H217176   0.323   3.298   4.243
 5738TIP3   OH217177   6.521   1.813   3.277
 5738TIP3    H117178   6.457   1.809   3.347
 5738TIP3    H217179   6.596   1.859   3.316
 5739TIP3   OH217180   4.595   5.113   3.218
 5739TIP3    H117181   4.529   5.182   3.223
 5739TIP3    H217182   4.632   5.122   3.130
 5740TIP3   OH217183   1.373   0.942   2.963
 5740TIP3    H117184   1.373   1.033   2.993
 5740TIP3    H217185   1.413   0.893   3.035
 5741TIP3   OH217186   2.021   3.153   1.314
 5741TIP3    H117187   2.092   3.090   1.320
 5741TIP3    H217188   1.957   3.111   1.256
 5742TIP3   OH217189   4.113   2.771   3.260
 5742TIP3    H117190   4.044   2.707   3.245
 5742TIP3    H217191   4.149   2.789   3.173
 5743TIP3   OH217192   5.019   4.544   3.121
 5743TIP3    H117193   5.085   4.498   3.172
 5743TIP3    H217194   4.954   4.477   3.099
 5744TIP3   OH217195   0.247   0.147   1.965
 5744TIP3    H117196   0.339   0.145   1.991
 5744TIP3    H217197   0.198   0.139   2.047
 5745TIP3   OH217198   0.123   5.013   3.733
 5745TIP3    H117199   0.153   4.940   3.678
 5745TIP3    H217200   0.147   4.987   3.822
 5746TIP3   OH217201   1.502   6.441   2.691
 5746TIP3    H117202   1.537   6.527   2.715
 5746TIP3    H217203   1.532   6.383   2.761
 5747TIP3   OH217204   2.372   6.046   0.450
 5747TIP3    H117205   2.376   6.015   0.360
 5747TIP3    H217206   2.463   6.040   0.482
 5748TIP3   OH217207   1.276   5.387   1.537
 5748TIP3    H117208   1.297   5.358   1.626
 5748TIP3    H217209   1.356   5.429   1.506
 5749TIP3   OH217210   5.543   5.535   1.163
 5749TIP3    H117211   5.578   5.620   1.135
 5749TIP3    H217212   5.538   5.542   1.259
 5750TIP3   OH217213   4.954   4.809   2.056
 5750TIP3    H117214   5.038   4.769   2.080
 5750TIP3    H217215   4.897   4.789   2.131
 5751TIP3   OH217216   6.777   6.627   0.908
 5751TIP3    H117217   6.701   6.625   0.966
 5751TIP3    H217218   6.740   6.631   0.820
 5752TIP3   OH217219   4.572   4.730   5.382
 5752TIP3    H117220   4.646   4.687   5.424
 5752TIP3    H217221   4.610   4.808   5.341
 5753TIP3   OH217222   1.613   4.936   4.915
 5753TIP3    H117223   1.594   4.845   4.938
 5753TIP3    H217224   1.565   4.952   4.834
 5754TIP3   OH217225   3.778   6.488   4.499
 5754TIP3    H117226   3.775   6.490   4.403
 5754TIP3    H217227   3.867   6.459   4.519
 5755TIP3   OH217228   6.164   5.207   0.562
 5755TIP3    H117229   6.098   5.234   0.626
 5755TIP3    H217230   6.113   5.186   0.483
 5756TIP3   OH217231   6.644   4.501   5.750
 5756TIP3    H117232   6.674   4.550   5.826
 5756TIP3    H217233   6.575   4.555   5.712
 5757TIP3   OH217234   4.362   5.895   5.570
 5757TIP3    H117235   4.436   5.837   5.551
 5757TIP3    H217236   4.301   5.839   5.619
 5758TIP3   OH217237   5.065   5.322   0.950
 5758TIP3    H117238   5.035   5.357   1.034
 5758TIP3    H217239   5.013   5.369   0.885
 5759TIP3   OH217240   2.128   2.917   1.332
 5759TIP3    H117241   2.201   2.873   1.288
 5759TIP3    H217242   2.050   2.881   1.289
 5760TIP3   OH217243   4.266   4.375   4.744
 5760TIP3    H117244   4.229   4.464   4.746
 5760TIP3    H217245   4.326   4.375   4.670
 5761TIP3   OH217246   4.046   3.681   0.215
 5761TIP3    H117247   4.044   3.587   0.227
 5761TIP3    H217248   3.993   3.716   0.287
 5762TIP3   OH217249   3.189   4.978   5.248
 5762TIP3    H117250   3.187   4.890   5.210
 5762TIP3    H217251   3.109   4.983   5.301
 5763TIP3   OH217252   5.179   0.421   1.246
 5763TIP3    H117253   5.088   0.450   1.231
 5763TIP3    H217254   5.194   0.354   1.180
 5764TIP3   OH217255   5.983   5.260   0.785
 5764TIP3    H117256   6.057   5.275   0.843
 5764TIP3    H217257   5.978   5.164   0.778
 5765TIP3   OH217258   1.994   6.178   3.777
 5765TIP3    H117259   1.932   6.106   3.762
 5765TIP3    H217260   2.062   6.165   3.712
 5766TIP3   OH217261   4.594   3.945   1.517
 5766TIP3    H117262   4.602   4.034   1.481
 5766TIP3    H217263   4.578   3.959   1.610
 5767TIP3   OH217264   1.894   0.700   2.844
 5767TIP3    H117265   1.877   0.742   2.760
 5767TIP3    H217266   1.886   0.606   2.826
 5768TIP3   OH217267   1.499   2.423   0.748
 5768TIP3    H117268   1.527   2.496   0.804
 5768TIP3    H217269   1.538   2.346   0.788
 5769TIP3   OH217270   1.583   5.535   3.998
 5769TIP3    H117271   1.645   5.501   3.934
 5769TIP3    H217272   1.531   5.459   4.024
 5770TIP3   OH217273   2.297   1.818   2.930
 5770TIP3    H117274   2.219   1.862   2.964
 5770TIP3    H217275   2.360   1.823   3.003
 5771TIP3   OH217276   3.452   0.490   5.253
 5771TIP3    H117277   3.451   0.507   5.347
 5771TIP3    H217278   3.365   0.518   5.223
 5772TIP3   OH217279   6.464   6.542   0.435
 5772TIP3    H117280   6.537   6.538   0.373
 5772TIP3    H217281   6.395   6.491   0.393
 5773TIP3   OH217282   5.537   5.080   5.482
 5773TIP3    H117283   5.465   5.031   5.521
 5773TIP3    H217284   5.588   5.112   5.557
 5774TIP3   OH217285   3.102   2.943   1.351
 5774TIP3    H117286   3.051   2.879   1.400
 5774TIP3    H217287   3.177   2.961   1.408
 5775TIP3   OH217288   5.449   5.248   1.895
 5775TIP3    H117289   5.482   5.163   1.924
 5775TIP3    H217290   5.364   5.229   1.856
 5776TIP3   OH217291   7.043   2.935   4.021
 5776TIP3    H117292   7.032   2.906   4.112
 5776TIP3    H217293   6.986   3.012   4.014
 5777TIP3   OH217294   1.176   0.002   1.806
 5777TIP3    H117295   1.107  -0.025   1.866
 5777TIP3    H217296   1.241  -0.068   1.812
 5778TIP3   OH217297   3.316   4.429   4.256
 5778TIP3    H117298   3.365   4.373   4.196
 5778TIP3    H217299   3.276   4.495   4.200
 5779TIP3   OH217300   3.555   2.374   1.871
 5779TIP3    H117301   3.499   2.297   1.865
 5779TIP3    H217302   3.539   2.422   1.790
 5780TIP3   OH217303   0.954   0.589   3.127
 5780TIP3    H117304   0.884   0.524   3.116
 5780TIP3    H217305   0.908   0.672   3.141
 5781TIP3   OH217306   3.535   3.483   0.661
 5781TIP3    H117307   3.504   3.461   0.749
 5781TIP3    H217308   3.518   3.576   0.652
 5782TIP3   OH217309   1.473   2.624   3.018
 5782TIP3    H117310   1.416   2.648   3.090
 5782TIP3    H217311   1.542   2.571   3.058
 5783TIP3   OH217312   1.006   0.146   0.724
 5783TIP3    H117313   0.943   0.079   0.698
 5783TIP3    H217314   1.021   0.130   0.817
 5784TIP3   OH217315   3.707   5.589   1.272
 5784TIP3    H117316   3.799   5.604   1.254
 5784TIP3    H217317   3.669   5.567   1.187
 5785TIP3   OH217318   0.457   3.057   1.470
 5785TIP3    H117319   0.492   3.117   1.404
 5785TIP3    H217320   0.526   3.053   1.536
 5786TIP3   OH217321   1.367   5.424   2.615
 5786TIP3    H117322   1.448   5.469   2.594
 5786TIP3    H217323   1.363   5.350   2.555
 5787TIP3   OH217324   6.707   5.693   4.914
 5787TIP3    H117325   6.626   5.687   4.864
 5787TIP3    H217326   6.740   5.604   4.919
 5788TIP3   OH217327   1.226   3.687   3.912
 5788TIP3    H117328   1.154   3.690   3.976
 5788TIP3    H217329   1.184   3.667   3.829
 5789TIP3   OH217330   1.420   3.757   1.376
 5789TIP3    H117331   1.370   3.798   1.306
 5789TIP3    H217332   1.415   3.663   1.358
 5790TIP3   OH217333   1.570   2.418   1.391
 5790TIP3    H117334   1.548   2.388   1.479
 5790TIP3    H217335   1.497   2.390   1.336
 5791TIP3   OH217336   5.774   3.408   3.294
 5791TIP3    H117337   5.742   3.407   3.204
 5791TIP3    H217338   5.702   3.373   3.346
 5792TIP3   OH217339   5.989   4.129   4.710
 5792TIP3    H117340   6.067   4.084   4.743
 5792TIP3    H217341   5.918   4.066   4.721
 5793TIP3   OH217342   5.112   1.849   0.681
 5793TIP3    H117343   5.097   1.927   0.735
 5793TIP3    H217344   5.190   1.808   0.719
 5794TIP3   OH217345   1.926   2.520   5.265
 5794TIP3    H117346   1.901   2.528   5.357
 5794TIP3    H217347   1.855   2.563   5.217
 5795TIP3   OH217348   0.104   6.306   3.993
 5795TIP3    H117349   0.179   6.274   4.044
 5795TIP3    H217350   0.072   6.381   4.044
 5796TIP3   OH217351   0.637   0.012   4.746
 5796TIP3    H117352   0.596   0.098   4.746
 5796TIP3    H217353   0.717   0.024   4.694
 5797TIP3   OH217354   7.076   4.771   5.776
 5797TIP3    H117355   7.085   4.802   5.686
 5797TIP3    H217356   7.134   4.827   5.827
 5798TIP3   OH217357   6.381   0.059   4.562
 5798TIP3    H117358   6.372   0.003   4.639
 5798TIP3    H217359   6.445   0.125   4.587
 5799TIP3   OH217360   1.824   0.950   1.196
 5799TIP3    H117361   1.871   1.032   1.183
 5799TIP3    H217362   1.754   0.952   1.131
 5800TIP3   OH217363   0.528   0.793   2.545
 5800TIP3    H117364   0.531   0.878   2.501
 5800TIP3    H217365   0.619   0.764   2.549
 5801TIP3   OH217366   3.227   2.387   5.237
 5801TIP3    H117367   3.224   2.322   5.307
 5801TIP3    H217368   3.215   2.471   5.281
 5802TIP3   OH217369   6.021   4.545   2.392
 5802TIP3    H117370   6.007   4.638   2.412
 5802TIP3    H217371   6.082   4.545   2.319
 5803TIP3   OH217372   1.929   5.546   3.487
 5803TIP3    H117373   2.007   5.598   3.469
 5803TIP3    H217374   1.890   5.531   3.401
 5804TIP3   OH217375   1.634   3.783   2.006
 5804TIP3    H117376   1.670   3.845   2.070
 5804TIP3    H217377   1.671   3.698   2.033
 5805TIP3   OH217378   3.740   6.171   3.125
 5805TIP3    H117379   3.808   6.239   3.136
 5805TIP3    H217380   3.777   6.110   3.061
 5806TIP3   OH217381   4.415   5.928   2.726
 5806TIP3    H117382   4.358   6.004   2.723
 5806TIP3    H217383   4.489   5.955   2.781
 5807TIP3   OH217384   1.053   2.614   1.899
 5807TIP3    H117385   1.081   2.669   1.972
 5807TIP3    H217386   0.970   2.577   1.927
 5808TIP3   OH217387   3.712   3.258   3.856
 5808TIP3    H117388   3.665   3.340   3.844
 5808TIP3    H217389   3.804   3.283   3.864
 5809TIP3   OH217390   5.665   3.641   0.962
 5809TIP3    H117391   5.598   3.601   0.906
 5809TIP3    H217392   5.713   3.567   0.998
 5810TIP3   OH217393   4.177   3.868   0.402
 5810TIP3    H117394   4.228   3.943   0.370
 5810TIP3    H217395   4.165   3.885   0.495
 5811TIP3   OH217396   6.148   1.638   2.055
 5811TIP3    H117397   6.170   1.674   2.141
 5811TIP3    H217398   6.096   1.706   2.013
 5812TIP3   OH217399   6.737   1.897   5.268
 5812TIP3    H117400   6.767   1.826   5.324
 5812TIP3    H217401   6.717   1.969   5.328
 5813TIP3   OH217402   1.032   1.196   4.085
 5813TIP3    H117403   1.066   1.261   4.024
 5813TIP3    H217404   1.058   1.228   4.172
 5814TIP3   OH217405   5.168   5.406   1.923
 5814TIP3    H117406   5.147   5.363   1.840
 5814TIP3    H217407   5.097   5.382   1.982
 5815TIP3   OH217408   4.604   0.167   2.776
 5815TIP3    H117409   4.559   0.242   2.813
 5815TIP3    H217410   4.621   0.109   2.850
 5816TIP3   OH217411   0.237   2.193   5.179
 5816TIP3    H117412   0.271   2.235   5.099
 5816TIP3    H217413   0.144   2.212   5.178
 5817TIP3   OH217414   5.940   2.782   3.161
 5817TIP3    H117415   5.922   2.847   3.228
 5817TIP3    H217416   5.886   2.707   3.186
 5818TIP3   OH217417   2.194   3.197   1.856
 5818TIP3    H117418   2.143   3.126   1.895
 5818TIP3    H217419   2.271   3.153   1.820
 5819TIP3   OH217420   2.362   5.564   2.919
 5819TIP3    H117421   2.398   5.518   2.843
 5819TIP3    H217422   2.435   5.573   2.979
 5820TIP3   OH217423   2.931   1.022   3.392
 5820TIP3    H117424   2.867   1.044   3.325
 5820TIP3    H217425   2.981   1.103   3.406
 5821TIP3   OH217426   7.042   3.158   4.881
 5821TIP3    H117427   7.098   3.103   4.936
 5821TIP3    H217428   7.085   3.243   4.881
 5822TIP3   OH217429   2.626   1.760   0.211
 5822TIP3    H117430   2.532   1.742   0.206
 5822TIP3    H217431   2.668   1.689   0.163
 5823TIP3   OH217432   0.234   2.120   3.243
 5823TIP3    H117433   0.225   2.034   3.284
 5823TIP3    H217434   0.327   2.128   3.223
 5824TIP3   OH217435   2.376   5.852   1.898
 5824TIP3    H117436   2.344   5.802   1.823
 5824TIP3    H217437   2.405   5.786   1.960
 5825TIP3   OH217438   1.286   2.168   1.821
 5825TIP3    H117439   1.247   2.255   1.824
 5825TIP3    H217440   1.370   2.181   1.777
 5826TIP3   OH217441   4.933   2.007   4.032
 5826TIP3    H117442   5.002   1.959   3.988
 5826TIP3    H217443   4.965   2.019   4.121
 5827TIP3   OH217444   1.140   5.803   3.726
 5827TIP3    H117445   1.183   5.819   3.642
 5827TIP3    H217446   1.126   5.709   3.729
 5828TIP3   OH217447   3.905   5.034   0.674
 5828TIP3    H117448   3.875   5.005   0.588
 5828TIP3    H217449   3.877   4.964   0.733
 5829TIP3   OH217450   0.651   2.460   2.717
 5829TIP3    H117451   0.721   2.522   2.694
 5829TIP3    H217452   0.642   2.405   2.640
 5830TIP3   OH217453   6.986   0.580   2.008
 5830TIP3    H117454   6.892   0.583   2.024
 5830TIP3    H217455   7.027   0.592   2.093
 5831TIP3   OH217456   5.540   4.761   0.960
 5831TIP3    H117457   5.588   4.776   1.041
 5831TIP3    H217458   5.570   4.830   0.900
 5832TIP3   OH217459   0.224   2.682   5.455
 5832TIP3    H117460   0.194   2.748   5.518
 5832TIP3    H217461   0.191   2.599   5.490
 5833TIP3   OH217462   3.789   4.129   1.794
 5833TIP3    H117463   3.840   4.057   1.757
 5833TIP3    H217464   3.772   4.187   1.720
 5834TIP3   OH217465   1.318   4.973   1.777
 5834TIP3    H117466   1.297   4.901   1.718
 5834TIP3    H217467   1.316   5.051   1.721
 5835TIP3   OH217468   1.370   1.315   3.874
 5835TIP3    H117469   1.336   1.403   3.858
 5835TIP3    H217470   1.454   1.314   3.828
 5836TIP3   OH217471   1.159   2.613   2.644
 5836TIP3    H117472   1.228   2.549   2.659
 5836TIP3    H217473   1.134   2.642   2.732
 5837TIP3   OH217474   4.251   5.863   2.381
 5837TIP3    H117475   4.272   5.772   2.401
 5837TIP3    H217476   4.314   5.914   2.431
 5838TIP3   OH217477  -0.031   0.039   0.975
 5838TIP3    H117478  -0.004  -0.051   0.958
 5838TIP3    H217479   0.047   0.092   0.957
 5839TIP3   OH217480   4.840   5.012   5.865
 5839TIP3    H117481   4.830   5.095   5.819
 5839TIP3    H217482   4.811   4.946   5.802
 5840TIP3   OH217483   2.615   4.072   4.879
 5840TIP3    H117484   2.548   4.067   4.947
 5840TIP3    H217485   2.595   4.152   4.831
 5841TIP3   OH217486   4.562   2.204   3.181
 5841TIP3    H117487   4.481   2.217   3.131
 5841TIP3    H217488   4.621   2.161   3.119
 5842TIP3   OH217489   3.001   1.727   5.500
 5842TIP3    H117490   2.975   1.701   5.589
 5842TIP3    H217491   3.009   1.822   5.504
 5843TIP3   OH217492   4.665   4.659   2.417
 5843TIP3    H117493   4.744   4.683   2.466
 5843TIP3    H217494   4.633   4.742   2.381
 5844TIP3   OH217495   4.183   5.465   4.169
 5844TIP3    H117496   4.203   5.439   4.079
 5844TIP3    H217497   4.097   5.506   4.163
 5845TIP3   OH217498   2.822   3.992   2.612
 5845TIP3    H117499   2.789   4.073   2.650
 5845TIP3    H217500   2.817   3.928   2.683
 5846TIP3   OH217501   6.266   2.868   5.283
 5846TIP3    H117502   6.241   2.834   5.197
 5846TIP3    H217503   6.208   2.943   5.297
 5847TIP3   OH217504   1.298   1.500   5.810
 5847TIP3    H117505   1.323   1.410   5.787
 5847TIP3    H217506   1.212   1.512   5.771
 5848TIP3   OH217507   1.335   3.622   5.224
 5848TIP3    H117508   1.365   3.710   5.248
 5848TIP3    H217509   1.267   3.602   5.288
 5849TIP3   OH217510   5.068   5.537   4.883
 5849TIP3    H117511   4.982   5.537   4.926
 5849TIP3    H217512   5.118   5.470   4.930
 5850TIP3   OH217513   1.284   2.009   5.812
 5850TIP3    H117514   1.229   2.022   5.735
 5850TIP3    H217515   1.222   2.009   5.885
 5851TIP3   OH217516   0.689   3.762   5.883
 5851TIP3    H117517   0.729   3.789   5.800
 5851TIP3    H217518   0.760   3.716   5.929
 5852TIP3   OH217519   6.188   5.566   2.044
 5852TIP3    H117520   6.113   5.623   2.024
 5852TIP3    H217521   6.151   5.478   2.046
 5853TIP3   OH217522   1.587   4.484   1.169
 5853TIP3    H117523   1.607   4.409   1.225
 5853TIP3    H217524   1.498   4.467   1.138
 5854TIP3   OH217525   4.911   1.089   3.737
 5854TIP3    H117526   4.976   1.129   3.680
 5854TIP3    H217527   4.859   1.033   3.680
 5855TIP3   OH217528   2.366   5.069   0.251
 5855TIP3    H117529   2.386   5.026   0.334
 5855TIP3    H217530   2.341   5.158   0.276
 5856TIP3   OH217531   4.642   5.046   4.580
 5856TIP3    H117532   4.591   5.023   4.658
 5856TIP3    H217533   4.576   5.054   4.511
 5857TIP3   OH217534   4.914   2.547   4.152
 5857TIP3    H117535   4.894   2.583   4.238
 5857TIP3    H217536   4.959   2.618   4.106
 5858TIP3   OH217537   6.716   3.852   1.373
 5858TIP3    H117538   6.799   3.882   1.411
 5858TIP3    H217539   6.687   3.783   1.432
 5859TIP3   OH217540   2.293   2.713   2.274
 5859TIP3    H117541   2.314   2.640   2.217
 5859TIP3    H217542   2.242   2.773   2.220
 5860TIP3   OH217543   2.258   3.215   1.057
 5860TIP3    H117544   2.251   3.129   1.016
 5860TIP3    H217545   2.352   3.228   1.069
 5861TIP3   OH217546   4.035   6.443   0.951
 5861TIP3    H117547   4.080   6.390   1.018
 5861TIP3    H217548   3.983   6.505   1.001
 5862TIP3   OH217549   0.628   0.432   3.539
 5862TIP3    H117550   0.710   0.437   3.489
 5862TIP3    H217551   0.649   0.474   3.623
 5863TIP3   OH217552   4.696   3.849   4.721
 5863TIP3    H117553   4.784   3.881   4.738
 5863TIP3    H217554   4.697   3.759   4.753
 5864TIP3   OH217555   3.851  -0.011   1.911
 5864TIP3    H117556   3.844   0.083   1.897
 5864TIP3    H217557   3.940  -0.033   1.883
 5865TIP3   OH217558   2.484   1.828   2.460
 5865TIP3    H117559   2.402   1.818   2.411
 5865TIP3    H217560   2.506   1.920   2.451
 5866TIP3   OH217561   3.490   3.550   5.486
 5866TIP3    H117562   3.448   3.489   5.545
 5866TIP3    H217563   3.418   3.593   5.440
 5867TIP3   OH217564   6.059   1.120   3.348
 5867TIP3    H117565   6.152   1.102   3.361
 5867TIP3    H217566   6.047   1.211   3.377
 5868TIP3   OH217567   0.583   6.475   0.591
 5868TIP3    H117568   0.660   6.488   0.646
 5868TIP3    H217569   0.615   6.423   0.518
 5869TIP3   OH217570   1.391   5.337   4.583
 5869TIP3    H117571   1.449   5.362   4.511
 5869TIP3    H217572   1.450   5.311   4.653
 5870TIP3   OH217573   4.312   2.299   3.056
 5870TIP3    H117574   4.228   2.286   3.012
 5870TIP3    H217575   4.293   2.365   3.124
 5871TIP3   OH217576   0.220   1.044   3.961
 5871TIP3    H117577   0.144   1.103   3.967
 5871TIP3    H217578   0.233   1.014   4.050
 5872TIP3   OH217579   1.168   2.385   3.673
 5872TIP3    H117580   1.156   2.473   3.708
 5872TIP3    H217581   1.100   2.375   3.607
 5873TIP3   OH217582   0.827   5.096   3.824
 5873TIP3    H117583   0.792   5.117   3.910
 5873TIP3    H217584   0.915   5.062   3.841
 5874TIP3   OH217585   0.511   0.431   4.572
 5874TIP3    H117586   0.449   0.492   4.534
 5874TIP3    H217587   0.505   0.353   4.516
 5875TIP3   OH217588   1.426   3.905   1.617
 5875TIP3    H117589   1.410   3.846   1.543
 5875TIP3    H217590   1.513   3.881   1.648
 5876TIP3   OH217591   4.711   0.306   1.042
 5876TIP3    H117592   4.642   0.287   0.979
 5876TIP3    H217593   4.680   0.385   1.088
 5877TIP3   OH217594   2.809   5.176   4.663
 5877TIP3    H117595   2.798   5.138   4.750
 5877TIP3    H217596   2.735   5.236   4.653
 5878TIP3   OH217597   3.392   3.419   2.375
 5878TIP3    H117598   3.347   3.503   2.388
 5878TIP3    H217599   3.415   3.391   2.463
 5879TIP3   OH217600   6.939   4.988   2.292
 5879TIP3    H117601   6.853   4.948   2.281
 5879TIP3    H217602   6.999   4.914   2.305
 5880TIP3   OH217603   5.025   3.568   4.514
 5880TIP3    H117604   4.964   3.542   4.582
 5880TIP3    H217605   5.098   3.608   4.561
 5881TIP3   OH217606   1.700   5.831   5.038
 5881TIP3    H117607   1.721   5.899   5.102
 5881TIP3    H217608   1.629   5.868   4.986
 5882TIP3   OH217609   3.498   6.453   1.121
 5882TIP3    H117610   3.420   6.507   1.135
 5882TIP3    H217611   3.541   6.450   1.207
 5883TIP3   OH217612   2.684   4.995   2.710
 5883TIP3    H117613   2.764   4.971   2.757
 5883TIP3    H217614   2.634   5.047   2.774
 5884TIP3   OH217615   3.496   4.238   0.541
 5884TIP3    H117616   3.480   4.223   0.634
 5884TIP3    H217617   3.487   4.152   0.501
 5885TIP3   OH217618   4.113   3.381   3.279
 5885TIP3    H117619   4.083   3.371   3.189
 5885TIP3    H217620   4.032   3.384   3.330
 5886TIP3   OH217621   1.610   1.111   4.191
 5886TIP3    H117622   1.535   1.155   4.151
 5886TIP3    H217623   1.588   1.018   4.185
 5887TIP3   OH217624   2.855   2.762   4.925
 5887TIP3    H117625   2.854   2.668   4.911
 5887TIP3    H217626   2.939   2.779   4.968
 5888TIP3   OH217627   4.214   1.519   0.139
 5888TIP3    H117628   4.306   1.540   0.157
 5888TIP3    H217629   4.164   1.582   0.190
 5889TIP3   OH217630   3.062   2.426   4.592
 5889TIP3    H117631   3.109   2.368   4.531
 5889TIP3    H217632   2.998   2.370   4.635
 5890TIP3   OH217633   7.031   1.671   2.223
 5890TIP3    H117634   7.115   1.689   2.181
 5890TIP3    H217635   7.016   1.745   2.281
 5891TIP3   OH217636   4.269   2.553   3.826
 5891TIP3    H117637   4.309   2.587   3.906
 5891TIP3    H217638   4.180   2.586   3.828
 5892TIP3   OH217639   5.939   2.016   3.448
 5892TIP3    H117640   5.864   2.074   3.434
 5892TIP3    H217641   5.958   1.979   3.361
 5893TIP3   OH217642   1.188   4.493   4.615
 5893TIP3    H117643   1.247   4.430   4.573
 5893TIP3    H217644   1.172   4.559   4.548
 5894TIP3   OH217645   2.146   0.862   3.299
 5894TIP3    H117646   2.115   0.890   3.213
 5894TIP3    H217647   2.087   0.906   3.361
 5895TIP3   OH217648   6.999   6.351   1.750
 5895TIP3    H117649   7.019   6.333   1.842
 5895TIP3    H217650   7.082   6.380   1.713
 5896TIP3   OH217651   2.505   4.954   2.088
 5896TIP3    H117652   2.485   5.010   2.163
 5896TIP3    H217653   2.480   5.006   2.011
 5897TIP3   OH217654   2.002   5.091   4.237
 5897TIP3    H117655   2.019   5.184   4.217
 5897TIP3    H217656   2.044   5.043   4.166
 5898TIP3   OH217657   0.180   5.508   4.226
 5898TIP3    H117658   0.269   5.543   4.218
 5898TIP3    H217659   0.178   5.465   4.311
 5899TIP3   OH217660   4.300   5.996   4.850
 5899TIP3    H117661   4.222   5.940   4.848
 5899TIP3    H217662   4.337   5.988   4.762
 5900TIP3   OH217663   1.833   0.436   0.940
 5900TIP3    H117664   1.890   0.420   0.865
 5900TIP3    H217665   1.818   0.350   0.979
 5901TIP3   OH217666  -0.003   3.387   0.922
 5901TIP3    H117667   0.076   3.401   0.975
 5901TIP3    H217668   0.009   3.301   0.882
 5902TIP3   OH217669   7.197   5.958   3.599
 5902TIP3    H117670   7.132   5.944   3.667
 5902TIP3    H217671   7.189   6.050   3.575
 5903TIP3   OH217672   4.183   0.833   0.675
 5903TIP3    H117673   4.278   0.845   0.669
 5903TIP3    H217674   4.172   0.763   0.738
 5904TIP3   OH217675   4.939   3.012   0.036
 5904TIP3    H117676   4.929   2.959  -0.043
 5904TIP3    H217677   4.855   3.005   0.081
 5905TIP3   OH217678   6.338   3.148   0.331
 5905TIP3    H117679   6.342   3.058   0.298
 5905TIP3    H217680   6.313   3.139   0.423
 5906TIP3   OH217681   4.507   2.164   4.564
 5906TIP3    H117682   4.545   2.168   4.651
 5906TIP3    H217683   4.531   2.077   4.530
 5907TIP3   OH217684   6.259   1.584   1.159
 5907TIP3    H117685   6.272   1.678   1.146
 5907TIP3    H217686   6.187   1.561   1.100
 5908TIP3   OH217687   5.518   0.724   2.376
 5908TIP3    H117688   5.471   0.649   2.412
 5908TIP3    H217689   5.607   0.715   2.410
 5909TIP3   OH217690   2.526   0.265   4.659
 5909TIP3    H117691   2.549   0.227   4.744
 5909TIP3    H217692   2.557   0.356   4.664
 5910TIP3   OH217693   0.133   2.155   4.067
 5910TIP3    H117694   0.119   2.076   4.118
 5910TIP3    H217695   0.228   2.168   4.066
 5911TIP3   OH217696   6.833   6.372   0.556
 5911TIP3    H117697   6.748   6.340   0.524
 5911TIP3    H217698   6.824   6.374   0.651
 5912TIP3   OH217699   4.789   6.221   2.105
 5912TIP3    H117700   4.709   6.273   2.101
 5912TIP3    H217701   4.815   6.209   2.014
 5913TIP3   OH217702   6.443   2.870   5.537
 5913TIP3    H117703   6.377   2.898   5.473
 5913TIP3    H217704   6.525   2.869   5.488
 5914TIP3   OH217705   6.516   0.982   2.228
 5914TIP3    H117706   6.499   1.034   2.307
 5914TIP3    H217707   6.609   0.960   2.234
 5915TIP3   OH217708   3.077   5.121   1.651
 5915TIP3    H117709   3.068   5.162   1.565
 5915TIP3    H217710   3.169   5.133   1.674
 5916TIP3   OH217711   1.659   3.797   5.725
 5916TIP3    H117712   1.657   3.753   5.640
 5916TIP3    H217713   1.612   3.737   5.783
 5917TIP3   OH217714   3.735   1.708   0.639
 5917TIP3    H117715   3.763   1.700   0.731
 5917TIP3    H217716   3.760   1.625   0.599
 5918TIP3   OH217717   3.657   0.391   5.814
 5918TIP3    H117718   3.581   0.362   5.864
 5918TIP3    H217719   3.731   0.347   5.854
 5919TIP3   OH217720   4.042   1.478   4.332
 5919TIP3    H117721   4.121   1.452   4.381
 5919TIP3    H217722   3.979   1.503   4.399
 5920TIP3   OH217723   4.313   2.460   4.267
 5920TIP3    H117724   4.275   2.381   4.227
 5920TIP3    H217725   4.367   2.426   4.339
 5921TIP3   OH217726   2.281   5.375   3.530
 5921TIP3    H117727   2.315   5.293   3.564
 5921TIP3    H217728   2.206   5.396   3.586
 5922TIP3   OH217729   5.741   5.021   1.585
 5922TIP3    H117730   5.741   5.000   1.491
 5922TIP3    H217731   5.720   5.114   1.589
 5923TIP3   OH217732   3.155   5.256   4.821
 5923TIP3    H117733   3.181   5.249   4.729
 5923TIP3    H217734   3.122   5.169   4.844
 5924TIP3   OH217735   1.697   6.547   3.024
 5924TIP3    H117736   1.747   6.490   3.083
 5924TIP3    H217737   1.645   6.486   2.971
 5925TIP3   OH217738   1.719   6.584   4.687
 5925TIP3    H117739   1.704   6.512   4.626
 5925TIP3    H217740   1.652   6.573   4.755
 5926TIP3   OH217741   5.835   2.790   5.137
 5926TIP3    H117742   5.788   2.824   5.214
 5926TIP3    H217743   5.923   2.771   5.169
 5927TIP3   OH217744   6.800   4.092   4.986
 5927TIP3    H117745   6.854   4.166   4.958
 5927TIP3    H217746   6.726   4.091   4.925
 5928TIP3   OH217747   2.212   2.085   2.353
 5928TIP3    H117748   2.142   2.123   2.300
 5928TIP3    H217749   2.168   2.025   2.413
 5929TIP3   OH217750   6.523   3.569   0.386
 5929TIP3    H117751   6.598   3.525   0.425
 5929TIP3    H217752   6.447   3.521   0.418
 5930TIP3   OH217753   4.605   3.922   3.865
 5930TIP3    H117754   4.697   3.946   3.867
 5930TIP3    H217755   4.578   3.922   3.957
 5931TIP3   OH217756   4.757   4.070   3.228
 5931TIP3    H117757   4.662   4.064   3.240
 5931TIP3    H217758   4.791   4.088   3.316
 5932TIP3   OH217759   5.911   0.880   0.478
 5932TIP3    H117760   5.871   0.932   0.547
 5932TIP3    H217761   5.838   0.855   0.421
 5933TIP3   OH217762   2.055   5.680   1.177
 5933TIP3    H117763   1.998   5.648   1.107
 5933TIP3    H217764   2.073   5.771   1.153
 5934TIP3   OH217765   3.930   6.614   2.051
 5934TIP3    H117766   3.916   6.636   2.143
 5934TIP3    H217767   3.934   6.518   2.050
 5935TIP3   OH217768   0.578   3.940   2.926
 5935TIP3    H117769   0.534   3.965   3.007
 5935TIP3    H217770   0.509   3.903   2.871
 5936TIP3   OH217771   1.421   1.528   3.264
 5936TIP3    H117772   1.329   1.543   3.240
 5936TIP3    H217773   1.471   1.565   3.191
 5937TIP3   OH217774   0.950   6.488   4.926
 5937TIP3    H117775   0.996   6.557   4.878
 5937TIP3    H217776   0.860   6.492   4.893
 5938TIP3   OH217777   5.337   2.771   0.396
 5938TIP3    H117778   5.282   2.696   0.420
 5938TIP3    H217779   5.399   2.736   0.332
 5939TIP3   OH217780   1.875   1.265   0.991
 5939TIP3    H117781   1.863   1.341   0.935
 5939TIP3    H217782   1.966   1.270   1.019
 5940TIP3   OH217783   2.265   6.344   4.071
 5940TIP3    H117784   2.244   6.390   4.152
 5940TIP3    H217785   2.205   6.269   4.069
 5941TIP3   OH217786   2.714   2.270   4.020
 5941TIP3    H117787   2.654   2.280   3.946
 5941TIP3    H217788   2.730   2.359   4.051
 5942TIP3   OH217789   1.989   0.357   2.376
 5942TIP3    H117790   1.907   0.396   2.344
 5942TIP3    H217791   2.032   0.325   2.297
 5943TIP3   OH217792   5.428   4.810   0.147
 5943TIP3    H117793   5.483   4.818   0.069
 5943TIP3    H217794   5.376   4.731   0.132
 5944TIP3   OH217795   1.088   5.221   4.114
 5944TIP3    H117796   1.098   5.305   4.160
 5944TIP3    H217797   1.016   5.177   4.160
 5945TIP3   OH217798   6.133   1.339   0.333
 5945TIP3    H117799   6.104   1.430   0.342
 5945TIP3    H217800   6.073   1.289   0.389
 5946TIP3   OH217801   5.439   6.734   0.337
 5946TIP3    H117802   5.487   6.781   0.269
 5946TIP3    H217803   5.491   6.655   0.353
 5947TIP3   OH217804   5.308   5.883   1.440
 5947TIP3    H117805   5.250   5.816   1.476
 5947TIP3    H217806   5.393   5.839   1.432
 5948TIP3   OH217807   4.688   3.651   3.189
 5948TIP3    H117808   4.623   3.721   3.194
 5948TIP3    H217809   4.743   3.664   3.266
 5949TIP3   OH217810   2.153   4.618   2.811
 5949TIP3    H117811   2.117   4.602   2.724
 5949TIP3    H217812   2.245   4.593   2.804
 5950TIP3   OH217813   5.705   5.733   1.043
 5950TIP3    H117814   5.746   5.785   1.112
 5950TIP3    H217815   5.770   5.665   1.022
 5951TIP3   OH217816   2.060   0.838   0.810
 5951TIP3    H117817   2.140   0.793   0.783
 5951TIP3    H217818   2.009   0.847   0.730
 5952TIP3   OH217819   5.284   0.428   3.919
 5952TIP3    H117820   5.199   0.464   3.945
 5952TIP3    H217821   5.317   0.384   3.997
 5953TIP3   OH217822   4.862   4.882   1.648
 5953TIP3    H117823   4.792   4.876   1.713
 5953TIP3    H217824   4.859   4.799   1.601
 5954TIP3   OH217825   0.015   1.192   4.619
 5954TIP3    H117826   0.045   1.282   4.632
 5954TIP3    H217827  -0.080   1.200   4.610
 5955TIP3   OH217828   6.633   2.135   3.244
 5955TIP3    H117829   6.662   2.115   3.333
 5955TIP3    H217830   6.563   2.199   3.256
 5956TIP3   OH217831   2.635   3.229   3.363
 5956TIP3    H117832   2.581   3.175   3.421
 5956TIP3    H217833   2.723   3.225   3.401
 5957TIP3   OH217834   6.536   6.114   0.308
 5957TIP3    H117835   6.602   6.149   0.248
 5957TIP3    H217836   6.452   6.132   0.266
 5958TIP3   OH217837   2.304   4.127   4.376
 5958TIP3    H117838   2.282   4.181   4.453
 5958TIP3    H217839   2.259   4.170   4.304
 5959TIP3   OH217840   0.465   3.412   1.933
 5959TIP3    H117841   0.372   3.425   1.954
 5959TIP3    H217842   0.475   3.318   1.921
 5960TIP3   OH217843   4.321   3.064   3.395
 5960TIP3    H117844   4.377   3.126   3.441
 5960TIP3    H217845   4.350   2.978   3.428
 5961TIP3   OH217846   5.097   0.479   2.275
 5961TIP3    H117847   5.080   0.498   2.367
 5961TIP3    H217848   5.062   0.391   2.262
 5962TIP3   OH217849   1.319   6.777   4.654
 5962TIP3    H117850   1.397   6.739   4.614
 5962TIP3    H217851   1.263   6.702   4.674
 5963TIP3   OH217852   0.005   3.393   3.029
 5963TIP3    H117853   0.008   3.365   2.937
 5963TIP3    H217854   0.088   3.361   3.066
 5964TIP3   OH217855   0.172   3.172   0.342
 5964TIP3    H117856   0.085   3.204   0.364
 5964TIP3    H217857   0.164   3.140   0.252
 5965TIP3   OH217858   4.980   6.314   1.413
 5965TIP3    H117859   5.029   6.330   1.494
 5965TIP3    H217860   5.047   6.302   1.346
 5966TIP3   OH217861   4.893   3.268   0.286
 5966TIP3    H117862   4.905   3.343   0.227
 5966TIP3    H217863   4.918   3.302   0.372
 5967TIP3   OH217864   6.515   1.952   4.264
 5967TIP3    H117865   6.484   1.986   4.180
 5967TIP3    H217866   6.482   2.015   4.329
 5968TIP3   OH217867   1.081   3.791   2.495
 5968TIP3    H117868   1.038   3.776   2.579
 5968TIP3    H217869   1.156   3.846   2.515
 5969TIP3   OH217870   1.493   2.494   4.236
 5969TIP3    H117871   1.422   2.430   4.247
 5969TIP3    H217872   1.551   2.478   4.310
 5970TIP3   OH217873   0.719   2.042   5.749
 5970TIP3    H117874   0.670   2.042   5.667
 5970TIP3    H217875   0.653   2.053   5.817
 5971TIP3   OH217876   4.692   1.322   3.248
 5971TIP3    H117877   4.633   1.386   3.288
 5971TIP3    H217878   4.779   1.360   3.259
 5972TIP3   OH217879   6.443   5.677   2.711
 5972TIP3    H117880   6.536   5.698   2.713
 5972TIP3    H217881   6.417   5.687   2.620
 5973TIP3   OH217882   0.281   5.143   4.846
 5973TIP3    H117883   0.222   5.122   4.919
 5973TIP3    H217884   0.352   5.079   4.854
 5974TIP3   OH217885   3.647   3.475   0.421
 5974TIP3    H117886   3.609   3.548   0.372
 5974TIP3    H217887   3.591   3.467   0.499
 5975TIP3   OH217888   7.174   1.188   5.528
 5975TIP3    H117889   7.149   1.128   5.598
 5975TIP3    H217890   7.178   1.274   5.571
 5976TIP3   OH217891   5.790   5.864   1.262
 5976TIP3    H117892   5.812   5.956   1.276
 5976TIP3    H217893   5.865   5.816   1.299
 5977TIP3   OH217894   2.618   3.818   0.746
 5977TIP3    H117895   2.572   3.848   0.667
 5977TIP3    H217896   2.548   3.804   0.810
 5978TIP3   OH217897   5.163   6.019   5.204
 5978TIP3    H117898   5.155   6.073   5.283
 5978TIP3    H217899   5.115   6.067   5.137
 5979TIP3   OH217900   1.022   1.337   4.325
 5979TIP3    H117901   0.950   1.303   4.378
 5979TIP3    H217902   1.090   1.359   4.389
 5980TIP3   OH217903   1.732   1.971   0.519
 5980TIP3    H117904   1.811   1.943   0.474
 5980TIP3    H217905   1.689   2.032   0.459
 5981TIP3   OH217906   4.824   6.757   2.890
 5981TIP3    H117907   4.787   6.702   2.960
 5981TIP3    H217908   4.863   6.694   2.829
 5982TIP3   OH217909   6.445   5.917   4.260
 5982TIP3    H117910   6.415   6.006   4.277
 5982TIP3    H217911   6.473   5.917   4.168
 5983TIP3   OH217912   2.022   6.632   3.521
 5983TIP3    H117913   2.010   6.665   3.610
 5983TIP3    H217914   1.936   6.600   3.496
 5984TIP3   OH217915   4.914   1.570   2.562
 5984TIP3    H117916   4.971   1.541   2.492
 5984TIP3    H217917   4.897   1.662   2.543
 5985TIP3   OH217918   2.583   4.687   1.068
 5985TIP3    H117919   2.497   4.666   1.031
 5985TIP3    H217920   2.643   4.629   1.022
 5986TIP3   OH217921   3.990   2.458   1.879
 5986TIP3    H117922   3.985   2.377   1.828
 5986TIP3    H217923   4.066   2.445   1.936
 5987TIP3   OH217924   4.254   0.101   5.465
 5987TIP3    H117925   4.276   0.193   5.449
 5987TIP3    H217926   4.161   0.095   5.446
 5988TIP3   OH217927   2.071   3.975   4.970
 5988TIP3    H117928   1.978   3.953   4.962
 5988TIP3    H217929   2.114   3.914   4.910
 5989TIP3   OH217930   3.943   5.574   4.553
 5989TIP3    H117931   3.883   5.553   4.624
 5989TIP3    H217932   4.013   5.625   4.594
 5990TIP3   OH217933   2.210   3.301   3.536
 5990TIP3    H117934   2.199   3.223   3.482
 5990TIP3    H217935   2.293   3.339   3.506
 5991TIP3   OH217936   0.962   0.635   1.872
 5991TIP3    H117937   0.945   0.555   1.921
 5991TIP3    H217938   1.043   0.617   1.824
 5992TIP3   OH217939   2.274   2.387   2.945
 5992TIP3    H117940   2.285   2.292   2.941
 5992TIP3    H217941   2.193   2.403   2.897
 5993TIP3   OH217942   6.270   3.606   1.490
 5993TIP3    H117943   6.255   3.677   1.429
 5993TIP3    H217944   6.364   3.589   1.487
 5994TIP3   OH217945   1.187   5.258   5.095
 5994TIP3    H117946   1.274   5.297   5.101
 5994TIP3    H217947   1.196   5.172   5.136
 5995TIP3   OH217948   2.111   6.762   0.182
 5995TIP3    H117949   2.111   6.716   0.266
 5995TIP3    H217950   2.039   6.723   0.133
 5996TIP3   OH217951   4.891   5.865   0.687
 5996TIP3    H117952   4.879   5.817   0.605
 5996TIP3    H217953   4.853   5.807   0.754
 5997TIP3   OH217954   0.312   6.613   3.906
 5997TIP3    H117955   0.320   6.624   3.811
 5997TIP3    H217956   0.342   6.697   3.942
 5998TIP3   OH217957   4.087   6.726   2.402
 5998TIP3    H117958   4.176   6.695   2.388
 5998TIP3    H217959   4.031   6.650   2.384
 5999TIP3   OH217960   5.803   6.490   2.071
 5999TIP3    H117961   5.882   6.462   2.024
 5999TIP3    H217962   5.763   6.555   2.014
 6000TIP3   OH217963   6.695   2.406   0.219
 6000TIP3    H117964   6.600   2.398   0.220
 6000TIP3    H217965   6.727   2.323   0.254
 6001TIP3   OH217966   1.120   5.349   3.883
 6001TIP3    H117967   1.138   5.303   3.801
 6001TIP3    H217968   1.115   5.280   3.949
 6002TIP3   OH217969   1.437   3.878   0.319
 6002TIP3    H117970   1.374   3.949   0.329
 6002TIP3    H217971   1.386   3.799   0.338
 6003TIP3   OH217972   0.943   0.757   4.388
 6003TIP3    H117973   0.921   0.849   4.403
 6003TIP3    H217974   1.018   0.760   4.329
 6004TIP3   OH217975   0.095   3.537   2.508
 6004TIP3    H117976   0.108   3.443   2.503
 6004TIP3    H217977   0.063   3.561   2.420
 6005TIP3   OH217978   5.672   2.461   5.250
 6005TIP3    H117979   5.712   2.451   5.336
 6005TIP3    H217980   5.742   2.494   5.194
 6006TIP3   OH217981   6.612   2.958   4.459
 6006TIP3    H117982   6.685   3.014   4.433
 6006TIP3    H217983   6.537   2.992   4.410
 6007TIP3   OH217984   5.717   1.162   4.120
 6007TIP3    H117985   5.730   1.243   4.170
 6007TIP3    H217986   5.638   1.178   4.068
 6008TIP3   OH217987   4.574   0.147   2.486
 6008TIP3    H117988   4.598   0.136   2.578
 6008TIP3    H217989   4.480   0.127   2.484
 6009TIP3   OH217990   5.794   0.958   5.766
 6009TIP3    H117991   5.699   0.970   5.757
 6009TIP3    H217992   5.804   0.864   5.779
 6010TIP3   OH217993   1.940   1.927   0.312
 6010TIP3    H117994   1.890   1.947   0.232
 6010TIP3    H217995   1.990   2.007   0.328
 6011TIP3   OH217996   4.825   0.195   5.151
 6011TIP3    H117997   4.760   0.125   5.159
 6011TIP3    H217998   4.778   0.266   5.106
 6012TIP3   OH217999   5.867   3.697   2.792
 6012TIP3    H118000   5.807   3.666   2.724
 6012TIP3    H218001   5.914   3.769   2.751
 6013TIP3   OH218002   5.473   1.093   0.364
 6013TIP3    H118003   5.453   1.023   0.302
 6013TIP3    H218004   5.404   1.087   0.430
 6014TIP3   OH218005   0.511   4.057   3.946
 6014TIP3    H118006   0.572   4.100   3.886
 6014TIP3    H218007   0.454   4.004   3.890
 6015TIP3   OH218008   4.114   4.611   4.720
 6015TIP3    H118009   4.033   4.564   4.701
 6015TIP3    H218010   4.130   4.663   4.641
 6016TIP3   OH218011   4.539   4.600   4.940
 6016TIP3    H118012   4.611   4.619   4.880
 6016TIP3    H218013   4.547   4.506   4.956
 6017TIP3   OH218014   5.809   4.869   2.878
 6017TIP3    H118015   5.749   4.929   2.922
 6017TIP3    H218016   5.871   4.842   2.946
 6018TIP3   OH218017   5.655   3.866   0.804
 6018TIP3    H118018   5.560   3.856   0.791
 6018TIP3    H218019   5.685   3.778   0.828
 6019TIP3   OH218020   6.997   1.297   1.394
 6019TIP3    H118021   6.952   1.232   1.340
 6019TIP3    H218022   6.976   1.381   1.353
 6020TIP3   OH218023   6.529   4.117   5.494
 6020TIP3    H118024   6.445   4.145   5.529
 6020TIP3    H218025   6.508   4.081   5.407
 6021TIP3   OH218026   4.669   0.586   5.024
 6021TIP3    H118027   4.586   0.539   5.024
 6021TIP3    H218028   4.687   0.602   4.931
 6022TIP3   OH218029   5.106   4.729   0.935
 6022TIP3    H118030   5.090   4.783   0.857
 6022TIP3    H218031   5.136   4.791   1.001
 6023TIP3   OH218032   4.574   0.229   1.931
 6023TIP3    H118033   4.662   0.231   1.967
 6023TIP3    H218034   4.536   0.147   1.962
 6024TIP3   OH218035   2.237   1.767   4.086
 6024TIP3    H118036   2.174   1.787   4.017
 6024TIP3    H218037   2.321   1.800   4.054
 6025TIP3   OH218038   2.338   5.590   5.246
 6025TIP3    H118039   2.380   5.651   5.184
 6025TIP3    H218040   2.400   5.583   5.318
 6026TIP3   OH218041   4.052   6.454   4.558
 6026TIP3    H118042   4.081   6.367   4.586
 6026TIP3    H218043   4.134   6.499   4.536
 6027TIP3   OH218044   0.761   3.120   3.077
 6027TIP3    H118045   0.760   3.206   3.037
 6027TIP3    H218046   0.669   3.092   3.075
 6028TIP3   OH218047   1.642   6.009   4.733
 6028TIP3    H118048   1.679   6.097   4.730
 6028TIP3    H218049   1.605   5.995   4.647
 6029TIP3   OH218050   0.451   1.791   2.455
 6029TIP3    H118051   0.529   1.836   2.422
 6029TIP3    H218052   0.437   1.720   2.392
 6030TIP3   OH218053   6.465   2.181   0.598
 6030TIP3    H118054   6.516   2.196   0.678
 6030TIP3    H218055   6.401   2.252   0.597
 6031TIP3   OH218056   4.783   4.324   0.050
 6031TIP3    H118057   4.815   4.373   0.126
 6031TIP3    H218058   4.741   4.247   0.087
 6032TIP3   OH218059   4.396   3.995   0.194
 6032TIP3    H118060   4.426   4.086   0.190
 6032TIP3    H218061   4.306   3.998   0.161
 6033TIP3   OH218062   4.622   6.736   2.625
 6033TIP3    H118063   4.602   6.650   2.660
 6033TIP3    H218064   4.686   6.772   2.686
 6034TIP3   OH218065   0.775   6.682   3.065
 6034TIP3    H118066   0.787   6.680   3.160
 6034TIP3    H218067   0.697   6.737   3.053
 6035TIP3   OH218068   5.027   0.654   4.539
 6035TIP3    H118069   5.077   0.724   4.496
 6035TIP3    H218070   4.936   0.673   4.515
 6036TIP3   OH218071   1.451   3.642   1.858
 6036TIP3    H118072   1.399   3.625   1.936
 6036TIP3    H218073   1.526   3.692   1.891
 6037TIP3   OH218074   3.365   6.403   3.251
 6037TIP3    H118075   3.302   6.449   3.307
 6037TIP3    H218076   3.426   6.363   3.312
 6038TIP3   OH218077   5.112   4.130   2.572
 6038TIP3    H118078   5.184   4.191   2.589
 6038TIP3    H218079   5.097   4.137   2.478
 6039TIP3   OH218080   5.192   6.555   3.130
 6039TIP3    H118081   5.124   6.609   3.170
 6039TIP3    H218082   5.168   6.553   3.037
 6040TIP3   OH218083   0.139   4.751   1.210
 6040TIP3    H118084   0.077   4.700   1.263
 6040TIP3    H218085   0.215   4.764   1.266
 6041TIP3   OH218086   0.891   3.609   0.868
 6041TIP3    H118087   0.977   3.573   0.847
 6041TIP3    H218088   0.896   3.628   0.962
 6042TIP3   OH218089   3.650   3.775   5.207
 6042TIP3    H118090   3.592   3.721   5.152
 6042TIP3    H218091   3.592   3.813   5.272
 6043TIP3   OH218092   1.852   1.320   5.788
 6043TIP3    H118093   1.780   1.375   5.817
 6043TIP3    H218094   1.858   1.334   5.694
 6044TIP3   OH218095   5.411   6.037   4.724
 6044TIP3    H118096   5.341   6.000   4.778
 6044TIP3    H218097   5.367   6.097   4.664
 6045TIP3   OH218098   4.803   4.602   3.904
 6045TIP3    H118099   4.791   4.605   3.999
 6045TIP3    H218100   4.720   4.631   3.868
 6046TIP3   OH218101   4.864   4.391   1.199
 6046TIP3    H118102   4.796   4.458   1.193
 6046TIP3    H218103   4.939   4.429   1.152
 6047TIP3   OH218104   6.405   2.802   3.789
 6047TIP3    H118105   6.467   2.765   3.727
 6047TIP3    H218106   6.358   2.727   3.825
 6048TIP3   OH218107   7.094   2.898   1.710
 6048TIP3    H118108   7.008   2.914   1.748
 6048TIP3    H218109   7.122   2.814   1.748
 6049TIP3   OH218110   3.717   5.439   0.862
 6049TIP3    H118111   3.638   5.494   0.859
 6049TIP3    H218112   3.702   5.372   0.795
 6050TIP3   OH218113   5.056   0.497   0.875
 6050TIP3    H118114   4.985   0.521   0.815
 6050TIP3    H218115   5.024   0.418   0.919
 6051TIP3   OH218116   0.670   6.659   2.596
 6051TIP3    H118117   0.743   6.712   2.627
 6051TIP3    H218118   0.671   6.668   2.501
 6052TIP3   OH218119   0.638   0.724   0.385
 6052TIP3    H118120   0.632   0.653   0.321
 6052TIP3    H218121   0.731   0.747   0.386
 6053TIP3   OH218122   5.834   5.316   2.555
 6053TIP3    H118123   5.813   5.298   2.646
 6053TIP3    H218124   5.769   5.382   2.529
 6054TIP3   OH218125   5.134   1.142   1.830
 6054TIP3    H118126   5.067   1.075   1.822
 6054TIP3    H218127   5.115   1.186   1.913
 6055TIP3   OH218128   3.863   2.483   0.996
 6055TIP3    H118129   3.896   2.541   0.928
 6055TIP3    H218130   3.886   2.395   0.966
 6056TIP3   OH218131   1.537   4.221   2.880
 6056TIP3    H118132   1.619   4.264   2.902
 6056TIP3    H218133   1.533   4.145   2.938
 6057TIP3   OH218134   2.156   1.784   3.257
 6057TIP3    H118135   2.222   1.734   3.306
 6057TIP3    H218136   2.095   1.815   3.324
 6058TIP3   OH218137   0.238   6.260   0.171
 6058TIP3    H118138   0.244   6.233   0.080
 6058TIP3    H218139   0.157   6.220   0.203
 6059TIP3   OH218140   1.922   1.311   3.554
 6059TIP3    H118141   1.862   1.370   3.510
 6059TIP3    H218142   1.917   1.335   3.646
 6060TIP3   OH218143   5.286   2.137   3.044
 6060TIP3    H118144   5.257   2.216   3.089
 6060TIP3    H218145   5.255   2.065   3.099
 6061TIP3   OH218146   3.291   2.940   2.841
 6061TIP3    H118147   3.267   2.935   2.749
 6061TIP3    H218148   3.266   3.029   2.868
 6062TIP3   OH218149   3.797   1.210   0.612
 6062TIP3    H118150   3.719   1.155   0.603
 6062TIP3    H218151   3.869   1.148   0.623
 6063TIP3   OH218152   4.932   2.989   4.357
 6063TIP3    H118153   4.916   2.895   4.347
 6063TIP3    H218154   4.868   3.030   4.298
 6064TIP3   OH218155   2.328   1.919   2.141
 6064TIP3    H118156   2.265   1.871   2.196
 6064TIP3    H218157   2.303   2.011   2.151
 6065TIP3   OH218158   4.922   5.447   0.762
 6065TIP3    H118159   4.962   5.441   0.676
 6065TIP3    H218160   4.854   5.514   0.752
 6066TIP3   OH218161   2.838   2.329   2.309
 6066TIP3    H118162   2.876   2.416   2.313
 6066TIP3    H218163   2.756   2.336   2.358
 6067TIP3   OH218164   1.409   1.296   5.002
 6067TIP3    H118165   1.344   1.250   4.949
 6067TIP3    H218166   1.464   1.226   5.038
 6068TIP3   OH218167   1.312   6.081   0.575
 6068TIP3    H118168   1.241   6.086   0.639
 6068TIP3    H218169   1.389   6.114   0.621
 6069TIP3   OH218170   0.069   4.961   0.347
 6069TIP3    H118171   0.077   4.998   0.435
 6069TIP3    H218172   0.131   5.012   0.294
 6070TIP3   OH218173   1.064   5.250   0.879
 6070TIP3    H118174   1.063   5.212   0.967
 6070TIP3    H218175   0.975   5.282   0.865
 6071TIP3   OH218176   3.815   0.242   0.954
 6071TIP3    H118177   3.863   0.207   1.029
 6071TIP3    H218178   3.769   0.318   0.989
 6072TIP3   OH218179   3.614   0.298   2.170
 6072TIP3    H118180   3.637   0.233   2.237
 6072TIP3    H218181   3.562   0.249   2.106
 6073TIP3   OH218182   7.103   6.054   2.998
 6073TIP3    H118183   7.124   5.965   2.970
 6073TIP3    H218184   7.154   6.110   2.939
 6074TIP3   OH218185   5.098   1.175   1.294
 6074TIP3    H118186   5.100   1.217   1.381
 6074TIP3    H218187   5.138   1.089   1.309
 6075TIP3   OH218188   2.493   1.154   0.626
 6075TIP3    H118189   2.563   1.213   0.654
 6075TIP3    H218190   2.428   1.159   0.697
 6076TIP3   OH218191   3.276   2.311   1.353
 6076TIP3    H118192   3.186   2.288   1.330
 6076TIP3    H218193   3.315   2.229   1.382
 6077TIP3   OH218194   2.603   3.930   4.094
 6077TIP3    H118195   2.694   3.947   4.121
 6077TIP3    H218196   2.596   3.835   4.092
 6078TIP3   OH218197   4.003   0.336   4.037
 6078TIP3    H118198   4.041   0.410   4.085
 6078TIP3    H218199   3.976   0.373   3.953
 6079TIP3   OH218200   3.134   3.795   0.961
 6079TIP3    H118201   3.176   3.816   1.044
 6079TIP3    H218202   3.094   3.877   0.933
 6080TIP3   OH218203   0.602   2.430   1.315
 6080TIP3    H118204   0.654   2.498   1.273
 6080TIP3    H218205   0.653   2.406   1.393
 6081TIP3   OH218206   1.563   0.940   4.620
 6081TIP3    H118207   1.593   0.878   4.687
 6081TIP3    H218208   1.561   0.888   4.539
 6082TIP3   OH218209   2.614   3.550   5.234
 6082TIP3    H118210   2.632   3.588   5.320
 6082TIP3    H218211   2.666   3.603   5.173
 6083TIP3   OH218212   1.388   3.668   5.671
 6083TIP3    H118213   1.321   3.652   5.738
 6083TIP3    H218214   1.379   3.595   5.610
 6084TIP3   OH218215   6.158   3.718   5.512
 6084TIP3    H118216   6.166   3.781   5.584
 6084TIP3    H218217   6.143   3.634   5.555
 6085TIP3   OH218218   4.490   1.639   4.885
 6085TIP3    H118219   4.402   1.614   4.858
 6085TIP3    H218220   4.486   1.734   4.896
 6086TIP3   OH218221   1.599   6.325   1.478
 6086TIP3    H118222   1.624   6.242   1.436
 6086TIP3    H218223   1.637   6.321   1.565
 6087TIP3   OH218224   4.958   5.974   1.922
 6087TIP3    H118225   5.036   5.943   1.876
 6087TIP3    H218226   4.933   6.055   1.876
 6088TIP3   OH218227   3.902   4.480   1.886
 6088TIP3    H118228   3.816   4.459   1.848
 6088TIP3    H218229   3.961   4.482   1.811
 6089TIP3   OH218230   0.293   3.406   4.995
 6089TIP3    H118231   0.246   3.484   5.023
 6089TIP3    H218232   0.376   3.439   4.961
 6090TIP3   OH218233   0.863   4.709   4.747
 6090TIP3    H118234   0.926   4.751   4.690
 6090TIP3    H218235   0.797   4.672   4.688
 6091TIP3   OH218236  -0.015   3.030   5.131
 6091TIP3    H118237   0.045   3.105   5.129
 6091TIP3    H218238  -0.015   3.002   5.222
 6092TIP3   OH218239   5.583   1.576   3.059
 6092TIP3    H118240   5.559   1.550   2.970
 6092TIP3    H218241   5.678   1.575   3.059
 6093TIP3   OH218242   3.318   5.063   0.120
 6093TIP3    H118243   3.298   5.134   0.182
 6093TIP3    H218244   3.268   4.988   0.152
 6094TIP3   OH218245   4.326   3.184   2.775
 6094TIP3    H118246   4.385   3.109   2.766
 6094TIP3    H218247   4.247   3.159   2.727
 6095TIP3   OH218248   2.125   5.574   5.043
 6095TIP3    H118249   2.190   5.625   4.995
 6095TIP3    H218250   2.047   5.576   4.988
 6096TIP3   OH218251   3.229   4.260   3.241
 6096TIP3    H118252   3.202   4.300   3.323
 6096TIP3    H218253   3.297   4.318   3.206
 6097TIP3   OH218254   5.115   3.540   1.517
 6097TIP3    H118255   5.073   3.575   1.439
 6097TIP3    H218256   5.190   3.597   1.533
 6098TIP3   OH218257   5.087   4.376   3.531
 6098TIP3    H118258   5.097   4.444   3.465
 6098TIP3    H218259   5.140   4.405   3.604
 6099TIP3   OH218260   2.874   3.717   2.775
 6099TIP3    H118261   2.831   3.668   2.705
 6099TIP3    H218262   2.806   3.773   2.810
 6100TIP3   OH218263   0.716   3.360   1.414
 6100TIP3    H118264   0.730   3.278   1.461
 6100TIP3    H218265   0.658   3.411   1.471
 6101TIP3   OH218266   0.714   5.634   1.536
 6101TIP3    H118267   0.739   5.719   1.573
 6101TIP3    H218268   0.798   5.590   1.521
 6102TIP3   OH218269   5.279   0.277   2.499
 6102TIP3    H118270   5.234   0.249   2.579
 6102TIP3    H218271   5.216   0.259   2.429
 6103TIP3   OH218272   3.199   2.519   4.956
 6103TIP3    H118273   3.113   2.528   4.914
 6103TIP3    H218274   3.183   2.460   5.029
 6104TIP3   OH218275   6.987   2.457   1.787
 6104TIP3    H118276   6.949   2.481   1.702
 6104TIP3    H218277   6.929   2.498   1.851
 6105TIP3   OH218278   2.551   1.848   4.898
 6105TIP3    H118279   2.557   1.800   4.815
 6105TIP3    H218280   2.457   1.850   4.917
 6106TIP3   OH218281   0.400   5.069   3.042
 6106TIP3    H118282   0.348   4.991   3.020
 6106TIP3    H218283   0.363   5.138   2.987
 6107TIP3   OH218284   4.780   4.781   3.036
 6107TIP3    H118285   4.829   4.709   2.996
 6107TIP3    H218286   4.759   4.750   3.124
 6108TIP3   OH218287   1.341   0.771   0.079
 6108TIP3    H118288   1.383   0.710   0.140
 6108TIP3    H218289   1.255   0.732   0.062
 6109TIP3   OH218290   5.651   4.919   4.273
 6109TIP3    H118291   5.706   4.988   4.235
 6109TIP3    H218292   5.694   4.899   4.357
 6110TIP3   OH218293   1.375   6.380   1.891
 6110TIP3    H118294   1.333   6.298   1.919
 6110TIP3    H218295   1.464   6.374   1.924
 6111TIP3   OH218296   1.895   3.764   1.057
 6111TIP3    H118297   1.972   3.749   1.001
 6111TIP3    H218298   1.844   3.684   1.050
 6112TIP3   OH218299   3.073   2.985   4.616
 6112TIP3    H118300   2.986   3.003   4.651
 6112TIP3    H218301   3.096   2.900   4.651
 6113TIP3   OH218302   1.928   6.055   0.421
 6113TIP3    H118303   1.999   6.113   0.448
 6113TIP3    H218304   1.952   5.970   0.458
 6114TIP3   OH218305   2.653   5.720   4.639
 6114TIP3    H118306   2.702   5.640   4.658
 6114TIP3    H218307   2.663   5.732   4.544
 6115TIP3   OH218308   1.940   3.857   2.545
 6115TIP3    H118309   1.987   3.784   2.586
 6115TIP3    H218310   1.859   3.817   2.512
 6116TIP3   OH218311   5.934   4.936   0.803
 6116TIP3    H118312   5.845   4.904   0.790
 6116TIP3    H218313   5.931   4.981   0.888
 6117TIP3   OH218314   6.348   2.854   4.606
 6117TIP3    H118315   6.408   2.914   4.564
 6117TIP3    H218316   6.263   2.871   4.565
 6118TIP3   OH218317   1.287   2.718   4.792
 6118TIP3    H118318   1.363   2.731   4.737
 6118TIP3    H218319   1.294   2.627   4.822
 6119TIP3   OH218320   4.833   0.928   5.423
 6119TIP3    H118321   4.912   0.896   5.465
 6119TIP3    H218322   4.772   0.854   5.428
 6120TIP3   OH218323   1.605   0.895   1.048
 6120TIP3    H118324   1.524   0.891   0.997
 6120TIP3    H218325   1.624   0.804   1.070
 6121TIP3   OH218326   0.428   1.580   1.213
 6121TIP3    H118327   0.423   1.568   1.308
 6121TIP3    H218328   0.371   1.655   1.195
 6122TIP3   OH218329   1.891   1.132   4.893
 6122TIP3    H118330   1.823   1.139   4.960
 6122TIP3    H218331   1.917   1.222   4.875
 6123TIP3   OH218332   3.118   0.299   0.319
 6123TIP3    H118333   3.046   0.278   0.378
 6123TIP3    H218334   3.194   0.256   0.357
 6124TIP3   OH218335   0.952   5.262   4.943
 6124TIP3    H118336   1.036   5.254   4.989
 6124TIP3    H218337   0.953   5.352   4.908
 6125TIP3   OH218338   3.434   6.070   5.203
 6125TIP3    H118339   3.491   6.034   5.135
 6125TIP3    H218340   3.345   6.054   5.172
 6126TIP3   OH218341   5.150   3.021   0.261
 6126TIP3    H118342   5.196   2.943   0.291
 6126TIP3    H218343   5.150   3.080   0.337
 6127TIP3   OH218344   4.935   3.168   0.700
 6127TIP3    H118345   4.866   3.102   0.705
 6127TIP3    H218346   4.945   3.198   0.790
 6128TIP3   OH218347   4.120   3.256   4.420
 6128TIP3    H118348   4.141   3.296   4.504
 6128TIP3    H218349   4.111   3.163   4.439
 6129TIP3   OH218350   1.718   6.740   1.815
 6129TIP3    H118351   1.759   6.657   1.790
 6129TIP3    H218352   1.749   6.756   1.904
 6130TIP3   OH218353   3.774   1.055   4.288
 6130TIP3    H118354   3.812   1.010   4.363
 6130TIP3    H218355   3.740   0.985   4.233
 6131TIP3   OH218356   4.091   3.885   2.475
 6131TIP3    H118357   4.167   3.899   2.531
 6131TIP3    H218358   4.070   3.793   2.484
 6132TIP3   OH218359   5.819   5.703   3.274
 6132TIP3    H118360   5.898   5.717   3.328
 6132TIP3    H218361   5.761   5.652   3.330
 6133TIP3   OH218362   1.235   6.285   0.420
 6133TIP3    H118363   1.221   6.249   0.332
 6133TIP3    H218364   1.245   6.207   0.475
 6134TIP3   OH218365   4.584   0.276   1.511
 6134TIP3    H118366   4.662   0.269   1.566
 6134TIP3    H218367   4.602   0.220   1.436
 6135TIP3   OH218368   6.259   2.144   1.967
 6135TIP3    H118369   6.329   2.150   2.032
 6135TIP3    H218370   6.182   2.181   2.011
 6136TIP3   OH218371   5.122   5.102   5.469
 6136TIP3    H118372   5.186   5.154   5.420
 6136TIP3    H218373   5.063   5.167   5.508
 6137TIP3   OH218374   6.827   5.728   3.513
 6137TIP3    H118375   6.853   5.653   3.567
 6137TIP3    H218376   6.904   5.746   3.459
 6138TIP3   OH218377   1.706   3.102   2.163
 6138TIP3    H118378   1.649   3.166   2.206
 6138TIP3    H218379   1.647   3.042   2.118
 6139TIP3   OH218380   4.074   4.088   3.725
 6139TIP3    H118381   4.044   4.175   3.697
 6139TIP3    H218382   4.165   4.083   3.696
 6140TIP3   OH218383   3.317   5.890   1.720
 6140TIP3    H118384   3.277   5.803   1.726
 6140TIP3    H218385   3.286   5.936   1.798
 6141TIP3   OH218386   1.751   5.219   4.640
 6141TIP3    H118387   1.755   5.233   4.546
 6141TIP3    H218388   1.733   5.306   4.677
 6142TIP3   OH218389   2.377   5.626   2.073
 6142TIP3    H118390   2.372   5.536   2.040
 6142TIP3    H218391   2.417   5.617   2.159
 6143TIP3   OH218392   2.550   3.901   5.128
 6143TIP3    H118393   2.474   3.876   5.179
 6143TIP3    H218394   2.576   3.986   5.163
 6144TIP3   OH218395   1.767   5.758   0.795
 6144TIP3    H118396   1.822   5.760   0.717
 6144TIP3    H218397   1.698   5.695   0.774
 6145TIP3   OH218398   5.701   3.280   1.223
 6145TIP3    H118399   5.648   3.204   1.246
 6145TIP3    H218400   5.656   3.354   1.264
 6146TIP3   OH218401   6.821   3.142   5.098
 6146TIP3    H118402   6.736   3.146   5.142
 6146TIP3    H218403   6.852   3.232   5.096
 6147TIP3   OH218404   6.243   1.112   5.491
 6147TIP3    H118405   6.214   1.102   5.582
 6147TIP3    H218406   6.266   1.204   5.483
 6148TIP3   OH218407   5.071   4.274   1.640
 6148TIP3    H118408   5.022   4.215   1.583
 6148TIP3    H218409   5.161   4.270   1.607
 6149TIP3   OH218410   0.406   2.380   2.776
 6149TIP3    H118411   0.364   2.401   2.860
 6149TIP3    H218412   0.489   2.428   2.778
 6150TIP3   OH218413   6.667   0.062   2.712
 6150TIP3    H118414   6.723   0.140   2.722
 6150TIP3    H218415   6.674   0.040   2.619
 6151TIP3   OH218416   4.078   3.526   0.967
 6151TIP3    H118417   3.999   3.569   1.001
 6151TIP3    H218418   4.103   3.579   0.891
 6152TIP3   OH218419   0.590   1.761   4.191
 6152TIP3    H118420   0.576   1.847   4.151
 6152TIP3    H218421   0.636   1.780   4.273
 6153TIP3   OH218422   0.953   4.235   0.613
 6153TIP3    H118423   1.046   4.257   0.620
 6153TIP3    H218424   0.951   4.139   0.616
 6154TIP3   OH218425   0.640   3.001   1.133
 6154TIP3    H118426   0.610   2.914   1.156
 6154TIP3    H218427   0.708   3.022   1.198
 6155TIP3   OH218428   1.255   6.420   3.770
 6155TIP3    H118429   1.282   6.424   3.679
 6155TIP3    H218430   1.165   6.387   3.768
 6156TIP3   OH218431   0.477   3.692   4.246
 6156TIP3    H118432   0.445   3.648   4.325
 6156TIP3    H218433   0.562   3.728   4.272
 6157TIP3   OH218434   3.689   4.765   1.896
 6157TIP3    H118435   3.596   4.786   1.889
 6157TIP3    H218436   3.696   4.676   1.863
 6158TIP3   OH218437   2.470   6.650   5.537
 6158TIP3    H118438   2.391   6.620   5.581
 6158TIP3    H218439   2.460   6.745   5.532
 6159TIP3   OH218440   3.248   4.313   5.591
 6159TIP3    H118441   3.315   4.330   5.524
 6159TIP3    H218442   3.170   4.356   5.557
 6160TIP3   OH218443   4.382   3.241   2.354
 6160TIP3    H118444   4.446   3.171   2.336
 6160TIP3    H218445   4.409   3.312   2.296
 6161TIP3   OH218446   3.855   1.317   3.910
 6161TIP3    H118447   3.765   1.307   3.881
 6161TIP3    H218448   3.890   1.389   3.857
 6162TIP3   OH218449   3.241   6.678   5.307
 6162TIP3    H118450   3.333   6.681   5.281
 6162TIP3    H218451   3.225   6.585   5.327
 6163TIP3   OH218452   2.081   1.408   0.605
 6163TIP3    H118453   2.062   1.323   0.645
 6163TIP3    H218454   2.098   1.466   0.679
 6164TIP3   OH218455   5.355   1.527   0.988
 6164TIP3    H118456   5.280   1.511   1.045
 6164TIP3    H218457   5.425   1.472   1.023
 6165TIP3   OH218458   5.191   6.688   0.165
 6165TIP3    H118459   5.180   6.776   0.200
 6165TIP3    H218460   5.253   6.646   0.225
 6166TIP3   OH218461   0.224   0.572   3.996
 6166TIP3    H118462   0.246   0.647   3.941
 6166TIP3    H218463   0.299   0.513   3.987
 6167TIP3   OH218464   3.246   2.963   1.961
 6167TIP3    H118465   3.313   2.942   2.026
 6167TIP3    H218466   3.248   3.058   1.954
 6168TIP3   OH218467   7.009   3.040   0.071
 6168TIP3    H118468   6.921   3.029   0.106
 6168TIP3    H218469   7.017   2.970   0.006
 6169TIP3   OH218470   0.463   2.038   4.759
 6169TIP3    H118471   0.446   2.127   4.789
 6169TIP3    H218472   0.524   2.002   4.823
 6170TIP3   OH218473   6.171   4.687   4.295
 6170TIP3    H118474   6.211   4.654   4.215
 6170TIP3    H218475   6.077   4.689   4.277
 6171TIP3   OH218476   5.721   5.255   0.734
 6171TIP3    H118477   5.816   5.259   0.741
 6171TIP3    H218478   5.705   5.229   0.643
 6172TIP3   OH218479   3.064   6.394   2.466
 6172TIP3    H118480   3.158   6.386   2.451
 6172TIP3    H218481   3.035   6.458   2.400
 6173TIP3   OH218482   2.893   4.704   1.860
 6173TIP3    H118483   2.931   4.787   1.832
 6173TIP3    H218484   2.828   4.728   1.926
 6174TIP3   OH218485   6.854   3.049   4.350
 6174TIP3    H118486   6.903   3.093   4.419
 6174TIP3    H218487   6.895   2.963   4.342
 6175TIP3   OH218488   3.264   1.925   2.728
 6175TIP3    H118489   3.264   1.960   2.818
 6175TIP3    H218490   3.345   1.959   2.690
 6176TIP3   OH218491   3.146   4.253   4.414
 6176TIP3    H118492   3.211   4.322   4.401
 6176TIP3    H218493   3.123   4.258   4.507
 6177TIP3   OH218494   6.104   4.142   2.306
 6177TIP3    H118495   6.164   4.206   2.345
 6177TIP3    H218496   6.090   4.173   2.217
 6178TIP3   OH218497   6.824   2.192   1.050
 6178TIP3    H118498   6.832   2.129   1.122
 6178TIP3    H218499   6.850   2.276   1.089
 6179TIP3   OH218500   6.381   2.215   3.903
 6179TIP3    H118501   6.346   2.126   3.903
 6179TIP3    H218502   6.451   2.213   3.968
 6180TIP3   OH218503   3.936   5.953   4.291
 6180TIP3    H118504   3.855   5.955   4.238
 6180TIP3    H218505   3.947   5.860   4.312
 6181TIP3   OH218506   4.919   5.630   3.620
 6181TIP3    H118507   4.853   5.576   3.663
 6181TIP3    H218508   4.890   5.720   3.634
 6182TIP3   OH218509   4.701   5.093   0.562
 6182TIP3    H118510   4.625   5.037   0.545
 6182TIP3    H218511   4.666   5.168   0.608
 6183TIP3   OH218512   6.382   4.962   0.114
 6183TIP3    H118513   6.464   4.923   0.083
 6183TIP3    H218514   6.384   5.052   0.081
 6184TIP3   OH218515   2.481   4.945   4.690
 6184TIP3    H118516   2.453   4.986   4.772
 6184TIP3    H218517   2.494   4.853   4.714
 6185TIP3   OH218518   2.844   0.879   3.028
 6185TIP3    H118519   2.791   0.801   3.012
 6185TIP3    H218520   2.895   0.890   2.947
 6186TIP3   OH218521   2.014   3.572   4.681
 6186TIP3    H118522   2.003   3.478   4.668
 6186TIP3    H218523   1.952   3.613   4.620
 6187TIP3   OH218524   3.090   2.255   1.669
 6187TIP3    H118525   3.063   2.280   1.757
 6187TIP3    H218526   3.180   2.287   1.661
 6188TIP3   OH218527   2.704   0.941   1.564
 6188TIP3    H118528   2.635   0.958   1.499
 6188TIP3    H218529   2.769   1.008   1.548
 6189TIP3   OH218530   3.259   6.496   3.568
 6189TIP3    H118531   3.191   6.475   3.503
 6189TIP3    H218532   3.278   6.589   3.553
 6190TIP3   OH218533   3.660   6.278   1.562
 6190TIP3    H118534   3.617   6.211   1.508
 6190TIP3    H218535   3.641   6.360   1.517
 6191TIP3   OH218536   1.632   2.225   0.881
 6191TIP3    H118537   1.702   2.214   0.946
 6191TIP3    H218538   1.605   2.136   0.859
 6192TIP3   OH218539   6.412   5.062   1.375
 6192TIP3    H118540   6.409   5.041   1.468
 6192TIP3    H218541   6.503   5.046   1.349
 6193TIP3   OH218542   1.319   3.043   2.247
 6193TIP3    H118543   1.262   3.007   2.315
 6193TIP3    H218544   1.266   3.112   2.206
 6194TIP3   OH218545   5.688   3.514   5.096
 6194TIP3    H118546   5.717   3.487   5.183
 6194TIP3    H218547   5.642   3.437   5.061
 6195TIP3   OH218548   2.653   3.595   3.129
 6195TIP3    H118549   2.641   3.617   3.221
 6195TIP3    H218550   2.584   3.643   3.083
 6196TIP3   OH218551   3.406   6.248   0.620
 6196TIP3    H118552   3.467   6.176   0.608
 6196TIP3    H218553   3.452   6.310   0.677
 6197TIP3   OH218554   1.211   3.017   3.795
 6197TIP3    H118555   1.218   3.013   3.700
 6197TIP3    H218556   1.220   3.110   3.816
 6198TIP3   OH218557   0.613   5.842   3.275
 6198TIP3    H118558   0.536   5.792   3.304
 6198TIP3    H218559   0.675   5.775   3.245
 6199TIP3   OH218560   3.739   2.015   5.829
 6199TIP3    H118561   3.794   2.027   5.907
 6199TIP3    H218562   3.700   1.929   5.840
 6200TIP3   OH218563   6.749   5.464   2.762
 6200TIP3    H118564   6.689   5.390   2.769
 6200TIP3    H218565   6.833   5.424   2.739
 6201TIP3   OH218566   0.022   3.596   1.284
 6201TIP3    H118567   0.113   3.625   1.294
 6201TIP3    H218568  -0.027   3.676   1.264
 6202TIP3   OH218569   0.058   5.074   2.951
 6202TIP3    H118570   0.124   5.120   2.900
 6202TIP3    H218571  -0.025   5.097   2.909
 6203TIP3   OH218572   4.698   6.564   3.025
 6203TIP3    H118573   4.626   6.553   3.087
 6203TIP3    H218574   4.777   6.545   3.077
 6204TIP3   OH218575   6.086   5.779   0.883
 6204TIP3    H118576   6.060   5.866   0.912
 6204TIP3    H218577   6.130   5.794   0.799
 6205TIP3   OH218578   3.750   5.531   4.746
 6205TIP3    H118579   3.803   5.454   4.763
 6205TIP3    H218580   3.665   5.513   4.787
 6206TIP3   OH218581   6.603   4.683   3.584
 6206TIP3    H118582   6.580   4.659   3.494
 6206TIP3    H218583   6.698   4.698   3.582
 6207TIP3   OH218584   4.291   5.831   3.713
 6207TIP3    H118585   4.269   5.809   3.622
 6207TIP3    H218586   4.365   5.892   3.705
 6208TIP3   OH218587   4.497   2.400   1.569
 6208TIP3    H118588   4.447   2.400   1.651
 6208TIP3    H218589   4.588   2.400   1.597
 6209TIP3   OH218590   1.616   4.360   1.784
 6209TIP3    H118591   1.675   4.426   1.746
 6209TIP3    H218592   1.591   4.397   1.869
 6210TIP3   OH218593   3.322   4.136   0.778
 6210TIP3    H118594   3.285   4.080   0.709
 6210TIP3    H218595   3.266   4.120   0.854
 6211TIP3   OH218596   4.607   6.746   1.590
 6211TIP3    H118597   4.644   6.692   1.519
 6211TIP3    H218598   4.525   6.702   1.613
 6212TIP3   OH218599   6.218   2.804   5.022
 6212TIP3    H118600   6.287   2.773   4.963
 6212TIP3    H218601   6.138   2.801   4.969
 6213TIP3   OH218602   4.114   2.360   4.792
 6213TIP3    H118603   4.074   2.347   4.706
 6213TIP3    H218604   4.138   2.453   4.793
 6214TIP3   OH218605   0.250   4.580   3.248
 6214TIP3    H118606   0.280   4.548   3.333
 6214TIP3    H218607   0.213   4.667   3.267
 6215TIP3   OH218608   6.972   3.146   1.276
 6215TIP3    H118609   7.044   3.174   1.331
 6215TIP3    H218610   6.984   3.051   1.267
 6216TIP3   OH218611   4.369   5.098   5.851
 6216TIP3    H118612   4.410   5.180   5.823
 6216TIP3    H218613   4.286   5.096   5.805
 6217TIP3   OH218614   0.756   4.442   1.685
 6217TIP3    H118615   0.699   4.421   1.759
 6217TIP3    H218616   0.822   4.372   1.685
 6218TIP3   OH218617   2.340   2.489   2.001
 6218TIP3    H118618   2.405   2.456   1.938
 6218TIP3    H218619   2.264   2.511   1.947
 6219TIP3   OH218620   5.468   1.350   1.367
 6219TIP3    H118621   5.448   1.261   1.336
 6219TIP3    H218622   5.383   1.384   1.397
 6220TIP3   OH218623   1.266   4.739   0.828
 6220TIP3    H118624   1.233   4.828   0.824
 6220TIP3    H218625   1.213   4.690   0.765
 6221TIP3   OH218626   2.417   4.426   0.763
 6221TIP3    H118627   2.505   4.409   0.797
 6221TIP3    H218628   2.394   4.347   0.715
 6222TIP3   OH218629   5.002   3.540   4.901
 6222TIP3    H118630   5.049   3.560   4.982
 6222TIP3    H218631   4.962   3.455   4.916
 6223TIP3   OH218632   2.727   6.085   0.215
 6223TIP3    H118633   2.820   6.087   0.235
 6223TIP3    H218634   2.684   6.116   0.295
 6224TIP3   OH218635   1.480   0.257   5.611
 6224TIP3    H118636   1.396   0.211   5.616
 6224TIP3    H218637   1.517   0.229   5.527
 6225TIP3   OH218638   0.913   5.822   5.588
 6225TIP3    H118639   0.997   5.858   5.561
 6225TIP3    H218640   0.890   5.761   5.518
 6226TIP3   OH218641   2.484   0.098   2.619
 6226TIP3    H118642   2.479   0.005   2.640
 6226TIP3    H218643   2.499   0.140   2.704
 6227TIP3   OH218644   1.937   0.792   4.540
 6227TIP3    H118645   2.000   0.797   4.468
 6227TIP3    H218646   1.938   0.880   4.578
 6228TIP3   OH218647   6.760   0.618   5.224
 6228TIP3    H118648   6.730   0.665   5.301
 6228TIP3    H218649   6.855   0.632   5.222
 6229TIP3   OH218650   0.280   0.616   0.258
 6229TIP3    H118651   0.212   0.622   0.190
 6229TIP3    H218652   0.237   0.650   0.337
 6230TIP3   OH218653   5.495   1.647   4.293
 6230TIP3    H118654   5.537   1.601   4.366
 6230TIP3    H218655   5.517   1.595   4.216
 6231TIP3   OH218656   0.131   3.633   4.306
 6231TIP3    H118657   0.053   3.666   4.261
 6231TIP3    H218658   0.202   3.642   4.241
 6232TIP3   OH218659   0.458   3.018   0.458
 6232TIP3    H118660   0.514   2.940   0.456
 6232TIP3    H218661   0.380   2.989   0.506
 6233TIP3   OH218662   2.207   4.134   3.404
 6233TIP3    H118663   2.202   4.072   3.476
 6233TIP3    H218664   2.121   4.175   3.401
 6234TIP3   OH218665   6.738   3.712   1.822
 6234TIP3    H118666   6.717   3.618   1.819
 6234TIP3    H218667   6.655   3.755   1.803
 6235TIP3   OH218668   4.369   4.711   2.176
 6235TIP3    H118669   4.378   4.805   2.159
 6235TIP3    H218670   4.434   4.670   2.118
 6236TIP3   OH218671   3.779   4.776   0.770
 6236TIP3    H118672   3.865   4.739   0.750
 6236TIP3    H218673   3.732   4.706   0.814
 6237TIP3   OH218674   4.829   2.506   2.661
 6237TIP3    H118675   4.760   2.541   2.605
 6237TIP3    H218676   4.832   2.413   2.640
 6238TIP3   OH218677   3.385   4.499   1.700
 6238TIP3    H118678   3.350   4.423   1.655
 6238TIP3    H218679   3.333   4.507   1.780
 6239TIP3   OH218680   6.811   1.767   1.374
 6239TIP3    H118681   6.744   1.700   1.385
 6239TIP3    H218682   6.806   1.819   1.454
 6240TIP3   OH218683   6.893   0.770  -0.052
 6240TIP3    H118684   6.913   0.702   0.013
 6240TIP3    H218685   6.851   0.839  -0.001
 6241TIP3   OH218686   2.904   5.652   2.482
 6241TIP3    H118687   2.812   5.653   2.458
 6241TIP3    H218688   2.919   5.737   2.524
 6242TIP3   OH218689   4.700   0.806   2.809
 6242TIP3    H118690   4.795   0.789   2.804
 6242TIP3    H218691   4.671   0.760   2.887
 6243TIP3   OH218692   6.366   4.281   0.408
 6243TIP3    H118693   6.276   4.253   0.424
 6243TIP3    H218694   6.410   4.202   0.376
 6244TIP3   OH218695   6.014   5.833   0.070
 6244TIP3    H118696   5.925   5.867   0.078
 6244TIP3    H218697   6.068   5.910   0.054
 6245TIP3   OH218698   4.978   5.711   3.260
 6245TIP3    H118699   4.904   5.652   3.248
 6245TIP3    H218700   5.038   5.663   3.318
 6246TIP3   OH218701   6.502   4.153   2.858
 6246TIP3    H118702   6.463   4.078   2.903
 6246TIP3    H218703   6.429   4.211   2.839
 6247TIP3   OH218704   3.330   0.478   3.273
 6247TIP3    H118705   3.286   0.400   3.240
 6247TIP3    H218706   3.280   0.502   3.351
 6248TIP3   OH218707   0.838   0.506   4.416
 6248TIP3    H118708   0.873   0.595   4.409
 6248TIP3    H218709   0.915   0.451   4.430
 6249TIP3   OH218710   1.536   0.796   2.429
 6249TIP3    H118711   1.488   0.729   2.379
 6249TIP3    H218712   1.616   0.752   2.456
 6250TIP3   OH218713   5.936   5.621   1.466
 6250TIP3    H118714   5.963   5.588   1.552
 6250TIP3    H218715   6.019   5.639   1.420
 6251TIP3   OH218716   4.192   5.785   3.451
 6251TIP3    H118717   4.201   5.880   3.441
 6251TIP3    H218718   4.104   5.766   3.418
 6252TIP3   OH218719   7.145   4.320   0.412
 6252TIP3    H118720   7.101   4.236   0.397
 6252TIP3    H218721   7.120   4.373   0.336
 6253TIP3   OH218722   3.517   5.650   1.470
 6253TIP3    H118723   3.460   5.709   1.422
 6253TIP3    H218724   3.583   5.622   1.406
 6254TIP3   OH218725   2.862   1.171   1.541
 6254TIP3    H118726   2.844   1.265   1.533
 6254TIP3    H218727   2.957   1.165   1.543
 6255TIP3   OH218728   6.829   3.423   3.653
 6255TIP3    H118729   6.874   3.467   3.580
 6255TIP3    H218730   6.890   3.431   3.726
 6256TIP3   OH218731   5.217   2.673   4.047
 6256TIP3    H118732   5.206   2.762   4.078
 6256TIP3    H218733   5.260   2.627   4.120
 6257TIP3   OH218734   1.725   4.405   3.213
 6257TIP3    H118735   1.779   4.370   3.142
 6257TIP3    H218736   1.743   4.499   3.212
 6258TIP3   OH218737   3.671   1.783   2.333
 6258TIP3    H118738   3.686   1.692   2.359
 6258TIP3    H218739   3.594   1.779   2.276
 6259TIP3   OH218740   6.739   0.904   3.932
 6259TIP3    H118741   6.718   0.943   4.016
 6259TIP3    H218742   6.732   0.810   3.946
 6260TIP3   OH218743   0.941   2.130   4.782
 6260TIP3    H118744   0.973   2.071   4.850
 6260TIP3    H218745   0.847   2.117   4.780
 6261TIP3   OH218746   1.530   2.886   3.312
 6261TIP3    H118747   1.544   2.960   3.371
 6261TIP3    H218748   1.618   2.860   3.285
 6262TIP3   OH218749   6.786   4.107   0.432
 6262TIP3    H118750   6.757   4.016   0.422
 6262TIP3    H218751   6.860   4.115   0.372
 6263TIP3   OH218752   3.958   5.573   3.445
 6263TIP3    H118753   3.913   5.552   3.363
 6263TIP3    H218754   3.888   5.597   3.505
 6264TIP3   OH218755   2.598   4.159   2.005
 6264TIP3    H118756   2.510   4.121   2.012
 6264TIP3    H218757   2.635   4.119   1.927
 6265TIP3   OH218758   3.717   5.899   0.877
 6265TIP3    H118759   3.759   5.812   0.879
 6265TIP3    H218760   3.784   5.959   0.911
 6266TIP3   OH218761   0.580   5.496   4.570
 6266TIP3    H118762   0.490   5.463   4.575
 6266TIP3    H218763   0.622   5.464   4.650
 6267TIP3   OH218764   6.648   0.588   1.664
 6267TIP3    H118765   6.630   0.514   1.605
 6267TIP3    H218766   6.743   0.588   1.674
 6268TIP3   OH218767   6.502   6.720   3.916
 6268TIP3    H118768   6.433   6.673   3.963
 6268TIP3    H218769   6.584   6.692   3.959
 6269TIP3   OH218770   1.040   4.219   0.269
 6269TIP3    H118771   1.057   4.312   0.283
 6269TIP3    H218772   0.990   4.216   0.187
 6270TIP3   OH218773   3.570   4.664   5.510
 6270TIP3    H118774   3.601   4.723   5.441
 6270TIP3    H218775   3.634   4.675   5.580
 6271TIP3   OH218776   6.952   1.390   4.370
 6271TIP3    H118777   6.987   1.475   4.397
 6271TIP3    H218778   7.011   1.360   4.302
 6272TIP3   OH218779   2.542   5.761   0.633
 6272TIP3    H118780   2.555   5.852   0.608
 6272TIP3    H218781   2.627   5.733   0.667
 6273TIP3   OH218782   4.892   0.333   0.074
 6273TIP3    H118783   4.902   0.406   0.136
 6273TIP3    H218784   4.828   0.275   0.116
 6274TIP3   OH218785   2.041   3.174   4.114
 6274TIP3    H118786   2.089   3.216   4.043
 6274TIP3    H218787   1.971   3.235   4.136
 6275TIP3   OH218788   3.282   0.933   4.596
 6275TIP3    H118789   3.306   0.899   4.510
 6275TIP3    H218790   3.365   0.967   4.632
 6276TIP3   OH218791   1.777   1.823   2.783
 6276TIP3    H118792   1.706   1.759   2.779
 6276TIP3    H218793   1.857   1.770   2.787
 6277TIP3   OH218794   6.819   3.071   0.575
 6277TIP3    H118795   6.862   2.996   0.536
 6277TIP3    H218796   6.725   3.053   0.563
 6278TIP3   OH218797   3.740   4.304   4.695
 6278TIP3    H118798   3.801   4.233   4.677
 6278TIP3    H218799   3.729   4.302   4.790
 6279TIP3   OH218800   4.700   5.101   2.108
 6279TIP3    H118801   4.616   5.059   2.096
 6279TIP3    H218802   4.704   5.167   2.038
 6280TIP3   OH218803   3.192   0.355   4.789
 6280TIP3    H118804   3.188   0.279   4.732
 6280TIP3    H218805   3.102   0.388   4.792
 6281TIP3   OH218806   2.616   4.257   0.935
 6281TIP3    H118807   2.543   4.256   0.998
 6281TIP3    H218808   2.665   4.177   0.955
 6282TIP3   OH218809   3.066   2.174   3.461
 6282TIP3    H118810   3.159   2.154   3.475
 6282TIP3    H218811   3.067   2.250   3.403
 6283TIP3   OH218812   3.010   5.450   2.115
 6283TIP3    H118813   3.030   5.438   2.208
 6283TIP3    H218814   2.952   5.377   2.094
 6284TIP3   OH218815   0.442   2.447   5.579
 6284TIP3    H118816   0.438   2.392   5.658
 6284TIP3    H218817   0.377   2.516   5.594
 6285TIP3   OH218818   3.747   0.191   0.512
 6285TIP3    H118819   3.818   0.223   0.566
 6285TIP3    H218820   3.727   0.263   0.452
 6286TIP3   OH218821   6.562   0.839   1.522
 6286TIP3    H118822   6.470   0.816   1.512
 6286TIP3    H218823   6.604   0.760   1.554
 6287TIP3   OH218824   5.576   2.358   0.119
 6287TIP3    H118825   5.495   2.307   0.116
 6287TIP3    H218826   5.606   2.352   0.209
 6288TIP3   OH218827   0.346   1.203   1.272
 6288TIP3    H118828   0.433   1.215   1.234
 6288TIP3    H218829   0.317   1.291   1.294
 6289TIP3   OH218830   0.095   6.348   1.388
 6289TIP3    H118831   0.108   6.365   1.295
 6289TIP3    H218832   0.159   6.404   1.432
 6290TIP3   OH218833   3.575   0.097   5.696
 6290TIP3    H118834   3.661   0.131   5.669
 6290TIP3    H218835   3.576   0.104   5.791
 6291TIP3   OH218836   4.789   6.549   0.949
 6291TIP3    H118837   4.709   6.545   1.002
 6291TIP3    H218838   4.762   6.519   0.862
 6292TIP3   OH218839   6.728   6.240   5.756
 6292TIP3    H118840   6.772   6.177   5.813
 6292TIP3    H218841   6.664   6.189   5.708
 6293TIP3   OH218842   3.842   4.750   3.756
 6293TIP3    H118843   3.816   4.676   3.701
 6293TIP3    H218844   3.811   4.827   3.708
 6294TIP3   OH218845   0.156   6.556   0.493
 6294TIP3    H118846   0.083   6.505   0.527
 6294TIP3    H218847   0.176   6.619   0.563
 6295TIP3   OH218848   4.268   3.232   1.760
 6295TIP3    H118849   4.347   3.183   1.740
 6295TIP3    H218850   4.212   3.219   1.684
 6296TIP3   OH218851   3.203   6.328   1.204
 6296TIP3    H118852   3.146   6.336   1.127
 6296TIP3    H218853   3.238   6.416   1.216
 6297TIP3   OH218854   2.420   6.618   3.650
 6297TIP3    H118855   2.411   6.645   3.741
 6297TIP3    H218856   2.500   6.661   3.620
 6298TIP3   OH218857   6.995   4.026   3.760
 6298TIP3    H118858   7.021   3.943   3.720
 6298TIP3    H218859   6.902   4.015   3.779
 6299TIP3   OH218860   1.671   3.797   1.265
 6299TIP3    H118861   1.587   3.763   1.294
 6299TIP3    H218862   1.736   3.743   1.310
 6300TIP3   OH218863   5.437   2.625   5.273
 6300TIP3    H118864   5.445   2.717   5.298
 6300TIP3    H218865   5.523   2.587   5.294
 6301TIP3   OH218866   2.049   4.850   1.317
 6301TIP3    H118867   1.979   4.801   1.275
 6301TIP3    H218868   2.129   4.819   1.274
 6302TIP3   OH218869   1.980   5.117   0.542
 6302TIP3    H118870   1.890   5.143   0.521
 6302TIP3    H218871   1.975   5.084   0.632
 6303TIP3   OH218872   3.887   1.054   2.294
 6303TIP3    H118873   3.900   1.012   2.379
 6303TIP3    H218874   3.870   0.982   2.234
 6304TIP3   OH218875   1.464   3.569   0.520
 6304TIP3    H118876   1.521   3.551   0.446
 6304TIP3    H218877   1.383   3.601   0.481
 6305TIP3   OH218878   5.842   4.640   0.188
 6305TIP3    H118879   5.831   4.586   0.110
 6305TIP3    H218880   5.932   4.622   0.217
 6306TIP3   OH218881   3.640   0.641   0.891
 6306TIP3    H118882   3.626   0.668   0.981
 6306TIP3    H218883   3.578   0.569   0.877
 6307TIP3   OH218884   1.158   6.116   4.928
 6307TIP3    H118885   1.136   6.034   4.972
 6307TIP3    H218886   1.164   6.181   4.998
 6308TIP3   OH218887   3.227   3.088   3.692
 6308TIP3    H118888   3.198   3.000   3.667
 6308TIP3    H218889   3.152   3.126   3.738
 6309TIP3   OH218890   6.515   5.742   1.770
 6309TIP3    H118891   6.542   5.774   1.856
 6309TIP3    H218892   6.569   5.664   1.756
 6310TIP3   OH218893   3.300   2.652   5.662
 6310TIP3    H118894   3.312   2.742   5.632
 6310TIP3    H218895   3.207   2.634   5.648
 6311TIP3   OH218896   5.723   4.887   3.290
 6311TIP3    H118897   5.697   4.947   3.360
 6311TIP3    H218898   5.702   4.933   3.210
 6312TIP3   OH218899   5.369   2.736   2.843
 6312TIP3    H118900   5.319   2.807   2.882
 6312TIP3    H218901   5.331   2.725   2.756
 6313TIP3   OH218902   4.075   6.149   5.664
 6313TIP3    H118903   4.094   6.109   5.579
 6313TIP3    H218904   4.109   6.239   5.657
 6314TIP3   OH218905   3.331   6.127   5.467
 6314TIP3    H118906   3.394   6.178   5.518
 6314TIP3    H218907   3.379   6.098   5.390
 6315TIP3   OH218908   5.689   1.479   5.211
 6315TIP3    H118909   5.782   1.500   5.209
 6315TIP3    H218910   5.668   1.454   5.121
 6316TIP3   OH218911   6.308   5.517   4.862
 6316TIP3    H118912   6.282   5.443   4.917
 6316TIP3    H218913   6.252   5.512   4.785
 6317TIP3   OH218914   2.536   3.486   2.721
 6317TIP3    H118915   2.606   3.520   2.666
 6317TIP3    H218916   2.530   3.393   2.698
 6318TIP3   OH218917   3.220   4.602   2.144
 6318TIP3    H118918   3.315   4.606   2.161
 6318TIP3    H218919   3.190   4.526   2.193
 6319TIP3   OH218920   3.167   0.132   4.621
 6319TIP3    H118921   3.222   0.119   4.543
 6319TIP3    H218922   3.085   0.087   4.601
 6320TIP3   OH218923   4.489   4.609   1.623
 6320TIP3    H118924   4.523   4.697   1.639
 6320TIP3    H218925   4.565   4.552   1.628
 6321TIP3   OH218926   4.510   5.166   1.156
 6321TIP3    H118927   4.473   5.119   1.081
 6321TIP3    H218928   4.584   5.214   1.120
 6322TIP3   OH218929   2.241   0.716   3.652
 6322TIP3    H118930   2.310   0.665   3.694
 6322TIP3    H218931   2.176   0.730   3.721
 6323TIP3   OH218932   6.995   0.905   1.036
 6323TIP3    H118933   6.996   0.962   0.959
 6323TIP3    H218934   7.060   0.837   1.016
 6324TIP3   OH218935   3.707   3.945   4.300
 6324TIP3    H118936   3.730   4.037   4.310
 6324TIP3    H218937   3.622   3.946   4.256
 6325TIP3   OH218938   4.681   3.072   0.776
 6325TIP3    H118939   4.612   3.034   0.830
 6325TIP3    H218940   4.638   3.141   0.726
 6326TIP3   OH218941   0.569   2.916   5.535
 6326TIP3    H118942   0.637   2.974   5.500
 6326TIP3    H218943   0.544   2.861   5.461
 6327TIP3   OH218944   6.605   3.681   1.552
 6327TIP3    H118945   6.546   3.732   1.607
 6327TIP3    H218946   6.628   3.605   1.605
 6328TIP3   OH218947   5.210   0.674   5.361
 6328TIP3    H118948   5.285   0.656   5.417
 6328TIP3    H218949   5.142   0.615   5.392
 6329TIP3   OH218950   4.080   4.557   0.149
 6329TIP3    H118951   4.175   4.569   0.158
 6329TIP3    H218952   4.046   4.571   0.237
 6330TIP3   OH218953   2.997   2.798   2.782
 6330TIP3    H118954   2.909   2.805   2.817
 6330TIP3    H218955   3.054   2.827   2.854
 6331TIP3   OH218956   2.016   0.857   1.894
 6331TIP3    H118957   2.048   0.767   1.900
 6331TIP3    H218958   1.923   0.852   1.917
 6332TIP3   OH218959   5.740   4.197   5.188
 6332TIP3    H118960   5.648   4.187   5.213
 6332TIP3    H218961   5.789   4.169   5.266
 6333TIP3   OH218962   1.481   5.557   1.443
 6333TIP3    H118963   1.559   5.504   1.430
 6333TIP3    H218964   1.454   5.583   1.354
 6334TIP3   OH218965   1.249   3.266   1.700
 6334TIP3    H118966   1.217   3.340   1.750
 6334TIP3    H218967   1.179   3.247   1.638
 6335TIP3   OH218968   6.904   0.325   0.860
 6335TIP3    H118969   6.854   0.352   0.783
 6335TIP3    H218970   6.891   0.230   0.865
 6336TIP3   OH218971   3.802   3.117   5.202
 6336TIP3    H118972   3.742   3.184   5.168
 6336TIP3    H218973   3.882   3.165   5.223
 6337TIP3   OH218974   0.841   3.755   5.623
 6337TIP3    H118975   0.801   3.692   5.563
 6337TIP3    H218976   0.934   3.753   5.602
 6338TIP3   OH218977   4.014   4.478   1.303
 6338TIP3    H118978   4.006   4.558   1.250
 6338TIP3    H218979   4.088   4.431   1.264
 6339TIP3   OH218980   6.659   2.172   2.025
 6339TIP3    H118981   6.586   2.173   2.086
 6339TIP3    H218982   6.737   2.160   2.080
 6340TIP3   OH218983   7.047   5.046   4.910
 6340TIP3    H118984   7.030   5.121   4.967
 6340TIP3    H218985   7.048   5.083   4.822
 6341TIP3   OH218986   5.299   5.237   1.200
 6341TIP3    H118987   5.314   5.151   1.160
 6341TIP3    H218988   5.369   5.292   1.166
 6342TIP3   OH218989   3.451   4.446   2.317
 6342TIP3    H118990   3.433   4.534   2.285
 6342TIP3    H218991   3.547   4.440   2.318
 6343TIP3   OH218992   2.226   0.337   0.983
 6343TIP3    H118993   2.173   0.390   1.043
 6343TIP3    H218994   2.182   0.346   0.898
 6344TIP3   OH218995   3.680   0.885   3.390
 6344TIP3    H118996   3.764   0.912   3.353
 6344TIP3    H218997   3.698   0.803   3.436
 6345TIP3   OH218998   2.804   5.093   1.012
 6345TIP3    H118999   2.714   5.084   1.044
 6345TIP3    H219000   2.798   5.152   0.937
 6346TIP3   OH219001   0.872   1.528   3.229
 6346TIP3    H119002   0.825   1.520   3.312
 6346TIP3    H219003   0.804   1.545   3.164
 6347TIP3   OH219004   1.778   3.380   4.484
 6347TIP3    H119005   1.851   3.318   4.494
 6347TIP3    H219006   1.815   3.451   4.432
 6348TIP3   OH219007   3.203   4.424   4.642
 6348TIP3    H119008   3.183   4.488   4.574
 6348TIP3    H219009   3.264   4.469   4.700
 6349TIP3   OH219010   1.350   1.500   1.411
 6349TIP3    H119011   1.339   1.595   1.409
 6349TIP3    H219012   1.402   1.481   1.333
 6350TIP3   OH219013   4.061   3.561   4.064
 6350TIP3    H119014   4.006   3.633   4.094
 6350TIP3    H219015   4.149   3.583   4.095
 6351TIP3   OH219016   0.393   4.379   2.682
 6351TIP3    H119017   0.310   4.413   2.648
 6351TIP3    H219018   0.407   4.426   2.764
 6352TIP3   OH219019   1.979   3.114   3.494
 6352TIP3    H119020   1.955   3.205   3.478
 6352TIP3    H219021   1.899   3.073   3.527
 6353TIP3   OH219022   2.588   6.379   0.924
 6353TIP3    H119023   2.662   6.435   0.901
 6353TIP3    H219024   2.562   6.409   1.012
 6354TIP3   OH219025   5.922   5.603   0.737
 6354TIP3    H119026   5.965   5.662   0.799
 6354TIP3    H219027   5.993   5.567   0.684
 6355TIP3   OH219028   2.918   5.833   1.853
 6355TIP3    H119029   2.838   5.790   1.825
 6355TIP3    H219030   2.985   5.765   1.849
 6356TIP3   OH219031   4.552   1.164   1.923
 6356TIP3    H119032   4.510   1.150   1.838
 6356TIP3    H219033   4.571   1.076   1.955
 6357TIP3   OH219034   3.130   3.235   5.665
 6357TIP3    H119035   3.039   3.264   5.656
 6357TIP3    H219036   3.124   3.140   5.674
 6358TIP3   OH219037   3.310   4.605   1.232
 6358TIP3    H119038   3.277   4.613   1.142
 6358TIP3    H219039   3.273   4.522   1.263
 6359TIP3   OH219040   5.366   4.235   3.556
 6359TIP3    H119041   5.384   4.243   3.462
 6359TIP3    H219042   5.436   4.284   3.598
 6360TIP3   OH219043   5.895   2.240   3.027
 6360TIP3    H119044   5.835   2.174   3.063
 6360TIP3    H219045   5.961   2.252   3.096
 6361TIP3   OH219046   5.954   2.355   5.685
 6361TIP3    H119047   6.044   2.389   5.679
 6361TIP3    H219048   5.929   2.370   5.776
 6362TIP3   OH219049   0.472   2.786   3.048
 6362TIP3    H119050   0.447   2.815   3.136
 6362TIP3    H219051   0.389   2.779   3.001
 6363TIP3   OH219052   1.942   3.700   5.768
 6363TIP3    H119053   2.025   3.745   5.749
 6363TIP3    H219054   1.875   3.754   5.727
 6364TIP3   OH219055   0.234   1.355   2.752
 6364TIP3    H119056   0.239   1.260   2.751
 6364TIP3    H219057   0.154   1.374   2.802
 6365TIP3   OH219058   1.826   3.000   5.757
 6365TIP3    H119059   1.755   3.063   5.749
 6365TIP3    H219060   1.791   2.919   5.719
 6366TIP3   OH219061   5.696   6.015   2.752
 6366TIP3    H119062   5.700   6.104   2.787
 6366TIP3    H219063   5.665   5.962   2.826
 6367TIP3   OH219064   4.344   5.221   1.833
 6367TIP3    H119065   4.351   5.316   1.848
 6367TIP3    H219066   4.373   5.209   1.742
 6368TIP3   OH219067   1.674   5.096   2.172
 6368TIP3    H119068   1.738   5.027   2.153
 6368TIP3    H219069   1.606   5.052   2.222
 6369TIP3   OH219070   3.381   1.803   5.176
 6369TIP3    H119071   3.404   1.765   5.261
 6369TIP3    H219072   3.386   1.729   5.115
 6370TIP3   OH219073   5.355   0.514   3.451
 6370TIP3    H119074   5.327   0.438   3.502
 6370TIP3    H219075   5.375   0.581   3.516
 6371TIP3   OH219076   0.975   3.407   0.122
 6371TIP3    H119077   0.992   3.334   0.181
 6371TIP3    H219078   0.884   3.397   0.096
 6372TIP3   OH219079   0.548   3.760   5.106
 6372TIP3    H119080   0.466   3.768   5.154
 6372TIP3    H219081   0.534   3.813   5.027
 6373TIP3   OH219082   6.402   6.238   3.042
 6373TIP3    H119083   6.388   6.218   2.950
 6373TIP3    H219084   6.400   6.153   3.086
 6374TIP3   OH219085   4.443   0.113   3.694
 6374TIP3    H119086   4.355   0.108   3.656
 6374TIP3    H219087   4.484   0.187   3.649
 6375TIP3   OH219088   6.479   5.354   1.943
 6375TIP3    H119089   6.454   5.262   1.933
 6375TIP3    H219090   6.517   5.360   2.030
 6376TIP3   OH219091   3.449   2.624   3.949
 6376TIP3    H119092   3.517   2.620   3.882
 6376TIP3    H219093   3.423   2.716   3.951
 6377TIP3   OH219094   3.333   3.287   3.926
 6377TIP3    H119095   3.347   3.234   3.848
 6377TIP3    H219096   3.286   3.230   3.986
 6378TIP3   OH219097   4.839   0.583   2.061
 6378TIP3    H119098   4.888   0.501   2.069
 6378TIP3    H219099   4.900   0.643   2.017
 6379TIP3   OH219100   4.129   4.202   4.098
 6379TIP3    H119101   4.070   4.207   4.174
 6379TIP3    H219102   4.143   4.293   4.072
 6380TIP3   OH219103   5.313   6.256   2.253
 6380TIP3    H119104   5.251   6.310   2.205
 6380TIP3    H219105   5.397   6.302   2.244
 6381TIP3   OH219106   1.120   1.653   1.799
 6381TIP3    H119107   1.176   1.644   1.877
 6381TIP3    H219108   1.126   1.746   1.777
 6382TIP3   OH219109   1.364   3.291   0.543
 6382TIP3    H119110   1.397   3.231   0.610
 6382TIP3    H219111   1.405   3.375   0.565
 6383TIP3   OH219112   1.709   3.727   2.438
 6383TIP3    H119113   1.688   3.708   2.529
 6383TIP3    H219114   1.758   3.650   2.408
 6384TIP3   OH219115   0.201   3.618   5.727
 6384TIP3    H119116   0.151   3.652   5.801
 6384TIP3    H219117   0.286   3.662   5.734
 6385TIP3   OH219118   3.182   2.443   4.204
 6385TIP3    H119119   3.276   2.459   4.197
 6385TIP3    H219120   3.149   2.452   4.114
 6386TIP3   OH219121   0.604   5.914   0.200
 6386TIP3    H119122   0.573   5.997   0.234
 6386TIP3    H219123   0.666   5.937   0.130
 6387TIP3   OH219124   2.110   5.674   2.008
 6387TIP3    H119125   2.192   5.666   2.057
 6387TIP3    H219126   2.117   5.610   1.937
 6388TIP3   OH219127   3.244   2.164   5.691
 6388TIP3    H119128   3.169   2.141   5.636
 6388TIP3    H219129   3.305   2.207   5.631
 6389TIP3   OH219130   4.144   5.950   0.381
 6389TIP3    H119131   4.160   5.873   0.326
 6389TIP3    H219132   4.056   5.979   0.356
 6390TIP3   OH219133   5.512   3.059   0.014
 6390TIP3    H119134   5.552   3.038   0.098
 6390TIP3    H219135   5.585   3.059  -0.048
 6391TIP3   OH219136   0.158   3.282   4.791
 6391TIP3    H119137   0.214   3.323   4.857
 6391TIP3    H219138   0.091   3.348   4.772
 6392TIP3   OH219139   2.136   1.973   3.859
 6392TIP3    H119140   2.127   2.008   3.948
 6392TIP3    H219141   2.160   2.050   3.806
 6393TIP3   OH219142   1.673   0.092   1.923
 6393TIP3    H119143   1.578   0.093   1.931
 6393TIP3    H219144   1.689   0.049   1.839
 6394TIP3   OH219145   4.002   0.544   5.765
 6394TIP3    H119146   4.061   0.619   5.769
 6394TIP3    H219147   4.058   0.468   5.781
 6395TIP3   OH219148   0.258   0.107   5.137
 6395TIP3    H119149   0.339   0.151   5.111
 6395TIP3    H219150   0.258   0.111   5.232
 6396TIP3   OH219151   0.857   2.816   5.303
 6396TIP3    H119152   0.819   2.900   5.280
 6396TIP3    H219153   0.793   2.751   5.274
 6397TIP3   OH219154   1.637   2.593   3.818
 6397TIP3    H119155   1.715   2.593   3.763
 6397TIP3    H219156   1.607   2.684   3.817
 6398TIP3   OH219157   2.825   1.092   5.741
 6398TIP3    H119158   2.794   1.001   5.734
 6398TIP3    H219159   2.746   1.145   5.729
 6399TIP3   OH219160   6.624   5.405   0.623
 6399TIP3    H119161   6.536   5.376   0.647
 6399TIP3    H219162   6.633   5.491   0.664
 6400TIP3   OH219163   0.901   1.929   1.542
 6400TIP3    H119164   0.946   1.848   1.518
 6400TIP3    H219165   0.970   1.996   1.539
 6401TIP3   OH219166   3.430   4.872   3.346
 6401TIP3    H119167   3.516   4.854   3.384
 6401TIP3    H219168   3.426   4.816   3.268
 6402TIP3   OH219169   2.467   0.643   1.405
 6402TIP3    H119170   2.457   0.649   1.500
 6402TIP3    H219171   2.408   0.573   1.378
 6403TIP3   OH219172   6.867   5.386   3.446
 6403TIP3    H119173   6.800   5.417   3.507
 6403TIP3    H219174   6.826   5.311   3.402
 6404TIP3   OH219175   3.881   5.150   5.319
 6404TIP3    H119176   3.846   5.146   5.408
 6404TIP3    H219177   3.871   5.062   5.284
 6405TIP3   OH219178   0.519   3.586   0.622
 6405TIP3    H119179   0.605   3.606   0.588
 6405TIP3    H219180   0.471   3.669   0.619
 6406TIP3   OH219181   1.794   1.221   1.284
 6406TIP3    H119182   1.816   1.254   1.197
 6406TIP3    H219183   1.862   1.256   1.342
 6407TIP3   OH219184   1.184   3.459   2.673
 6407TIP3    H119185   1.125   3.435   2.602
 6407TIP3    H219186   1.272   3.441   2.638
 6408TIP3   OH219187   5.603   3.842   0.388
 6408TIP3    H119188   5.564   3.758   0.414
 6408TIP3    H219189   5.556   3.866   0.308
 6409TIP3   OH219190   0.065   6.057   0.608
 6409TIP3    H119191   0.096   6.105   0.684
 6409TIP3    H219192   0.100   5.969   0.620
 6410TIP3   OH219193   6.503   3.314   2.687
 6410TIP3    H119194   6.503   3.326   2.592
 6410TIP3    H219195   6.559   3.238   2.702
 6411TIP3   OH219196   4.102   6.750   3.665
 6411TIP3    H119197   4.148   6.709   3.739
 6411TIP3    H219198   4.171   6.765   3.600
 6412TIP3   OH219199   3.706   4.165   0.361
 6412TIP3    H119200   3.636   4.192   0.421
 6412TIP3    H219201   3.663   4.154   0.277
 6413TIP3   OH219202   0.224   0.881   3.478
 6413TIP3    H119203   0.190   0.820   3.413
 6413TIP3    H219204   0.153   0.945   3.491
 6414TIP3   OH219205   5.969   6.666   1.381
 6414TIP3    H119206   5.971   6.756   1.414
 6414TIP3    H219207   5.916   6.671   1.301
 6415TIP3   OH219208   5.314   1.057   3.656
 6415TIP3    H119209   5.400   1.090   3.630
 6415TIP3    H219210   5.252   1.107   3.604
 6416TIP3   OH219211   6.521   3.442   1.402
 6416TIP3    H119212   6.559   3.511   1.457
 6416TIP3    H219213   6.595   3.406   1.354
 6417TIP3   OH219214   3.159   5.772   3.277
 6417TIP3    H119215   3.200   5.825   3.345
 6417TIP3    H219216   3.117   5.700   3.324
 6418TIP3   OH219217   4.714   1.088   2.915
 6418TIP3    H119218   4.733   1.024   2.983
 6418TIP3    H219219   4.728   1.041   2.833
 6419TIP3   OH219220   0.860   3.551   3.133
 6419TIP3    H119221   0.915   3.599   3.073
 6419TIP3    H219222   0.771   3.564   3.101
 6420TIP3   OH219223   4.797   6.302   4.220
 6420TIP3    H119224   4.704   6.282   4.212
 6420TIP3    H219225   4.803   6.355   4.299
 6421TIP3   OH219226   3.366   0.088   0.421
 6421TIP3    H119227   3.387   0.181   0.411
 6421TIP3    H219228   3.447   0.042   0.401
 6422TIP3   OH219229   6.247   2.596   3.896
 6422TIP3    H119230   6.217   2.538   3.827
 6422TIP3    H219231   6.235   2.546   3.977
 6423TIP3   OH219232   0.666   4.391   5.769
 6423TIP3    H119233   0.658   4.420   5.678
 6423TIP3    H219234   0.660   4.295   5.764
 6424TIP3   OH219235   5.988   3.382   2.362
 6424TIP3    H119236   5.929   3.317   2.326
 6424TIP3    H219237   5.984   3.368   2.457
 6425TIP3   OH219238   6.464   0.710   3.655
 6425TIP3    H119239   6.398   0.740   3.717
 6425TIP3    H219240   6.473   0.616   3.673
 6426TIP3   OH219241   4.547   2.109   5.445
 6426TIP3    H119242   4.497   2.174   5.494
 6426TIP3    H219243   4.491   2.032   5.444
 6427TIP3   OH219244   4.833   2.776   3.157
 6427TIP3    H119245   4.788   2.797   3.075
 6427TIP3    H219246   4.763   2.760   3.220
 6428TIP3   OH219247   3.583   5.059   2.206
 6428TIP3    H119248   3.488   5.045   2.204
 6428TIP3    H219249   3.619   4.974   2.234
 6429TIP3   OH219250   5.996   6.022   0.940
 6429TIP3    H119251   5.906   6.050   0.954
 6429TIP3    H219252   6.049   6.092   0.976
 6430TIP3   OH219253   0.982   6.563   2.559
 6430TIP3    H119254   1.068   6.527   2.538
 6430TIP3    H219255   0.977   6.645   2.510
 6431TIP3   OH219256   4.519   0.707   0.163
 6431TIP3    H119257   4.608   0.677   0.180
 6431TIP3    H219258   4.530   0.784   0.107
 6432TIP3   OH219259   5.955   1.187   2.562
 6432TIP3    H119260   5.954   1.269   2.611
 6432TIP3    H219261   5.911   1.208   2.480
 6433TIP3   OH219262   1.738   1.393   0.124
 6433TIP3    H119263   1.710   1.302   0.127
 6433TIP3    H219264   1.713   1.429   0.209
 6434TIP3   OH219265   6.859   5.068   1.503
 6434TIP3    H119266   6.849   5.017   1.584
 6434TIP3    H219267   6.789   5.133   1.507
 6435TIP3   OH219268   3.900   0.586   0.755
 6435TIP3    H119269   3.951   0.651   0.803
 6435TIP3    H219270   3.810   0.599   0.785
 6436TIP3   OH219271   0.263   3.747   4.066
 6436TIP3    H119272   0.287   3.700   3.987
 6436TIP3    H219273   0.346   3.774   4.105
 6437TIP3   OH219274   5.494   2.219   2.228
 6437TIP3    H119275   5.455   2.161   2.293
 6437TIP3    H219276   5.448   2.198   2.147
 6438TIP3   OH219277   1.391   2.886   0.564
 6438TIP3    H119278   1.475   2.848   0.537
 6438TIP3    H219279   1.346   2.902   0.481
 6439TIP3   OH219280   6.938   2.524   1.521
 6439TIP3    H119281   7.020   2.474   1.516
 6439TIP3    H219282   6.937   2.576   1.440
 6440TIP3   OH219283   0.366   4.766   2.989
 6440TIP3    H119284   0.330   4.678   2.979
 6440TIP3    H219285   0.448   4.754   3.037
 6441TIP3   OH219286   0.216   3.570   4.680
 6441TIP3    H119287   0.291   3.580   4.738
 6441TIP3    H219288   0.150   3.629   4.716
 6442TIP3   OH219289   4.596   2.563   3.692
 6442TIP3    H119290   4.580   2.510   3.614
 6442TIP3    H219291   4.559   2.513   3.764
 6443TIP3   OH219292   5.982   5.501   1.737
 6443TIP3    H119293   5.944   5.515   1.824
 6443TIP3    H219294   5.999   5.407   1.732
 6444TIP3   OH219295   0.302   4.527   3.871
 6444TIP3    H119296   0.272   4.439   3.845
 6444TIP3    H219297   0.319   4.519   3.965
 6445TIP3   OH219298   4.736   0.235   3.869
 6445TIP3    H119299   4.663   0.228   3.807
 6445TIP3    H219300   4.708   0.183   3.945
 6446TIP3   OH219301   4.961   3.739   5.476
 6446TIP3    H119302   5.011   3.698   5.547
 6446TIP3    H219303   4.870   3.730   5.502
 6447TIP3   OH219304   4.001   4.094   2.290
 6447TIP3    H119305   4.033   4.017   2.337
 6447TIP3    H219306   4.075   4.154   2.288
 6448TIP3   OH219307   5.390   5.456   2.075
 6448TIP3    H119308   5.303   5.466   2.035
 6448TIP3    H219309   5.429   5.382   2.028
 6449TIP3   OH219310   6.725   0.172   4.020
 6449TIP3    H119311   6.723   0.184   3.925
 6449TIP3    H219312   6.760   0.084   4.033
 6450TIP3   OH219313   2.585   1.092   5.515
 6450TIP3    H119314   2.598   1.130   5.602
 6450TIP3    H219315   2.647   1.139   5.459
 6451TIP3   OH219316   4.858   6.113   0.848
 6451TIP3    H119317   4.799   6.047   0.884
 6451TIP3    H219318   4.877   6.171   0.922
 6452TIP3   OH219319   4.506   6.223   5.779
 6452TIP3    H119320   4.462   6.306   5.766
 6452TIP3    H219321   4.543   6.229   5.867
 6453TIP3   OH219322   6.948   5.884   2.646
 6453TIP3    H119323   6.890   5.947   2.604
 6453TIP3    H219324   7.004   5.852   2.575
 6454TIP3   OH219325   6.397   0.239   5.279
 6454TIP3    H119326   6.481   0.194   5.278
 6454TIP3    H219327   6.417   0.329   5.255
 6455TIP3   OH219328   0.173   2.592   5.173
 6455TIP3    H119329   0.163   2.679   5.135
 6455TIP3    H219330   0.162   2.605   5.267
 6456TIP3   OH219331   1.900   1.922   1.533
 6456TIP3    H119332   1.989   1.888   1.532
 6456TIP3    H219333   1.910   2.017   1.519
 6457TIP3   OH219334   5.896   6.383   1.486
 6457TIP3    H119335   5.846   6.446   1.435
 6457TIP3    H219336   5.978   6.372   1.437
 6458TIP3   OH219337   3.865   2.605   1.364
 6458TIP3    H119338   3.807   2.582   1.437
 6458TIP3    H219339   3.806   2.611   1.289
 6459TIP3   OH219340   7.155   6.210   3.472
 6459TIP3    H119341   7.116   6.288   3.433
 6459TIP3    H219342   7.179   6.155   3.397
 6460TIP3   OH219343   3.416   1.206   0.784
 6460TIP3    H119344   3.495   1.215   0.837
 6460TIP3    H219345   3.367   1.136   0.827
 6461TIP3   OH219346   5.870   2.688   1.073
 6461TIP3    H119347   5.848   2.778   1.048
 6461TIP3    H219348   5.929   2.658   1.003
 6462TIP3   OH219349   0.406   3.373   3.613
 6462TIP3    H119350   0.472   3.441   3.627
 6462TIP3    H219351   0.447   3.313   3.549
 6463TIP3   OH219352   1.075   3.290   1.252
 6463TIP3    H119353   1.010   3.277   1.183
 6463TIP3    H219354   1.153   3.321   1.206
 6464TIP3   OH219355   6.050   1.586   0.389
 6464TIP3    H119356   6.125   1.645   0.401
 6464TIP3    H219357   5.987   1.614   0.455
 6465TIP3   OH219358   1.812   3.233   2.510
 6465TIP3    H119359   1.844   3.165   2.570
 6465TIP3    H219360   1.731   3.197   2.474
 6466TIP3   OH219361   3.514   3.007   1.299
 6466TIP3    H119362   3.472   2.923   1.319
 6466TIP3    H219363   3.456   3.073   1.336
 6467TIP3   OH219364   6.630   1.023   5.448
 6467TIP3    H119365   6.699   1.087   5.431
 6467TIP3    H219366   6.572   1.030   5.372
 6468TIP3   OH219367   0.385   2.221   4.011
 6468TIP3    H119368   0.396   2.283   4.083
 6468TIP3    H219369   0.453   2.244   3.948
 6469TIP3   OH219370   2.897   5.899   2.136
 6469TIP3    H119371   2.900   5.946   2.052
 6469TIP3    H219372   2.962   5.944   2.190
 6470TIP3   OH219373   0.439   3.058   2.158
 6470TIP3    H119374   0.507   2.993   2.138
 6470TIP3    H219375   0.481   3.119   2.219
 6471TIP3   OH219376   1.255   1.353   5.291
 6471TIP3    H119377   1.216   1.266   5.280
 6471TIP3    H219378   1.205   1.393   5.362
 6472TIP3   OH219379   6.616   4.589   1.304
 6472TIP3    H119380   6.666   4.636   1.237
 6472TIP3    H219381   6.566   4.524   1.255
 6473TIP3   OH219382   6.070   3.772   0.730
 6473TIP3    H119383   6.021   3.693   0.753
 6473TIP3    H219384   6.004   3.841   0.731
 6474TIP3   OH219385   6.127   4.484   0.504
 6474TIP3    H119386   6.203   4.425   0.498
 6474TIP3    H219387   6.094   4.470   0.593
 6475TIP3   OH219388   4.466   3.978   3.173
 6475TIP3    H119389   4.460   3.992   3.267
 6475TIP3    H219390   4.390   3.922   3.152
 6476TIP3   OH219391   4.550   6.121   5.540
 6476TIP3    H119392   4.558   6.161   5.626
 6476TIP3    H219393   4.471   6.067   5.545
 6477TIP3   OH219394   6.798   3.620   0.160
 6477TIP3    H119395   6.712   3.625   0.203
 6477TIP3    H219396   6.842   3.701   0.186
 6478TIP3   OH219397   6.292   0.835   3.861
 6478TIP3    H119398   6.321   0.856   3.950
 6478TIP3    H219399   6.295   0.919   3.815
 6479TIP3   OH219400   5.340   3.263   4.492
 6479TIP3    H119401   5.244   3.260   4.488
 6479TIP3    H219402   5.368   3.212   4.416
 6480TIP3   OH219403   1.867   3.070   5.497
 6480TIP3    H119404   1.858   3.051   5.591
 6480TIP3    H219405   1.931   3.007   5.466
 6481TIP3   OH219406   1.084   2.685   3.648
 6481TIP3    H119407   1.167   2.734   3.645
 6481TIP3    H219408   1.043   2.703   3.563
 6482TIP3   OH219409   1.492   3.662   0.100
 6482TIP3    H119410   1.400   3.683   0.115
 6482TIP3    H219411   1.540   3.738   0.131
 6483TIP3   OH219412   7.203   1.351   3.614
 6483TIP3    H119413   7.261   1.293   3.565
 6483TIP3    H219414   7.163   1.295   3.680
 6484TIP3   OH219415   3.376   5.510   5.675
 6484TIP3    H119416   3.329   5.592   5.681
 6484TIP3    H219417   3.399   5.488   5.766
 6485TIP3   OH219418   4.265   4.475   0.846
 6485TIP3    H119419   4.234   4.532   0.776
 6485TIP3    H219420   4.221   4.391   0.830
 6486TIP3   OH219421   0.572   4.553   2.858
 6486TIP3    H119422   0.581   4.613   2.932
 6486TIP3    H219423   0.627   4.592   2.789
 6487TIP3   OH219424   1.240   0.829   5.899
 6487TIP3    H119425   1.175   0.763   5.879
 6487TIP3    H219426   1.192   0.912   5.896
 6488TIP3   OH219427   0.346   0.988   0.102
 6488TIP3    H119428   0.349   0.975   0.197
 6488TIP3    H219429   0.352   1.083   0.091
 6489TIP3   OH219430   1.603   6.418   0.188
 6489TIP3    H119431   1.672   6.382   0.244
 6489TIP3    H219432   1.627   6.392   0.100
 6490TIP3   OH219433   7.037   4.930   0.617
 6490TIP3    H119434   7.064   5.018   0.589
 6490TIP3    H219435   6.946   4.922   0.587
 6491TIP3   OH219436   2.109   1.560   4.186
 6491TIP3    H119437   2.159   1.627   4.140
 6491TIP3    H219438   2.144   1.477   4.154
 6492TIP3   OH219439   4.265   3.239   5.674
 6492TIP3    H119440   4.265   3.144   5.678
 6492TIP3    H219441   4.172   3.263   5.676
 6493TIP3   OH219442   0.572   3.958   1.486
 6493TIP3    H119443   0.661   3.951   1.519
 6493TIP3    H219444   0.583   3.966   1.391
 6494TIP3   OH219445   5.342   5.491   3.842
 6494TIP3    H119446   5.308   5.553   3.777
 6494TIP3    H219447   5.422   5.456   3.802
 6495TIP3   OH219448   2.366   6.055   0.168
 6495TIP3    H119449   2.409   5.990   0.113
 6495TIP3    H219450   2.311   6.105   0.107
 6496TIP3   OH219451   0.133   5.341   4.471
 6496TIP3    H119452   0.219   5.305   4.448
 6496TIP3    H219453   0.072   5.268   4.458
 6497TIP3   OH219454   5.536   0.976   5.433
 6497TIP3    H119455   5.452   1.003   5.470
 6497TIP3    H219456   5.516   0.898   5.382
 6498TIP3   OH219457   1.359   4.264   2.389
 6498TIP3    H119458   1.417   4.189   2.379
 6498TIP3    H219459   1.367   4.312   2.307
 6499TIP3   OH219460   2.730   5.055   4.895
 6499TIP3    H119461   2.770   4.968   4.894
 6499TIP3    H219462   2.636   5.039   4.901
 6500TIP3   OH219463   1.665   3.202   5.373
 6500TIP3    H119464   1.615   3.185   5.452
 6500TIP3    H219465   1.757   3.195   5.401
 6501TIP3   OH219466   3.574   3.825   1.966
 6501TIP3    H119467   3.507   3.883   2.003
 6501TIP3    H219468   3.526   3.766   1.908
 6502TIP3   OH219469   1.870   0.212   5.229
 6502TIP3    H119470   1.861   0.150   5.301
 6502TIP3    H219471   1.934   0.172   5.170
 6503TIP3   OH219472   6.297   3.773   0.568
 6503TIP3    H119473   6.328   3.687   0.598
 6503TIP3    H219474   6.210   3.781   0.605
 6504TIP3   OH219475   3.106   1.972   1.212
 6504TIP3    H119476   3.157   1.898   1.180
 6504TIP3    H219477   3.154   2.003   1.289
 6505TIP3   OH219478   6.735   6.135   4.827
 6505TIP3    H119479   6.813   6.188   4.843
 6505TIP3    H219480   6.694   6.125   4.913
 6506TIP3   OH219481   2.175   1.565   2.988
 6506TIP3    H119482   2.184   1.657   3.012
 6506TIP3    H219483   2.255   1.544   2.940
 6507TIP3   OH219484   5.359   4.933   1.380
 6507TIP3    H119485   5.346   4.955   1.472
 6507TIP3    H219486   5.435   4.875   1.380
 6508TIP3   OH219487   4.537   2.144   2.556
 6508TIP3    H119488   4.599   2.073   2.539
 6508TIP3    H219489   4.519   2.139   2.649
 6509TIP3   OH219490   4.633   3.241   2.580
 6509TIP3    H119491   4.629   3.238   2.676
 6509TIP3    H219492   4.584   3.165   2.551
 6510TIP3   OH219493   1.602   0.591   2.829
 6510TIP3    H119494   1.629   0.566   2.740
 6510TIP3    H219495   1.616   0.686   2.832
 6511TIP3   OH219496   2.655   0.378   0.760
 6511TIP3    H119497   2.744   0.380   0.725
 6511TIP3    H219498   2.613   0.304   0.716
 6512TIP3   OH219499   1.703   1.708   1.793
 6512TIP3    H119500   1.623   1.659   1.813
 6512TIP3    H219501   1.672   1.790   1.754
 6513TIP3   OH219502   3.497   2.321   4.387
 6513TIP3    H119503   3.538   2.352   4.467
 6513TIP3    H219504   3.494   2.397   4.330
 6514TIP3   OH219505   6.304   6.690   2.362
 6514TIP3    H119506   6.274   6.699   2.271
 6514TIP3    H219507   6.253   6.756   2.410
 6515TIP3   OH219508   0.343   5.850   1.284
 6515TIP3    H119509   0.310   5.925   1.334
 6515TIP3    H219510   0.295   5.854   1.201
 6516TIP3   OH219511   6.938   4.500   3.478
 6516TIP3    H119512   6.935   4.587   3.519
 6516TIP3    H219513   6.930   4.439   3.551
 6517TIP3   OH219514   0.495   0.204   3.627
 6517TIP3    H119515   0.572   0.174   3.675
 6517TIP3    H219516   0.527   0.278   3.575
 6518TIP3   OH219517   3.027   5.994   1.205
 6518TIP3    H119518   3.070   6.016   1.288
 6518TIP3    H219519   2.937   6.026   1.216
 6519TIP3   OH219520   0.353   3.201   1.734
 6519TIP3    H119521   0.324   3.284   1.697
 6519TIP3    H219522   0.273   3.149   1.740
 6520TIP3   OH219523   2.079   1.672   4.813
 6520TIP3    H119524   2.125   1.736   4.867
 6520TIP3    H219525   2.147   1.612   4.784
 6521TIP3   OH219526   1.492   1.553   0.054
 6521TIP3    H119527   1.519   1.485   0.116
 6521TIP3    H219528   1.566   1.614   0.052
 6522TIP3   OH219529   5.675   2.993   0.457
 6522TIP3    H119530   5.752   3.033   0.418
 6522TIP3    H219531   5.629   2.953   0.383
 6523TIP3   OH219532   2.794   4.031   2.174
 6523TIP3    H119533   2.874   4.034   2.120
 6523TIP3    H219534   2.725   4.060   2.115
 6524TIP3   OH219535   3.961   1.322   5.180
 6524TIP3    H119536   3.964   1.291   5.270
 6524TIP3    H219537   3.906   1.259   5.134
 6525TIP3   OH219538   7.116   4.705   1.374
 6525TIP3    H119539   7.030   4.673   1.401
 6525TIP3    H219540   7.123   4.792   1.413
 6526TIP3   OH219541   1.335   6.382   1.432
 6526TIP3    H119542   1.424   6.385   1.466
 6526TIP3    H219543   1.317   6.289   1.420
 6527TIP3   OH219544   2.899   1.947   0.527
 6527TIP3    H119545   2.971   2.009   0.538
 6527TIP3    H219546   2.854   1.976   0.448
 6528TIP3   OH219547   0.426   6.230   1.422
 6528TIP3    H119548   0.396   6.306   1.472
 6528TIP3    H219549   0.371   6.229   1.344
 6529TIP3   OH219550   2.107   1.455   5.744
 6529TIP3    H119551   2.025   1.419   5.777
 6529TIP3    H219552   2.175   1.401   5.783
 6530TIP3   OH219553   1.986   2.517   4.895
 6530TIP3    H119554   2.024   2.487   4.978
 6530TIP3    H219555   2.040   2.476   4.828
 6531TIP3   OH219556   7.006   6.141   0.746
 6531TIP3    H119557   6.963   6.058   0.730
 6531TIP3    H219558   6.936   6.200   0.774
 6532TIP3   OH219559   6.206   1.038   3.071
 6532TIP3    H119560   6.163   1.116   3.106
 6532TIP3    H219561   6.222   1.058   2.979
 6533TIP3   OH219562   6.064   3.127   0.084
 6533TIP3    H119563   6.058   3.218   0.115
 6533TIP3    H219564   6.146   3.124   0.035
 6534TIP3   OH219565   3.652   1.424   5.704
 6534TIP3    H119566   3.589   1.440   5.774
 6534TIP3    H219567   3.734   1.403   5.750
 6535TIP3   OH219568   5.292   2.774   3.572
 6535TIP3    H119569   5.223   2.733   3.624
 6535TIP3    H219570   5.340   2.828   3.635
 6536TIP3   OH219571   2.560   2.781   1.777
 6536TIP3    H119572   2.509   2.731   1.714
 6536TIP3    H219573   2.608   2.714   1.827
 6537TIP3   OH219574   1.925   3.598   4.378
 6537TIP3    H119575   1.869   3.619   4.303
 6537TIP3    H219576   2.012   3.628   4.352
 6538TIP3   OH219577   5.894   0.538   4.694
 6538TIP3    H119578   5.838   0.469   4.659
 6538TIP3    H219579   5.847   0.619   4.675
 6539TIP3   OH219580   4.768   5.874   0.112
 6539TIP3    H119581   4.726   5.800   0.154
 6539TIP3    H219582   4.783   5.846   0.022
 6540TIP3   OH219583   4.694   3.825   0.644
 6540TIP3    H119584   4.747   3.784   0.575
 6540TIP3    H219585   4.711   3.919   0.634
 6541TIP3   OH219586   1.257   3.287   5.106
 6541TIP3    H119587   1.191   3.331   5.053
 6541TIP3    H219588   1.340   3.317   5.069
 6542TIP3   OH219589   4.980   2.331   5.361
 6542TIP3    H119590   5.036   2.387   5.306
 6542TIP3    H219591   4.893   2.341   5.322
 6543TIP3   OH219592   5.576   6.057   3.428
 6543TIP3    H119593   5.641   6.003   3.473
 6543TIP3    H219594   5.606   6.146   3.441
 6544TIP3   OH219595   3.002   4.338   4.186
 6544TIP3    H119596   3.049   4.300   4.260
 6544TIP3    H219597   3.039   4.425   4.175
 6545TIP3   OH219598   4.706   3.410   0.726
 6545TIP3    H119599   4.713   3.355   0.804
 6545TIP3    H219600   4.784   3.466   0.729
 6546TIP3   OH219601   3.516   1.082   4.024
 6546TIP3    H119602   3.505   1.170   4.061
 6546TIP3    H219603   3.496   1.022   4.096
 6547TIP3   OH219604   6.746   3.178   3.551
 6547TIP3    H119605   6.790   3.094   3.560
 6547TIP3    H219606   6.801   3.239   3.602
 6548TIP3   OH219607   6.036   3.469   0.797
 6548TIP3    H119608   5.949   3.453   0.834
 6548TIP3    H219609   6.084   3.389   0.816
 6549TIP3   OH219610   5.117   5.688   4.002
 6549TIP3    H119611   5.160   5.617   4.050
 6549TIP3    H219612   5.033   5.652   3.975
 6550TIP3   OH219613   3.871   6.241   4.883
 6550TIP3    H119614   3.964   6.241   4.906
 6550TIP3    H219615   3.868   6.211   4.792
 6551TIP3   OH219616   5.618   0.495   5.020
 6551TIP3    H119617   5.586   0.406   5.010
 6551TIP3    H219618   5.554   0.549   4.973
 6552TIP3   OH219619   3.173   5.763   2.764
 6552TIP3    H119620   3.205   5.794   2.679
 6552TIP3    H219621   3.168   5.842   2.818
 6553TIP3   OH219622   1.395   0.124   4.861
 6553TIP3    H119623   1.482   0.121   4.901
 6553TIP3    H219624   1.405   0.077   4.779
 6554TIP3   OH219625   5.055   2.514   1.895
 6554TIP3    H119626   5.101   2.447   1.945
 6554TIP3    H219627   5.108   2.593   1.907
 6555TIP3   OH219628   0.338   2.917   2.464
 6555TIP3    H119629   0.423   2.886   2.432
 6555TIP3    H219630   0.351   3.010   2.483
 6556TIP3   OH219631   1.304   4.748   3.877
 6556TIP3    H119632   1.320   4.806   3.951
 6556TIP3    H219633   1.260   4.803   3.812
 6557TIP3   OH219634   7.022   0.927   0.256
 6557TIP3    H119635   7.032   0.988   0.329
 6557TIP3    H219636   6.927   0.924   0.240
 6558TIP3   OH219637   6.133   4.980   4.710
 6558TIP3    H119638   6.168   4.962   4.622
 6558TIP3    H219639   6.051   5.025   4.693
 6559TIP3   OH219640   6.947   3.293   5.654
 6559TIP3    H119641   6.988   3.276   5.739
 6559TIP3    H219642   6.868   3.343   5.675
 6560TIP3   OH219643   0.000   2.432   0.196
 6560TIP3    H119644   0.061   2.428   0.122
 6560TIP3    H219645  -0.024   2.524   0.202
 6561TIP3   OH219646   0.186   4.785   3.569
 6561TIP3    H119647   0.213   4.833   3.491
 6561TIP3    H219648   0.222   4.697   3.558
 6562TIP3   OH219649   5.135   3.584   5.136
 6562TIP3    H119650   5.150   3.525   5.210
 6562TIP3    H219651   5.087   3.658   5.173
 6563TIP3   OH219652   3.558   4.798   2.488
 6563TIP3    H119653   3.469   4.774   2.459
 6563TIP3    H219654   3.580   4.731   2.553
 6564TIP3   OH219655   5.114   3.460   5.374
 6564TIP3    H119656   5.124   3.374   5.415
 6564TIP3    H219657   5.023   3.484   5.391
 6565TIP3   OH219658   3.994   2.691   0.873
 6565TIP3    H119659   4.071   2.634   0.881
 6565TIP3    H219660   4.013   2.764   0.931
 6566TIP3   OH219661   3.119   5.500   3.994
 6566TIP3    H119662   3.134   5.412   3.959
 6566TIP3    H219663   3.151   5.496   4.084
 6567TIP3   OH219664   0.752   5.293   3.515
 6567TIP3    H119665   0.752   5.305   3.610
 6567TIP3    H219666   0.829   5.239   3.498
 6568TIP3   OH219667   2.558   5.688   2.532
 6568TIP3    H119668   2.526   5.607   2.573
 6568TIP3    H219669   2.602   5.735   2.604
 6569TIP3   OH219670   4.969   5.807   1.591
 6569TIP3    H119671   4.979   5.786   1.684
 6569TIP3    H219672   5.036   5.756   1.546
 6570TIP3   OH219673   2.291   1.044   0.118
 6570TIP3    H119674   2.377   1.081   0.097
 6570TIP3    H219675   2.229   1.103   0.077
 6571TIP3   OH219676   2.131   3.007   3.787
 6571TIP3    H119677   2.073   2.932   3.772
 6571TIP3    H219678   2.188   3.008   3.709
 6572TIP3   OH219679   3.683   3.744   4.500
 6572TIP3    H119680   3.665   3.770   4.590
 6572TIP3    H219681   3.680   3.827   4.451
 6573TIP3   OH219682   4.928   3.342   1.516
 6573TIP3    H119683   4.995   3.410   1.523
 6573TIP3    H219684   4.850   3.380   1.556
 6574TIP3   OH219685   6.604   3.201   0.329
 6574TIP3    H119686   6.509   3.186   0.327
 6574TIP3    H219687   6.615   3.272   0.393
 6575TIP3   OH219688   5.336   1.520   0.415
 6575TIP3    H119689   5.345   1.510   0.510
 6575TIP3    H219690   5.305   1.434   0.385
 6576TIP3   OH219691   5.641   1.777   5.250
 6576TIP3    H119692   5.626   1.712   5.319
 6576TIP3    H219693   5.671   1.725   5.175
 6577TIP3   OH219694   2.468   3.818   0.499
 6577TIP3    H119695   2.382   3.779   0.485
 6577TIP3    H219696   2.528   3.761   0.451
 6578TIP3   OH219697   5.049   1.386   2.773
 6578TIP3    H119698   5.056   1.309   2.829
 6578TIP3    H219699   4.955   1.398   2.760
 6579TIP3   OH219700   7.136   0.682   0.939
 6579TIP3    H119701   7.135   0.591   0.911
 6579TIP3    H219702   7.204   0.723   0.885
 6580TIP3   OH219703   2.547   0.267   1.792
 6580TIP3    H119704   2.454   0.244   1.796
 6580TIP3    H219705   2.560   0.302   1.704
 6581TIP3   OH219706   5.872   5.879   2.501
 6581TIP3    H119707   5.799   5.941   2.502
 6581TIP3    H219708   5.864   5.832   2.584
 6582TIP3   OH219709   1.419   6.351   1.139
 6582TIP3    H119710   1.362   6.317   1.209
 6582TIP3    H219711   1.435   6.442   1.164
 6583TIP3   OH219712   2.781   3.997   3.430
 6583TIP3    H119713   2.813   4.074   3.384
 6583TIP3    H219714   2.746   4.031   3.513
 6584TIP3   OH219715   3.540   6.651   4.936
 6584TIP3    H119716   3.606   6.621   4.873
 6584TIP3    H219717   3.544   6.586   5.007
 6585TIP3   OH219718   4.867   6.496   3.707
 6585TIP3    H119719   4.914   6.503   3.623
 6585TIP3    H219720   4.913   6.557   3.765
 6586TIP3   OH219721   6.335   1.074   3.401
 6586TIP3    H119722   6.345   1.063   3.496
 6586TIP3    H219723   6.311   0.986   3.370
 6587TIP3   OH219724   1.334   4.218   1.754
 6587TIP3    H119725   1.346   4.239   1.846
 6587TIP3    H219726   1.319   4.124   1.752
 6588TIP3   OH219727   2.136   4.943   1.571
 6588TIP3    H119728   2.106   4.912   1.486
 6588TIP3    H219729   2.230   4.956   1.560
 6589TIP3   OH219730   7.013   3.781   3.622
 6589TIP3    H119731   6.930   3.828   3.611
 6589TIP3    H219732   7.005   3.704   3.565
 6590TIP3   OH219733   6.096   2.884   4.501
 6590TIP3    H119734   6.078   2.794   4.528
 6590TIP3    H219735   6.015   2.932   4.521
 6591TIP3   OH219736   2.997   0.294   3.777
 6591TIP3    H119737   2.962   0.333   3.697
 6591TIP3    H219738   3.014   0.369   3.834
 6592TIP3   OH219739   3.524   0.967   2.946
 6592TIP3    H119740   3.560   0.957   2.858
 6592TIP3    H219741   3.538   0.882   2.988
 6593TIP3   OH219742   5.833   6.133   1.219
 6593TIP3    H119743   5.914   6.184   1.216
 6593TIP3    H219744   5.763   6.199   1.221
 6594TIP3   OH219745   6.810   1.128   2.943
 6594TIP3    H119746   6.755   1.184   2.997
 6594TIP3    H219747   6.816   1.046   2.992
 6595TIP3   OH219748   4.163   5.255   1.044
 6595TIP3    H119749   4.074   5.286   1.029
 6595TIP3    H219750   4.217   5.334   1.045
 6596TIP3   OH219751   0.596   2.792   0.396
 6596TIP3    H119752   0.588   2.713   0.343
 6596TIP3    H219753   0.662   2.770   0.462
 6597TIP3   OH219754   4.537   5.907   3.030
 6597TIP3    H119755   4.598   5.875   2.964
 6597TIP3    H219756   4.571   5.873   3.113
 6598TIP3   OH219757   6.356   2.070   2.912
 6598TIP3    H119758   6.442   2.034   2.936
 6598TIP3    H219759   6.367   2.165   2.922
 6599TIP3   OH219760   0.242   6.794   0.002
 6599TIP3    H119761   0.274   6.774   0.090
 6599TIP3    H219762   0.219   6.709  -0.035
 6600TIP3   OH219763   6.246   4.434   1.023
 6600TIP3    H119764   6.336   4.417   1.050
 6600TIP3    H219765   6.202   4.462   1.103
 6601TIP3   OH219766  -0.016   0.830   1.915
 6601TIP3    H119767  -0.020   0.866   1.826
 6601TIP3    H219768   0.065   0.865   1.951
 6602TIP3   OH219769   0.451   6.696   3.329
 6602TIP3    H119770   0.532   6.745   3.342
 6602TIP3    H219771   0.381   6.760   3.341
 6603TIP3   OH219772   0.787   0.467   0.663
 6603TIP3    H119773   0.757   0.426   0.581
 6603TIP3    H219774   0.881   0.453   0.664
 6604TIP3   OH219775   2.594   4.390   5.186
 6604TIP3    H119776   2.618   4.354   5.101
 6604TIP3    H219777   2.678   4.412   5.227
 6605TIP3   OH219778   2.889   1.361   0.880
 6605TIP3    H119779   2.957   1.310   0.836
 6605TIP3    H219780   2.818   1.368   0.815
 6606TIP3   OH219781   5.313   2.365   5.039
 6606TIP3    H119782   5.321   2.366   5.135
 6606TIP3    H219783   5.394   2.404   5.007
 6607TIP3   OH219784   1.121   5.690   2.410
 6607TIP3    H119785   1.083   5.609   2.444
 6607TIP3    H219786   1.046   5.746   2.391
 6608TIP3   OH219787   2.754   2.975   1.700
 6608TIP3    H119788   2.812   2.989   1.775
 6608TIP3    H219789   2.672   2.943   1.739
 6609TIP3   OH219790   1.350   0.618   2.335
 6609TIP3    H119791   1.260   0.641   2.312
 6609TIP3    H219792   1.382   0.569   2.259
 6610TIP3   OH219793   4.370   4.268   3.114
 6610TIP3    H119794   4.340   4.177   3.117
 6610TIP3    H219795   4.425   4.273   3.037
 6611TIP3   OH219796   4.453   3.308   5.129
 6611TIP3    H119797   4.483   3.254   5.202
 6611TIP3    H219798   4.506   3.281   5.055
 6612TIP3   OH219799   4.454   1.888   3.074
 6612TIP3    H119800   4.394   1.921   3.141
 6612TIP3    H219801   4.399   1.867   2.999
 6613TIP3   OH219802   0.453   6.010   5.305
 6613TIP3    H119803   0.434   5.922   5.272
 6613TIP3    H219804   0.367   6.046   5.327
 6614TIP3   OH219805   0.761   0.096   1.975
 6614TIP3    H119806   0.704   0.136   2.041
 6614TIP3    H219807   0.704   0.083   1.899
 6615TIP3   OH219808   4.170   4.076   5.598
 6615TIP3    H119809   4.225   4.009   5.556
 6615TIP3    H219810   4.099   4.089   5.536
 6616TIP3   OH219811   5.922   5.684   4.228
 6616TIP3    H119812   5.999   5.706   4.176
 6616TIP3    H219813   5.871   5.765   4.232
 6617TIP3   OH219814   7.095   3.435   1.971
 6617TIP3    H119815   7.034   3.361   1.967
 6617TIP3    H219816   7.057   3.501   1.912
 6618TIP3   OH219817   5.052   3.177   4.127
 6618TIP3    H119818   5.079   3.269   4.131
 6618TIP3    H219819   4.957   3.180   4.116
 6619TIP3   OH219820   6.748   1.324   1.786
 6619TIP3    H119821   6.659   1.358   1.787
 6619TIP3    H219822   6.737   1.229   1.786
 6620TIP3   OH219823   4.245   1.794   2.932
 6620TIP3    H119824   4.258   1.699   2.929
 6620TIP3    H219825   4.193   1.808   3.012
 6621TIP3   OH219826   4.028   3.878   2.864
 6621TIP3    H119827   4.023   3.855   2.957
 6621TIP3    H219828   3.951   3.838   2.825
 6622TIP3   OH219829   4.223   6.507   4.119
 6622TIP3    H119830   4.256   6.439   4.060
 6622TIP3    H219831   4.223   6.466   4.205
 6623TIP3   OH219832   0.132   2.924   0.918
 6623TIP3    H119833   0.064   2.875   0.871
 6623TIP3    H219834   0.206   2.864   0.922
 6624TIP3   OH219835   6.508   3.392   1.043
 6624TIP3    H119836   6.434   3.418   1.098
 6624TIP3    H219837   6.484   3.305   1.011
 6625TIP3   OH219838   1.510   1.090   2.186
 6625TIP3    H119839   1.520   1.102   2.280
 6625TIP3    H219840   1.443   1.022   2.177
 6626TIP3   OH219841   3.670   3.712   5.617
 6626TIP3    H119842   3.591   3.675   5.577
 6626TIP3    H219843   3.722   3.744   5.544
 6627TIP3   OH219844   4.004   2.416   0.697
 6627TIP3    H119845   3.917   2.455   0.686
 6627TIP3    H219846   4.063   2.483   0.662
 6628TIP3   OH219847   2.913   3.783   1.660
 6628TIP3    H119848   2.985   3.803   1.720
 6628TIP3    H219849   2.855   3.727   1.712
 6629TIP3   OH219850   3.520   6.061   5.770
 6629TIP3    H119851   3.545   6.119   5.698
 6629TIP3    H219852   3.495   5.979   5.728
 6630TIP3   OH219853   5.741   2.850   4.821
 6630TIP3    H119854   5.766   2.846   4.913
 6630TIP3    H219855   5.660   2.902   4.820
 6631TIP3   OH219856   5.433   0.017   3.776
 6631TIP3    H119857   5.484   0.089   3.815
 6631TIP3    H219858   5.342   0.041   3.791
 6632TIP3   OH219859   1.982   5.149   1.788
 6632TIP3    H119860   1.938   5.223   1.747
 6632TIP3    H219861   1.990   5.173   1.880
 6633TIP3   OH219862   0.406   3.418   0.122
 6633TIP3    H119863   0.402   3.380   0.034
 6633TIP3    H219864   0.431   3.345   0.179
 6634TIP3   OH219865   1.531   4.158   1.545
 6634TIP3    H119866   1.500   4.069   1.562
 6634TIP3    H219867   1.488   4.212   1.611
 6635TIP3   OH219868   4.375   4.848   1.306
 6635TIP3    H119869   4.317   4.919   1.279
 6635TIP3    H219870   4.364   4.842   1.401
 6636TIP3   OH219871   2.656   1.499   5.673
 6636TIP3    H119872   2.707   1.577   5.651
 6636TIP3    H219873   2.647   1.452   5.590
 6637TIP3   OH219874   4.291   0.247   2.559
 6637TIP3    H119875   4.249   0.243   2.474
 6637TIP3    H219876   4.312   0.340   2.571
 6638TIP3   OH219877   0.972   4.673   2.823
 6638TIP3    H119878   0.883   4.705   2.839
 6638TIP3    H219879   1.022   4.752   2.803
 6639TIP3   OH219880   6.541   3.354   2.964
 6639TIP3    H119881   6.512   3.432   2.917
 6639TIP3    H219882   6.462   3.320   3.006
 6640TIP3   OH219883   4.897   3.431   3.858
 6640TIP3    H119884   4.824   3.369   3.857
 6640TIP3    H219885   4.957   3.400   3.791
 6641TIP3   OH219886   1.631   6.673   0.088
 6641TIP3    H119887   1.611   6.589   0.130
 6641TIP3    H219888   1.573   6.736   0.130
 6642TIP3   OH219889   6.772   3.214   4.813
 6642TIP3    H119890   6.844   3.191   4.872
 6642TIP3    H219891   6.697   3.165   4.847
 6643TIP3   OH219892   1.177   4.102   1.136
 6643TIP3    H119893   1.169   4.113   1.231
 6643TIP3    H219894   1.155   4.188   1.100
 6644TIP3   OH219895   2.744   3.649   1.451
 6644TIP3    H119896   2.733   3.629   1.358
 6644TIP3    H219897   2.785   3.570   1.488
 6645TIP3   OH219898   5.972   0.754   0.067
 6645TIP3    H119899   6.010   0.820   0.125
 6645TIP3    H219900   6.044   0.692   0.053
 6646TIP3   OH219901   1.424   0.552   4.635
 6646TIP3    H119902   1.516   0.533   4.655
 6646TIP3    H219903   1.426   0.638   4.593
 6647TIP3   OH219904   2.552   4.048   0.378
 6647TIP3    H119905   2.623   3.996   0.341
 6647TIP3    H219906   2.514   3.992   0.445
 6648TIP3   OH219907   5.528   0.690   0.848
 6648TIP3    H119908   5.520   0.785   0.849
 6648TIP3    H219909   5.609   0.673   0.800
 6649TIP3   OH219910   2.924   5.180   2.054
 6649TIP3    H119911   2.985   5.142   1.992
 6649TIP3    H219912   2.890   5.105   2.103
 6650TIP3   OH219913   4.621   3.919   2.063
 6650TIP3    H119914   4.619   4.013   2.046
 6650TIP3    H219915   4.605   3.911   2.157
 6651TIP3   OH219916   0.145   2.836   2.235
 6651TIP3    H119917   0.170   2.912   2.183
 6651TIP3    H219918   0.175   2.856   2.323
 6652TIP3   OH219919   4.783   2.490   2.250
 6652TIP3    H119920   4.854   2.431   2.225
 6652TIP3    H219921   4.716   2.432   2.286
 6653TIP3   OH219922   0.537   1.420   3.433
 6653TIP3    H119923   0.464   1.398   3.490
 6653TIP3    H219924   0.497   1.458   3.355
 6654TIP3   OH219925   2.942   1.578   3.915
 6654TIP3    H119926   3.032   1.593   3.887
 6654TIP3    H219927   2.921   1.654   3.970
 6655TIP3   OH219928   3.010   1.332   3.986
 6655TIP3    H119929   2.981   1.422   3.973
 6655TIP3    H219930   3.100   1.340   4.018
 6656TIP3   OH219931   2.700   1.259   4.862
 6656TIP3    H119932   2.776   1.297   4.818
 6656TIP3    H219933   2.642   1.233   4.790
 6657TIP3   OH219934   0.770   3.555   3.904
 6657TIP3    H119935   0.714   3.633   3.903
 6657TIP3    H219936   0.753   3.514   3.989
 6658TIP3   OH219937   3.206   4.811   1.063
 6658TIP3    H119938   3.120   4.814   1.022
 6658TIP3    H219939   3.189   4.826   1.156
 6659TIP3   OH219940   3.712   0.866   0.749
 6659TIP3    H119941   3.665   0.805   0.806
 6659TIP3    H219942   3.802   0.864   0.781
 6660TIP3   OH219943   4.425   6.027   1.339
 6660TIP3    H119944   4.379   5.994   1.262
 6660TIP3    H219945   4.454   5.948   1.385
 6661TIP3   OH219946   0.737   2.689   3.291
 6661TIP3    H119947   0.687   2.680   3.372
 6661TIP3    H219948   0.699   2.624   3.232
 6662TIP3   OH219949   5.669   6.361   4.672
 6662TIP3    H119950   5.662   6.411   4.753
 6662TIP3    H219951   5.579   6.356   4.639
 6663TIP3   OH219952   4.922   4.722   2.527
 6663TIP3    H119953   4.982   4.723   2.454
 6663TIP3    H219954   4.949   4.795   2.582
 6664TIP3   OH219955   6.942   0.646   0.703
 6664TIP3    H119956   7.006   0.652   0.632
 6664TIP3    H219957   6.994   0.656   0.783
 6665TIP3   OH219958   0.684   6.055   1.521
 6665TIP3    H119959   0.624   6.130   1.513
 6665TIP3    H219960   0.704   6.030   1.431
 6666TIP3   OH219961   1.791   2.065   2.921
 6666TIP3    H119962   1.819   1.983   2.879
 6666TIP3    H219963   1.818   2.134   2.859
 6667TIP3   OH219964   0.519   0.037   5.363
 6667TIP3    H119965   0.491   0.128   5.377
 6667TIP3    H219966   0.547   0.008   5.449
 6668TIP3   OH219967   0.757   4.289   2.854
 6668TIP3    H119968   0.663   4.297   2.836
 6668TIP3    H219969   0.762   4.250   2.941
 6669TIP3   OH219970   2.674   3.253   0.320
 6669TIP3    H119971   2.733   3.242   0.245
 6669TIP3    H219972   2.595   3.205   0.296
 6670TIP3   OH219973   6.965   4.561   1.578
 6670TIP3    H119974   7.046   4.596   1.616
 6670TIP3    H219975   6.995   4.503   1.508
 6671TIP3   OH219976   6.887   2.681   1.293
 6671TIP3    H119977   6.821   2.749   1.311
 6671TIP3    H219978   6.958   2.729   1.251
 6672TIP3   OH219979   6.030   1.401   3.967
 6672TIP3    H119980   6.081   1.339   4.020
 6672TIP3    H219981   6.011   1.353   3.887
 6673TIP3   OH219982   1.678   4.176   0.743
 6673TIP3    H119983   1.622   4.241   0.786
 6673TIP3    H219984   1.648   4.092   0.778
 6674TIP3   OH219985   5.424   1.827   3.013
 6674TIP3    H119986   5.476   1.757   3.053
 6674TIP3    H219987   5.489   1.885   2.973
 6675TIP3   OH219988   1.059   1.408   3.906
 6675TIP3    H119989   1.013   1.473   3.958
 6675TIP3    H219990   1.145   1.446   3.891
 6676TIP3   OH219991   5.326   4.987   5.613
 6676TIP3    H119992   5.294   5.044   5.682
 6676TIP3    H219993   5.256   4.986   5.548
 6677TIP3   OH219994   1.733   6.322   4.971
 6677TIP3    H119995   1.645   6.341   5.006
 6677TIP3    H219996   1.725   6.338   4.877
 6678TIP3   OH219997   3.113   0.850   1.144
 6678TIP3    H119998   3.026   0.870   1.179
 6678TIP3    H219999   3.173   0.879   1.212
 6679TIP3   OH220000   0.615   3.737   1.780
 6679TIP3    H120001   0.649   3.804   1.721
 6679TIP3    H220002   0.529   3.770   1.806
 6680TIP3   OH220003   5.934   1.283   3.736
 6680TIP3    H120004   5.895   1.309   3.653
 6680TIP3    H220005   5.889   1.202   3.760
 6681TIP3   OH220006   0.683   5.332   2.621
 6681TIP3    H120007   0.776   5.311   2.629
 6681TIP3    H220008   0.640   5.277   2.686
 6682TIP3   OH220009   3.071   5.325   4.464
 6682TIP3    H120010   3.002   5.295   4.524
 6682TIP3    H220011   3.030   5.321   4.377
 6683TIP3   OH220012   5.937   5.348   5.081
 6683TIP3    H120013   5.903   5.415   5.022
 6683TIP3    H220014   5.897   5.367   5.166
 6684TIP3   OH220015   0.490   2.543   4.198
 6684TIP3    H120016   0.494   2.550   4.103
 6684TIP3    H220017   0.474   2.632   4.229
 6685TIP3   OH220018   3.416   2.747   2.424
 6685TIP3    H120019   3.427   2.700   2.506
 6685TIP3    H220020   3.335   2.712   2.387
 6686TIP3   OH220021   5.675   4.814   1.198
 6686TIP3    H120022   5.646   4.780   1.283
 6686TIP3    H220023   5.675   4.909   1.209
 6687TIP3   OH220024   6.727   1.543   1.997
 6687TIP3    H120025   6.674   1.487   1.941
 6687TIP3    H220026   6.669   1.617   2.017
 6688TIP3   OH220027   1.088   3.856   2.156
 6688TIP3    H120028   1.094   3.877   2.249
 6688TIP3    H220029   1.086   3.942   2.113
 6689TIP3   OH220030   5.899   2.003   0.571
 6689TIP3    H120031   5.977   1.964   0.530
 6689TIP3    H220032   5.924   2.018   0.662
 6690TIP3   OH220033   5.362   4.344   5.621
 6690TIP3    H120034   5.319   4.258   5.620
 6690TIP3    H220035   5.310   4.396   5.681
 6691TIP3   OH220036   1.675   1.105   3.314
 6691TIP3    H120037   1.618   1.038   3.352
 6691TIP3    H220038   1.658   1.183   3.367
 6692TIP3   OH220039   0.021   5.244   1.483
 6692TIP3    H120040   0.045   5.179   1.416
 6692TIP3    H220041   0.050   5.328   1.447
 6693TIP3   OH220042   0.115   0.867   1.555
 6693TIP3    H120043   0.022   0.889   1.549
 6693TIP3    H220044   0.120   0.776   1.525
 6694TIP3   OH220045   2.081   2.265   4.313
 6694TIP3    H120046   1.999   2.283   4.358
 6694TIP3    H220047   2.089   2.335   4.248
 6695TIP3   OH220048   3.572   2.095   2.461
 6695TIP3    H120049   3.659   2.115   2.427
 6695TIP3    H220050   3.528   2.051   2.389
 6696TIP3   OH220051   0.205   6.487   4.549
 6696TIP3    H120052   0.217   6.406   4.599
 6696TIP3    H220053   0.242   6.468   4.463
 6697TIP3   OH220054   5.035   1.671   1.021
 6697TIP3    H120055   5.105   1.686   1.085
 6697TIP3    H220056   4.978   1.607   1.062
 6698TIP3   OH220057   0.969   1.499   2.261
 6698TIP3    H120058   0.881   1.489   2.296
 6698TIP3    H220059   0.956   1.521   2.169
 6699TIP3   OH220060   4.926   0.514   1.187
 6699TIP3    H120061   4.890   0.425   1.194
 6699TIP3    H220062   4.854   0.571   1.214
 6700TIP3   OH220063   7.086   5.991   4.826
 6700TIP3    H120064   7.142   5.950   4.761
 6700TIP3    H220065   7.002   6.004   4.782
 6701TIP3   OH220066   5.095   2.585   2.602
 6701TIP3    H120067   5.004   2.561   2.615
 6701TIP3    H220068   5.101   2.676   2.633
 6702TIP3   OH220069   0.565   6.047   1.959
 6702TIP3    H120070   0.473   6.069   1.968
 6702TIP3    H220071   0.596   6.033   2.049
 6703TIP3   OH220072   4.949   5.055   3.169
 6703TIP3    H120073   4.950   4.975   3.221
 6703TIP3    H220074   4.875   5.044   3.109
 6704TIP3   OH220075   3.468   2.913   5.190
 6704TIP3    H120076   3.510   2.876   5.268
 6704TIP3    H220077   3.438   2.999   5.218
 6705TIP3   OH220078   4.544   6.203   3.004
 6705TIP3    H120079   4.565   6.122   3.051
 6705TIP3    H220080   4.548   6.178   2.912
 6706TIP3   OH220081   5.039   2.728   4.699
 6706TIP3    H120082   5.041   2.763   4.610
 6706TIP3    H220083   5.103   2.657   4.699
 6707TIP3   OH220084   5.231   5.499   2.475
 6707TIP3    H120085   5.136   5.491   2.476
 6707TIP3    H220086   5.255   5.504   2.568
 6708TIP3   OH220087   4.109   3.913   0.069
 6708TIP3    H120088   4.052   3.958   0.131
 6708TIP3    H220089   4.111   3.822   0.100
 6709TIP3   OH220090   1.227   4.044   3.135
 6709TIP3    H120091   1.292   4.051   3.205
 6709TIP3    H220092   1.212   4.134   3.106
 6710TIP3   OH220093   0.327   5.708   4.913
 6710TIP3    H120094   0.236   5.724   4.938
 6710TIP3    H220095   0.376   5.713   4.996
 6711TIP3   OH220096   4.227   2.990   4.131
 6711TIP3    H120097   4.320   2.980   4.152
 6711TIP3    H220098   4.207   3.081   4.150
 6712TIP3   OH220099   3.545   4.595   5.155
 6712TIP3    H120100   3.578   4.525   5.098
 6712TIP3    H220101   3.622   4.624   5.204
 6713TIP3   OH220102   7.049   6.122   0.475
 6713TIP3    H120103   6.999   6.158   0.549
 6713TIP3    H220104   7.127   6.084   0.515
 6714TIP3   OH220105   1.802   3.563   5.359
 6714TIP3    H120106   1.893   3.577   5.333
 6714TIP3    H220107   1.755   3.550   5.277
 6715TIP3   OH220108   1.435   5.691   4.284
 6715TIP3    H120109   1.518   5.661   4.321
 6715TIP3    H220110   1.453   5.705   4.191
 6716TIP3   OH220111   4.999   1.425   3.247
 6716TIP3    H120112   5.059   1.440   3.174
 6716TIP3    H220113   4.972   1.513   3.274
 6717TIP3   OH220114   0.011   1.509   1.177
 6717TIP3    H120115   0.095   1.497   1.221
 6717TIP3    H220116  -0.051   1.526   1.247
 6718TIP3   OH220117   3.597   1.056   2.379
 6718TIP3    H120118   3.536   1.004   2.432
 6718TIP3    H220119   3.645   0.992   2.328
 6719TIP3   OH220120   2.738   3.153   1.501
 6719TIP3    H120121   2.798   3.115   1.436
 6719TIP3    H220122   2.749   3.098   1.578
 6720TIP3   OH220123   6.630   6.267   4.293
 6720TIP3    H120124   6.591   6.352   4.314
 6720TIP3    H220125   6.626   6.218   4.375
 6721TIP3   OH220126   2.777   6.607   1.499
 6721TIP3    H120127   2.841   6.672   1.525
 6721TIP3    H220128   2.751   6.632   1.410
 6722TIP3   OH220129   0.576   5.998   3.517
 6722TIP3    H120130   0.585   5.952   3.434
 6722TIP3    H220131   0.652   5.969   3.569
 6723TIP3   OH220132   4.697   2.277   0.533
 6723TIP3    H120133   4.741   2.200   0.570
 6723TIP3    H220134   4.765   2.344   0.529
 6724TIP3   OH220135   2.161   0.369   3.302
 6724TIP3    H120136   2.123   0.445   3.347
 6724TIP3    H220137   2.126   0.374   3.213
 6725TIP3   OH220138   4.714   6.499  -0.024
 6725TIP3    H120139   4.694   6.554  -0.100
 6725TIP3    H220140   4.710   6.558   0.050
 6726TIP3   OH220141   5.174   1.069   0.007
 6726TIP3    H120142   5.199   1.081  -0.085
 6726TIP3    H220143   5.195   1.153   0.048
 6727TIP3   OH220144   1.390   4.902   0.537
 6727TIP3    H120145   1.445   4.960   0.590
 6727TIP3    H220146   1.309   4.951   0.525
 6728TIP3   OH220147   0.867   3.479   5.821
 6728TIP3    H120148   0.772   3.476   5.835
 6728TIP3    H220149   0.900   3.523   5.900
 6729TIP3   OH220150   2.737   2.846   2.882
 6729TIP3    H120151   2.676   2.855   2.956
 6729TIP3    H220152   2.680   2.840   2.805
 6730TIP3   OH220153   3.262   6.392   5.282
 6730TIP3    H120154   3.181   6.342   5.279
 6730TIP3    H220155   3.293   6.394   5.192
 6731TIP3   OH220156   2.575   0.949   3.281
 6731TIP3    H120157   2.501   0.909   3.233
 6731TIP3    H220158   2.649   0.942   3.221
 6732TIP3   OH220159   2.347   3.638   3.502
 6732TIP3    H120160   2.388   3.562   3.461
 6732TIP3    H220161   2.316   3.606   3.587
 6733TIP3   OH220162   1.334   5.824   5.335
 6733TIP3    H120163   1.428   5.842   5.348
 6733TIP3    H220164   1.330   5.778   5.252
 6734TIP3   OH220165   1.416   5.757   0.950
 6734TIP3    H120166   1.446   5.844   0.978
 6734TIP3    H220167   1.322   5.766   0.937
 6735TIP3   OH220168   4.883   3.310   3.546
 6735TIP3    H120169   4.801   3.356   3.527
 6735TIP3    H220170   4.859   3.242   3.608
 6736TIP3   OH220171   0.134   5.593   4.521
 6736TIP3    H120172   0.128   5.640   4.438
 6736TIP3    H220173   0.109   5.503   4.500
 6737TIP3   OH220174   0.260   3.081   5.394
 6737TIP3    H120175   0.323   3.109   5.460
 6737TIP3    H220176   0.314   3.043   5.324
 6738TIP3   OH220177   2.069   2.043   4.728
 6738TIP3    H120178   2.065   2.072   4.819
 6738TIP3    H220179   2.160   2.058   4.702
 6739TIP3   OH220180   0.491   1.589   3.702
 6739TIP3    H120181   0.435   1.527   3.655
 6739TIP3    H220182   0.535   1.639   3.633
 6740TIP3   OH220183   4.520   5.977   0.898
 6740TIP3    H120184   4.435   5.934   0.906
 6740TIP3    H220185   4.499   6.067   0.871
 6741TIP3   OH220186   1.201   3.519   0.944
 6741TIP3    H120187   1.222   3.612   0.942
 6741TIP3    H220188   1.269   3.481   1.000
 6742TIP3   OH220189   5.668   2.125   4.222
 6742TIP3    H120190   5.663   2.032   4.244
 6742TIP3    H220191   5.739   2.159   4.276
 6743TIP3   OH220192   6.130   2.287   3.185
 6743TIP3    H120193   6.134   2.324   3.274
 6743TIP3    H220194   6.191   2.214   3.187
 6744TIP3   OH220195   7.083   2.949   2.463
 6744TIP3    H120196   7.012   2.926   2.521
 6744TIP3    H220197   7.043   2.950   2.376
 6745TIP3   OH220198   6.573   3.592   4.549
 6745TIP3    H120199   6.494   3.633   4.512
 6745TIP3    H220200   6.615   3.550   4.474
 6746TIP3   OH220201   6.085   6.159   5.716
 6746TIP3    H120202   6.161   6.149   5.658
 6746TIP3    H220203   6.111   6.115   5.797
 6747TIP3   OH220204   4.945   3.570   1.750
 6747TIP3    H120205   4.992   3.553   1.668
 6747TIP3    H220206   4.873   3.628   1.725
 6748TIP3   OH220207   4.363   4.925   3.355
 6748TIP3    H120208   4.333   5.010   3.388
 6748TIP3    H220209   4.456   4.938   3.339
 6749TIP3   OH220210   3.006   5.863   0.189
 6749TIP3    H120211   3.070   5.838   0.123
 6749TIP3    H220212   3.039   5.946   0.225
 6750TIP3   OH220213   3.214   1.539   0.533
 6750TIP3    H120214   3.215   1.525   0.438
 6750TIP3    H220215   3.123   1.563   0.552
 6751TIP3   OH220216   4.630   4.409   2.255
 6751TIP3    H120217   4.583   4.454   2.184
 6751TIP3    H220218   4.636   4.475   2.325
 6752TIP3   OH220219   0.805   5.224   0.810
 6752TIP3    H120220   0.766   5.312   0.811
 6752TIP3    H220221   0.772   5.182   0.889
 6753TIP3   OH220222   3.529   5.787   2.549
 6753TIP3    H120223   3.467   5.715   2.540
 6753TIP3    H220224   3.615   5.744   2.552
 6754TIP3   OH220225   4.866   3.092   4.773
 6754TIP3    H120226   4.836   3.151   4.842
 6754TIP3    H220227   4.955   3.121   4.753
 6755TIP3   OH220228   6.721   0.649   2.570
 6755TIP3    H120229   6.780   0.708   2.523
 6755TIP3    H220230   6.707   0.692   2.655
 6756TIP3   OH220231   5.566   3.266   3.361
 6756TIP3    H120232   5.530   3.220   3.285
 6756TIP3    H220233   5.492   3.314   3.398
 6757TIP3   OH220234   0.466   4.076   2.192
 6757TIP3    H120235   0.514   4.003   2.152
 6757TIP3    H220236   0.435   4.040   2.275
 6758TIP3   OH220237   1.665   1.816   0.047
 6758TIP3    H120238   1.628   1.852  -0.033
 6758TIP3    H220239   1.732   1.879   0.073
 6759TIP3   OH220240   1.276   4.628   2.571
 6759TIP3    H120241   1.305   4.540   2.595
 6759TIP3    H220242   1.357   4.676   2.555
 6760TIP3   OH220243   0.285   2.863   3.238
 6760TIP3    H120244   0.256   2.789   3.290
 6760TIP3    H220245   0.205   2.896   3.197
 6761TIP3   OH220246   3.590   3.393   3.006
 6761TIP3    H120247   3.598   3.367   2.915
 6761TIP3    H220248   3.590   3.310   3.055
 6762TIP3   OH220249   2.821   0.336   3.274
 6762TIP3    H120250   2.897   0.394   3.271
 6762TIP3    H220251   2.858   0.248   3.275
 6763TIP3   OH220252   1.716   3.487   3.425
 6763TIP3    H120253   1.806   3.455   3.416
 6763TIP3    H220254   1.720   3.578   3.395
 6764TIP3   OH220255   3.380   1.948   4.674
 6764TIP3    H120256   3.367   1.955   4.580
 6764TIP3    H220257   3.454   2.006   4.693
 6765TIP3   OH220258   4.276   2.173   2.105
 6765TIP3    H120259   4.332   2.187   2.028
 6765TIP3    H220260   4.195   2.219   2.084
 6766TIP3   OH220261   1.332   2.389   3.366
 6766TIP3    H120262   1.416   2.434   3.375
 6766TIP3    H220263   1.275   2.431   3.431
 6767TIP3   OH220264   2.791   2.193   2.597
 6767TIP3    H120265   2.759   2.261   2.656
 6767TIP3    H220266   2.872   2.228   2.561
 6768TIP3   OH220267   0.029   4.155   0.867
 6768TIP3    H120268  -0.009   4.240   0.847
 6768TIP3    H220269   0.003   4.099   0.794
 6769TIP3   OH220270   7.011   0.858   3.832
 6769TIP3    H120271   6.993   0.774   3.875
 6769TIP3    H220272   6.928   0.905   3.837
 6770TIP3   OH220273   1.010   2.428   0.219
 6770TIP3    H120274   1.048   2.375   0.150
 6770TIP3    H220275   1.003   2.369   0.294
 6771TIP3   OH220276   4.141   5.724   2.009
 6771TIP3    H120277   4.188   5.807   2.020
 6771TIP3    H220278   4.154   5.678   2.092
 6772TIP3   OH220279   3.943   2.772   5.273
 6772TIP3    H120280   3.907   2.685   5.289
 6772TIP3    H220281   3.873   2.819   5.228
 6773TIP3   OH220282   4.432   0.347   2.970
 6773TIP3    H120283   4.384   0.291   3.030
 6773TIP3    H220284   4.454   0.424   3.021
 6774TIP3   OH220285   6.222   5.300   5.027
 6774TIP3    H120286   6.127   5.307   5.037
 6774TIP3    H220287   6.237   5.208   5.006
 6775TIP3   OH220288   5.528   2.592   4.463
 6775TIP3    H120289   5.574   2.559   4.540
 6775TIP3    H220290   5.476   2.665   4.495
 6776TIP3   OH220291   1.592   4.369   0.235
 6776TIP3    H120292   1.532   4.328   0.173
 6776TIP3    H220293   1.675   4.374   0.188
 6777TIP3   OH220294   6.731   2.822   5.823
 6777TIP3    H120295   6.804   2.836   5.883
 6777TIP3    H220296   6.767   2.839   5.736
 6778TIP3   OH220297   0.532   0.595   4.156
 6778TIP3    H120298   0.461   0.579   4.218
 6778TIP3    H220299   0.557   0.508   4.125
 6779TIP3   OH220300   6.757   5.686   4.389
 6779TIP3    H120301   6.760   5.686   4.485
 6779TIP3    H220302   6.826   5.625   4.363
 6780TIP3   OH220303   2.566   2.484   2.335
 6780TIP3    H120304   2.565   2.570   2.292
 6780TIP3    H220305   2.502   2.432   2.286
 6781TIP3   OH220306   2.930   4.632   1.092
 6781TIP3    H120307   2.964   4.683   1.019
 6781TIP3    H220308   2.885   4.696   1.147
 6782TIP3   OH220309   4.708   2.618   1.697
 6782TIP3    H120310   4.794   2.658   1.681
 6782TIP3    H220311   4.693   2.630   1.791
 6783TIP3   OH220312   0.431   4.188   0.154
 6783TIP3    H120313   0.508   4.243   0.170
 6783TIP3    H220314   0.360   4.232   0.201
 6784TIP3   OH220315   5.779   1.088   1.301
 6784TIP3    H120316   5.733   1.163   1.339
 6784TIP3    H220317   5.810   1.119   1.216
 6785TIP3   OH220318   4.398   6.443   2.590
 6785TIP3    H120319   4.457   6.433   2.516
 6785TIP3    H220320   4.318   6.480   2.552
 6786TIP3   OH220321   5.393   6.751   2.854
 6786TIP3    H120322   5.363   6.677   2.801
 6786TIP3    H220323   5.320   6.812   2.854
 6787TIP3   OH220324   4.454   6.202   3.495
 6787TIP3    H120325   4.510   6.278   3.511
 6787TIP3    H220326   4.514   6.135   3.463
 6788TIP3   OH220327   0.184   0.692   3.287
 6788TIP3    H120328   0.264   0.712   3.238
 6788TIP3    H220329   0.171   0.598   3.273
 6789TIP3   OH220330   4.637   6.128   2.716
 6789TIP3    H120331   4.616   6.086   2.632
 6789TIP3    H220332   4.691   6.203   2.692
 6790TIP3   OH220333   1.817   0.390   5.013
 6790TIP3    H120334   1.837   0.346   5.095
 6790TIP3    H220335   1.855   0.333   4.946
 6791TIP3   OH220336   2.545   1.709   2.084
 6791TIP3    H120337   2.480   1.778   2.092
 6791TIP3    H220338   2.627   1.749   2.113
 6792TIP3   OH220339   2.871   4.858   3.312
 6792TIP3    H120340   2.958   4.818   3.311
 6792TIP3    H220341   2.810   4.784   3.314
 6793TIP3   OH220342   3.015   4.236   1.778
 6793TIP3    H120343   2.973   4.321   1.791
 6793TIP3    H220344   2.990   4.210   1.689
 6794TIP3   OH220345   6.011   4.525   5.641
 6794TIP3    H120346   5.936   4.547   5.586
 6794TIP3    H220347   5.974   4.478   5.715
 6795TIP3   OH220348   4.243   6.637   3.880
 6795TIP3    H120349   4.323   6.598   3.844
 6795TIP3    H220350   4.222   6.583   3.957
 6796TIP3   OH220351   6.033   0.815   2.978
 6796TIP3    H120352   6.114   0.865   2.973
 6796TIP3    H220353   6.050   0.748   3.044
 6797TIP3   OH220354   5.059   6.672   4.604
 6797TIP3    H120355   4.968   6.676   4.633
 6797TIP3    H220356   5.068   6.746   4.544
 6798TIP3   OH220357   6.587   6.492   3.535
 6798TIP3    H120358   6.649   6.457   3.599
 6798TIP3    H220359   6.516   6.528   3.588
 6799TIP3   OH220360   3.411   6.324   3.697
 6799TIP3    H120361   3.474   6.370   3.752
 6799TIP3    H220362   3.342   6.388   3.680
 6800TIP3   OH220363   5.232   1.337   5.209
 6800TIP3    H120364   5.219   1.274   5.138
 6800TIP3    H220365   5.323   1.365   5.199
 6801TIP3   OH220366   2.889   2.476   1.741
 6801TIP3    H120367   2.964   2.519   1.700
 6801TIP3    H220368   2.834   2.449   1.668
 6802TIP3   OH220369   2.643   3.720   5.480
 6802TIP3    H120370   2.552   3.739   5.457
 6802TIP3    H220371   2.695   3.782   5.430
 6803TIP3   OH220372   1.247   3.963   1.816
 6803TIP3    H120373   1.282   3.892   1.762
 6803TIP3    H220374   1.274   3.940   1.905
 6804TIP3   OH220375   5.896   3.372   4.601
 6804TIP3    H120376   5.910   3.411   4.687
 6804TIP3    H220377   5.969   3.405   4.548
 6805TIP3   OH220378   2.735   5.880   4.068
 6805TIP3    H120379   2.730   5.799   4.017
 6805TIP3    H220380   2.796   5.935   4.018
 6806TIP3   OH220381   0.806   0.740   3.365
 6806TIP3    H120382   0.776   0.813   3.421
 6806TIP3    H220383   0.801   0.775   3.276
 6807TIP3   OH220384   3.185   3.318   4.387
 6807TIP3    H120385   3.223   3.252   4.446
 6807TIP3    H220386   3.202   3.283   4.299
 6808TIP3   OH220387   4.657   1.243   0.210
 6808TIP3    H120388   4.710   1.170   0.177
 6808TIP3    H220389   4.708   1.321   0.186
 6809TIP3   OH220390   4.970   3.852   0.321
 6809TIP3    H120391   5.046   3.796   0.302
 6809TIP3    H220392   4.922   3.804   0.389
 6810TIP3   OH220393   0.611   2.898   0.135
 6810TIP3    H120394   0.594   2.867   0.223
 6810TIP3    H220395   0.700   2.935   0.139
 6811TIP3   OH220396   4.195   2.504   2.105
 6811TIP3    H120397   4.288   2.506   2.129
 6811TIP3    H220398   4.171   2.596   2.092
 6812TIP3   OH220399   1.282   4.274   5.604
 6812TIP3    H120400   1.345   4.224   5.655
 6812TIP3    H220401   1.197   4.249   5.639
 6813TIP3   OH220402   6.208   6.729   2.111
 6813TIP3    H120403   6.119   6.704   2.137
 6813TIP3    H220404   6.244   6.650   2.070
 6814TIP3   OH220405   2.069   1.583   0.830
 6814TIP3    H120406   2.096   1.663   0.785
 6814TIP3    H220407   2.071   1.605   0.923
 6815TIP3   OH220408   3.749   1.155   4.712
 6815TIP3    H120409   3.739   1.068   4.673
 6815TIP3    H220410   3.771   1.212   4.638
 6816TIP3   OH220411   4.305   6.203   2.025
 6816TIP3    H120412   4.354   6.266   1.973
 6816TIP3    H220413   4.254   6.257   2.086
 6817TIP3   OH220414   5.592   1.375   1.857
 6817TIP3    H120415   5.567   1.286   1.881
 6817TIP3    H220416   5.681   1.366   1.822
 6818TIP3   OH220417   2.519   1.465   4.206
 6818TIP3    H120418   2.532   1.542   4.151
 6818TIP3    H220419   2.571   1.396   4.165
 6819TIP3   OH220420   7.052   4.926   4.564
 6819TIP3    H120421   7.024   5.004   4.516
 6819TIP3    H220422   7.128   4.956   4.615
 6820TIP3   OH220423   0.331   2.548   1.276
 6820TIP3    H120424   0.271   2.603   1.327
 6820TIP3    H220425   0.384   2.504   1.342
 6821TIP3   OH220426   1.619   6.404   3.841
 6821TIP3    H120427   1.615   6.455   3.760
 6821TIP3    H220428   1.706   6.423   3.877
 6822TIP3   OH220429   1.409   1.936   3.465
 6822TIP3    H120430   1.332   1.987   3.490
 6822TIP3    H220431   1.411   1.942   3.369
 6823TIP3   OH220432   6.725   2.996   3.300
 6823TIP3    H120433   6.674   3.021   3.376
 6823TIP3    H220434   6.767   3.077   3.271
 6824TIP3   OH220435   3.925   6.465   1.575
 6824TIP3    H120436   3.832   6.445   1.588
 6824TIP3    H220437   3.962   6.464   1.663
 6825TIP3   OH220438   1.179   0.338   0.603
 6825TIP3    H120439   1.138   0.273   0.661
 6825TIP3    H220440   1.257   0.293   0.569
 6826TIP3   OH220441   2.872   0.609   1.832
 6826TIP3    H120442   2.833   0.636   1.749
 6826TIP3    H220443   2.830   0.526   1.854
 6827TIP3   OH220444   5.951   2.798   1.822
 6827TIP3    H120445   5.883   2.853   1.863
 6827TIP3    H220446   5.938   2.810   1.728
 6828TIP3   OH220447   0.900   0.140   0.370
 6828TIP3    H120448   0.838   0.165   0.438
 6828TIP3    H220449   0.846   0.127   0.292
 6829TIP3   OH220450   3.675   5.295   2.100
 6829TIP3    H120451   3.638   5.212   2.132
 6829TIP3    H220452   3.653   5.358   2.169
 6830TIP3   OH220453   1.200   1.898   1.720
 6830TIP3    H120454   1.236   1.937   1.640
 6830TIP3    H220455   1.244   1.945   1.791
 6831TIP3   OH220456   5.797   5.885   3.655
 6831TIP3    H120457   5.771   5.801   3.692
 6831TIP3    H220458   5.848   5.927   3.724
 6832TIP3   OH220459   2.659   5.799   4.377
 6832TIP3    H120460   2.748   5.772   4.354
 6832TIP3    H220461   2.644   5.879   4.328
 6833TIP3   OH220462   3.476   4.321   4.057
 6833TIP3    H120463   3.515   4.236   4.035
 6833TIP3    H220464   3.495   4.376   3.981
 6834TIP3   OH220465   5.637   4.137   3.838
 6834TIP3    H120466   5.574   4.094   3.896
 6834TIP3    H220467   5.638   4.083   3.759
 6835TIP3   OH220468   3.570   5.105   1.324
 6835TIP3    H120469   3.646   5.132   1.377
 6835TIP3    H220470   3.564   5.171   1.255
 6836TIP3   OH220471   4.747   4.104   0.900
 6836TIP3    H120472   4.778   4.177   0.846
 6836TIP3    H220473   4.723   4.144   0.983
 6837TIP3   OH220474   7.129   5.742   0.476
 6837TIP3    H120475   7.176   5.689   0.540
 6837TIP3    H220476   7.198   5.777   0.420
 6838TIP3   OH220477   3.932   5.618   1.150
 6838TIP3    H120478   3.884   5.643   1.071
 6838TIP3    H220479   3.980   5.539   1.124
 6839TIP3   OH220480   1.413   5.718  -0.012
 6839TIP3    H120481   1.399   5.626   0.008
 6839TIP3    H220482   1.337   5.763   0.025
 6840TIP3   OH220483   5.795   4.834   5.740
 6840TIP3    H120484   5.773   4.751   5.697
 6840TIP3    H220485   5.710   4.867   5.771
 6841TIP3   OH220486   3.382   3.418   1.230
 6841TIP3    H120487   3.374   3.342   1.173
 6841TIP3    H220488   3.402   3.382   1.316
 6842TIP3   OH220489   5.451   0.231   1.347
 6842TIP3    H120490   5.408   0.145   1.349
 6842TIP3    H220491   5.384   0.291   1.316
 6843TIP3   OH220492   3.345   0.791   1.631
 6843TIP3    H120493   3.423   0.761   1.677
 6843TIP3    H220494   3.287   0.714   1.631
 6844TIP3   OH220495   5.744   3.781   3.063
 6844TIP3    H120496   5.702   3.867   3.052
 6844TIP3    H220497   5.775   3.758   2.976
 6845TIP3   OH220498   5.200   4.331   1.287
 6845TIP3    H120499   5.203   4.296   1.198
 6845TIP3    H220500   5.113   4.309   1.319
 6846TIP3   OH220501   2.856   4.698   5.442
 6846TIP3    H120502   2.764   4.687   5.417
 6846TIP3    H220503   2.856   4.770   5.505
 6847TIP3   OH220504  -0.012   3.219   2.220
 6847TIP3    H120505  -0.095   3.175   2.238
 6847TIP3    H220506   0.032   3.162   2.157
 6848TIP3   OH220507   2.542   5.776   3.315
 6848TIP3    H120508   2.496   5.740   3.391
 6848TIP3    H220509   2.590   5.702   3.278
 6849TIP3   OH220510   4.309   5.222   2.818
 6849TIP3    H120511   4.277   5.180   2.739
 6849TIP3    H220512   4.304   5.154   2.885
 6850TIP3   OH220513   5.466   3.490   3.505
 6850TIP3    H120514   5.548   3.501   3.554
 6850TIP3    H220515   5.425   3.576   3.507
 6851TIP3   OH220516   0.078   1.699   3.513
 6851TIP3    H120517  -0.004   1.650   3.512
 6851TIP3    H220518   0.062   1.771   3.575
 6852TIP3   OH220519   3.295   1.889   5.562
 6852TIP3    H120520   3.361   1.930   5.507
 6852TIP3    H220521   3.329   1.801   5.580
 6853TIP3   OH220522   1.810   2.549   0.624
 6853TIP3    H120523   1.834   2.458   0.644
 6853TIP3    H220524   1.876   2.602   0.669
 6854TIP3   OH220525   0.811   1.512   4.534
 6854TIP3    H120526   0.894   1.508   4.580
 6854TIP3    H220527   0.812   1.435   4.477
 6855TIP3   OH220528   4.785   6.389   4.500
 6855TIP3    H120529   4.831   6.335   4.565
 6855TIP3    H220530   4.747   6.461   4.552
 6856TIP3   OH220531   0.428   4.875   4.621
 6856TIP3    H120532   0.369   4.799   4.622
 6856TIP3    H220533   0.494   4.855   4.687
 6857TIP3   OH220534   2.545   2.251   0.901
 6857TIP3    H120535   2.581   2.317   0.842
 6857TIP3    H220536   2.586   2.270   0.986
 6858TIP3   OH220537   5.902   2.142   2.776
 6858TIP3    H120538   5.882   2.210   2.711
 6858TIP3    H220539   5.909   2.190   2.859
 6859TIP3   OH220540   6.256   5.303   5.318
 6859TIP3    H120541   6.234   5.270   5.232
 6859TIP3    H220542   6.304   5.232   5.360
 6860TIP3   OH220543   2.168   1.346   5.284
 6860TIP3    H120544   2.077   1.349   5.312
 6860TIP3    H220545   2.173   1.404   5.208
 6861TIP3   OH220546   1.869   3.672   0.101
 6861TIP3    H120547   1.893   3.631   0.018
 6861TIP3    H220548   1.782   3.709   0.085
 6862TIP3   OH220549   3.491   2.334   3.704
 6862TIP3    H120550   3.550   2.402   3.671
 6862TIP3    H220551   3.547   2.279   3.760
 6863TIP3   OH220552   3.845   4.996   3.606
 6863TIP3    H120553   3.810   5.064   3.665
 6863TIP3    H220554   3.887   5.046   3.536
 6864TIP3   OH220555   2.910   5.949   5.560
 6864TIP3    H120556   2.837   6.011   5.567
 6864TIP3    H220557   2.988   6.003   5.574
 6865TIP3   OH220558   5.939   1.225   0.496
 6865TIP3    H120559   5.944   1.277   0.576
 6865TIP3    H220560   5.855   1.179   0.502
 6866TIP3   OH220561   3.141   1.656   5.247
 6866TIP3    H120562   3.116   1.679   5.336
 6866TIP3    H220563   3.214   1.714   5.227
 6867TIP3   OH220564   2.160   4.672   0.701
 6867TIP3    H120565   2.236   4.668   0.643
 6867TIP3    H220566   2.195   4.650   0.788
 6868TIP3   OH220567   0.436   0.618   2.745
 6868TIP3    H120568   0.462   0.678   2.814
 6868TIP3    H220569   0.444   0.669   2.665
 6869TIP3   OH220570   6.417   3.536   0.644
 6869TIP3    H120571   6.442   3.445   0.630
 6869TIP3    H220572   6.480   3.568   0.709
 6870TIP3   OH220573   4.052   0.054   0.935
 6870TIP3    H120574   3.958   0.037   0.928
 6870TIP3    H220575   4.088   0.024   0.851
 6871TIP3   OH220576   5.902   2.878   0.585
 6871TIP3    H120577   5.968   2.937   0.548
 6871TIP3    H220578   5.827   2.886   0.526
 6872TIP3   OH220579   3.179   6.465   0.120
 6872TIP3    H120580   3.209   6.374   0.120
 6872TIP3    H220581   3.190   6.494   0.029
 6873TIP3   OH220582   6.634   5.405   5.427
 6873TIP3    H120583   6.678   5.410   5.512
 6873TIP3    H220584   6.542   5.389   5.449
 6874TIP3   OH220585   5.308   5.050   3.666
 6874TIP3    H120586   5.274   5.107   3.735
 6874TIP3    H220587   5.377   5.102   3.625
 6875TIP3   OH220588   6.196   1.363   3.724
 6875TIP3    H120589   6.109   1.339   3.756
 6875TIP3    H220590   6.213   1.300   3.653
 6876TIP3   OH220591   4.852   3.436   4.657
 6876TIP3    H120592   4.768   3.449   4.701
 6876TIP3    H220593   4.862   3.341   4.654
 6877TIP3   OH220594   3.076   0.778   1.767
 6877TIP3    H120595   3.018   0.756   1.840
 6877TIP3    H220596   3.051   0.718   1.697
 6878TIP3   OH220597   1.768   0.596   1.776
 6878TIP3    H120598   1.734   0.518   1.732
 6878TIP3    H220599   1.841   0.624   1.721
 6879TIP3   OH220600   0.175   4.095   5.053
 6879TIP3    H120601   0.123   4.053   4.985
 6879TIP3    H220602   0.264   4.063   5.038
 6880TIP3   OH220603   1.955   5.985   2.470
 6880TIP3    H120604   2.014   5.976   2.546
 6880TIP3    H220605   1.947   6.080   2.457
 6881TIP3   OH220606   5.000   5.915   4.311
 6881TIP3    H120607   4.952   5.983   4.359
 6881TIP3    H220608   4.935   5.845   4.298
 6882TIP3   OH220609   3.280   3.026   2.571
 6882TIP3    H120610   3.310   2.952   2.518
 6882TIP3    H220611   3.343   3.096   2.553
 6883TIP3   OH220612   2.090   2.177   5.441
 6883TIP3    H120613   2.046   2.207   5.521
 6883TIP3    H220614   2.018   2.149   5.384
 6884TIP3   OH220615   3.411   0.345   0.405
 6884TIP3    H120616   3.385   0.416   0.346
 6884TIP3    H220617   3.506   0.339   0.396
 6885TIP3   OH220618   0.181   3.406   3.424
 6885TIP3    H120619   0.255   3.373   3.476
 6885TIP3    H220620   0.208   3.391   3.333
 6886TIP3   OH220621   4.334   0.596   5.654
 6886TIP3    H120622   4.410   0.601   5.595
 6886TIP3    H220623   4.281   0.525   5.618
 6887TIP3   OH220624   1.793   4.137   4.452
 6887TIP3    H120625   1.833   4.098   4.529
 6887TIP3    H220626   1.791   4.067   4.387
 6888TIP3   OH220627   1.785   0.407   3.421
 6888TIP3    H120628   1.811   0.422   3.330
 6888TIP3    H220629   1.732   0.483   3.444
 6889TIP3   OH220630   1.727   5.055   2.840
 6889TIP3    H120631   1.679   5.063   2.923
 6889TIP3    H220632   1.774   5.138   2.832
 6890TIP3   OH220633   4.158   0.737   2.048
 6890TIP3    H120634   4.206   0.780   1.978
 6890TIP3    H220635   4.209   0.756   2.127
 6891TIP3   OH220636   6.596   0.059   5.554
 6891TIP3    H120637   6.541   0.133   5.581
 6891TIP3    H220638   6.578  -0.008   5.620
 6892TIP3   OH220639   3.610   2.149   3.885
 6892TIP3    H120640   3.587   2.058   3.866
 6892TIP3    H220641   3.704   2.153   3.867
 6893TIP3   OH220642   0.222   5.398   1.016
 6893TIP3    H120643   0.222   5.431   1.106
 6893TIP3    H220644   0.132   5.370   1.001
 6894TIP3   OH220645   0.206   1.438   1.377
 6894TIP3    H120646   0.147   1.430   1.452
 6894TIP3    H220647   0.253   1.521   1.391
 6895TIP3   OH220648   4.062   1.338   4.921
 6895TIP3    H120649   4.036   1.356   5.011
 6895TIP3    H220650   3.997   1.385   4.868
 6896TIP3   OH220651   4.955   1.224   4.981
 6896TIP3    H120652   4.868   1.186   4.967
 6896TIP3    H220653   4.980   1.195   5.069
 6897TIP3   OH220654   0.786   2.824   2.943
 6897TIP3    H120655   0.763   2.795   2.855
 6897TIP3    H220656   0.701   2.837   2.987
 6898TIP3   OH220657   2.632   0.415   3.078
 6898TIP3    H120658   2.558   0.415   3.138
 6898TIP3    H220659   2.708   0.397   3.134
 6899TIP3   OH220660   6.540   6.516   4.373
 6899TIP3    H120661   6.608   6.576   4.342
 6899TIP3    H220662   6.473   6.573   4.410
 6900TIP3   OH220663   3.717   6.578   0.993
 6900TIP3    H120664   3.632   6.541   1.017
 6900TIP3    H220665   3.760   6.593   1.077
 6901TIP3   OH220666   6.103   0.289   2.104
 6901TIP3    H120667   6.023   0.319   2.148
 6901TIP3    H220668   6.130   0.364   2.051
 6902TIP3   OH220669   2.341   4.809   3.938
 6902TIP3    H120670   2.301   4.878   3.886
 6902TIP3    H220671   2.297   4.729   3.910
 6903TIP3   OH220672   3.759   2.644   4.575
 6903TIP3    H120673   3.762   2.664   4.481
 6903TIP3    H220674   3.812   2.712   4.616
 6904TIP3   OH220675   4.457   2.475   4.783
 6904TIP3    H120676   4.452   2.421   4.862
 6904TIP3    H220677   4.492   2.559   4.813
 6905TIP3   OH220678   6.781   1.163   0.633
 6905TIP3    H120679   6.755   1.242   0.586
 6905TIP3    H220680   6.699   1.128   0.669
 6906TIP3   OH220681   1.546   1.338   2.065
 6906TIP3    H120682   1.530   1.249   2.095
 6906TIP3    H220683   1.641   1.347   2.065
 6907TIP3   OH220684   4.258   0.284   0.724
 6907TIP3    H120685   4.270   0.377   0.702
 6907TIP3    H220686   4.174   0.282   0.769
 6908TIP3   OH220687   2.446   0.350   3.272
 6908TIP3    H120688   2.357   0.356   3.306
 6908TIP3    H220689   2.487   0.281   3.324
 6909TIP3   OH220690   7.172   4.520   3.199
 6909TIP3    H120691   7.160   4.596   3.257
 6909TIP3    H220692   7.264   4.498   3.209
 6910TIP3   OH220693   6.163   4.918   2.184
 6910TIP3    H120694   6.088   4.968   2.151
 6910TIP3    H220695   6.234   4.938   2.123
 6911TIP3   OH220696   4.737   6.654   4.671
 6911TIP3    H120697   4.674   6.622   4.606
 6911TIP3    H220698   4.682   6.699   4.736
 6912TIP3   OH220699   1.160   5.703   4.366
 6912TIP3    H120700   1.180   5.752   4.446
 6912TIP3    H220701   1.245   5.683   4.328
 6913TIP3   OH220702   6.857   4.635   3.239
 6913TIP3    H120703   6.883   4.712   3.290
 6913TIP3    H220704   6.866   4.562   3.299
 6914TIP3   OH220705   6.504   2.865   3.135
 6914TIP3    H120706   6.563   2.897   3.203
 6914TIP3    H220707   6.496   2.772   3.151
 6915TIP3   OH220708   0.446   0.557   1.756
 6915TIP3    H120709   0.382   0.629   1.754
 6915TIP3    H220710   0.514   0.584   1.694
 6916TIP3   OH220711   0.889   2.425   5.451
 6916TIP3    H120712   0.847   2.492   5.505
 6916TIP3    H220713   0.889   2.346   5.505
 6917TIP3   OH220714   6.879   5.119   1.143
 6917TIP3    H120715   6.961   5.094   1.185
 6917TIP3    H220716   6.898   5.115   1.049
 6918TIP3   OH220717   1.683   0.476   1.992
 6918TIP3    H120718   1.589   0.494   2.000
 6918TIP3    H220719   1.713   0.538   1.925
 6919TIP3   OH220720   6.282   2.464   4.892
 6919TIP3    H120721   6.341   2.539   4.888
 6919TIP3    H220722   6.329   2.393   4.849
 6920TIP3   OH220723   4.442   1.678   1.812
 6920TIP3    H120724   4.473   1.759   1.772
 6920TIP3    H220725   4.431   1.699   1.905
 6921TIP3   OH220726   6.053   4.501   0.784
 6921TIP3    H120727   5.985   4.435   0.796
 6921TIP3    H220728   6.135   4.454   0.797
 6922TIP3   OH220729   6.177   4.039   1.516
 6922TIP3    H120730   6.195   4.133   1.507
 6922TIP3    H220731   6.129   4.032   1.599
 6923TIP3   OH220732   1.497   2.757   4.117
 6923TIP3    H120733   1.447   2.677   4.133
 6923TIP3    H220734   1.506   2.760   4.022
 6924TIP3   OH220735   6.535   3.001   3.497
 6924TIP3    H120736   6.538   3.095   3.517
 6924TIP3    H220737   6.616   2.965   3.534
 6925TIP3   OH220738   3.818   2.296   5.002
 6925TIP3    H120739   3.750   2.234   4.975
 6925TIP3    H220740   3.803   2.373   4.947
 6926TIP3   OH220741   1.356   5.943   5.697
 6926TIP3    H120742   1.317   5.888   5.629
 6926TIP3    H220743   1.300   6.020   5.701
 6927TIP3   OH220744   0.516   5.955   2.864
 6927TIP3    H120745   0.562   6.034   2.893
 6927TIP3    H220746   0.486   5.913   2.944
 6928TIP3   OH220747   1.843   2.203   3.165
 6928TIP3    H120748   1.838   2.167   3.076
 6928TIP3    H220749   1.937   2.204   3.185
 6929TIP3   OH220750   2.620   6.680   0.922
 6929TIP3    H120751   2.678   6.738   0.871
 6929TIP3    H220752   2.582   6.737   0.988
 6930TIP3   OH220753   4.253   0.035   4.772
 6930TIP3    H120754   4.224  -0.046   4.731
 6930TIP3    H220755   4.184   0.055   4.836
 6931TIP3   OH220756   2.320   5.665   1.691
 6931TIP3    H120757   2.250   5.617   1.735
 6931TIP3    H220758   2.295   5.665   1.598
 6932TIP3   OH220759   3.376   3.849   0.005
 6932TIP3    H120760   3.416   3.873   0.089
 6932TIP3    H220761   3.407   3.761  -0.013
 6933TIP3   OH220762   6.846   3.640   0.923
 6933TIP3    H120763   6.846   3.703   0.995
 6933TIP3    H220764   6.939   3.620   0.908
 6934TIP3   OH220765   1.177   1.681   0.116
 6934TIP3    H120766   1.152   1.675   0.024
 6934TIP3    H220767   1.097   1.709   0.161
 6935TIP3   OH220768   4.451   2.087   3.407
 6935TIP3    H120769   4.510   2.125   3.342
 6935TIP3    H220770   4.380   2.151   3.414
 6936TIP3   OH220771   3.582   4.583   0.860
 6936TIP3    H120772   3.526   4.654   0.890
 6936TIP3    H220773   3.522   4.513   0.836
 6937TIP3   OH220774   6.808   1.761   2.985
 6937TIP3    H120775   6.897   1.761   3.019
 6937TIP3    H220776   6.812   1.818   2.907
 6938TIP3   OH220777   5.929   3.633   4.174
 6938TIP3    H120778   6.013   3.591   4.154
 6938TIP3    H220779   5.935   3.719   4.132
 6939TIP3   OH220780   1.668   3.879   0.170
 6939TIP3    H120781   1.603   3.903   0.236
 6939TIP3    H220782   1.707   3.962   0.143
 6940TIP3   OH220783   2.568   3.032   4.820
 6940TIP3    H120784   2.474   3.019   4.834
 6940TIP3    H220785   2.594   2.962   4.759
 6941TIP3   OH220786   2.483   5.995   3.900
 6941TIP3    H120787   2.388   5.990   3.888
 6941TIP3    H220788   2.508   6.079   3.861
 6942TIP3   OH220789   3.976   6.679   0.697
 6942TIP3    H120790   3.889   6.657   0.731
 6942TIP3    H220791   4.032   6.679   0.775
 6943TIP3   OH220792   5.577   5.620   5.771
 6943TIP3    H120793   5.482   5.635   5.767
 6943TIP3    H220794   5.609   5.686   5.832
 6944TIP3   OH220795   5.897   4.321   2.991
 6944TIP3    H120796   5.805   4.347   2.987
 6944TIP3    H220797   5.938   4.368   2.918
 6945TIP3   OH220798   3.352   1.658   1.478
 6945TIP3    H120799   3.338   1.690   1.389
 6945TIP3    H220800   3.440   1.620   1.476
 6946TIP3   OH220801   2.746   2.416   1.500
 6946TIP3    H120802   2.786   2.449   1.420
 6946TIP3    H220803   2.738   2.322   1.487
 6947TIP3   OH220804   1.438   2.496   3.650
 6947TIP3    H120805   1.449   2.401   3.646
 6947TIP3    H220806   1.513   2.528   3.700
 6948TIP3   OH220807   2.290   4.248   4.121
 6948TIP3    H120808   2.297   4.343   4.124
 6948TIP3    H220809   2.288   4.227   4.028
 6949TIP3   OH220810   5.197   0.623   4.748
 6949TIP3    H120811   5.164   0.702   4.792
 6949TIP3    H220812   5.141   0.613   4.671
 6950TIP3   OH220813   5.262   1.462   2.059
 6950TIP3    H120814   5.209   1.383   2.070
 6950TIP3    H220815   5.220   1.510   1.987
 6951TIP3   OH220816   5.391   2.095   4.471
 6951TIP3    H120817   5.480   2.062   4.478
 6951TIP3    H220818   5.393   2.180   4.516
 6952TIP3   OH220819   2.038   3.483   0.195
 6952TIP3    H120820   1.975   3.547   0.161
 6952TIP3    H220821   1.985   3.416   0.237
 6953TIP3   OH220822   2.616   6.224   1.655
 6953TIP3    H120823   2.681   6.154   1.663
 6953TIP3    H220824   2.663   6.295   1.612
 6954TIP3   OH220825   2.518   0.721   4.664
 6954TIP3    H120826   2.593   0.780   4.673
 6954TIP3    H220827   2.442   0.779   4.658
 6955TIP3   OH220828   1.930   0.296   4.771
 6955TIP3    H120829   1.943   0.390   4.776
 6955TIP3    H220830   1.864   0.284   4.702
 6956TIP3   OH220831   1.470   1.675   3.054
 6956TIP3    H120832   1.399   1.673   2.989
 6956TIP3    H220833   1.465   1.763   3.091
 6957TIP3   OH220834   6.148   3.924   4.996
 6957TIP3    H120835   6.198   3.849   5.031
 6957TIP3    H220836   6.081   3.884   4.941
 6958TIP3   OH220837   7.060   1.157   3.291
 6958TIP3    H120838   6.990   1.113   3.338
 6958TIP3    H220839   7.017   1.227   3.243
 6959TIP3   OH220840   5.498   5.787   1.916
 6959TIP3    H120841   5.575   5.748   1.873
 6959TIP3    H220842   5.508   5.881   1.903
 6960TIP3   OH220843   1.381   2.701   5.182
 6960TIP3    H120844   1.388   2.773   5.119
 6960TIP3    H220845   1.311   2.729   5.242
 6961TIP3   OH220846   3.245   1.322   0.098
 6961TIP3    H120847   3.334   1.335   0.067
 6961TIP3    H220848   3.225   1.401   0.149
 6962TIP3   OH220849   3.647   0.249   2.968
 6962TIP3    H120850   3.626   0.294   2.886
 6962TIP3    H220851   3.740   0.229   2.961
 6963TIP3   OH220852   6.034   0.987   1.083
 6963TIP3    H120853   5.969   1.048   1.119
 6963TIP3    H220854   6.068   1.032   1.005
 6964TIP3   OH220855   6.455   4.595   2.778
 6964TIP3    H120856   6.374   4.543   2.776
 6964TIP3    H220857   6.463   4.630   2.689
 6965TIP3   OH220858   0.736   5.369   4.756
 6965TIP3    H120859   0.748   5.310   4.831
 6965TIP3    H220860   0.805   5.434   4.765
 6966TIP3   OH220861   0.026   3.149   4.565
 6966TIP3    H120862   0.059   3.219   4.508
 6966TIP3    H220863   0.044   3.180   4.654
 6967TIP3   OH220864   2.707   4.197   3.211
 6967TIP3    H120865   2.682   4.117   3.165
 6967TIP3    H220866   2.640   4.210   3.277
 6968TIP3   OH220867   4.848   1.460   0.307
 6968TIP3    H120868   4.828   1.390   0.369
 6968TIP3    H220869   4.781   1.526   0.323
 6969TIP3   OH220870   3.934   2.546   3.595
 6969TIP3    H120871   3.933   2.451   3.605
 6969TIP3    H220872   3.944   2.579   3.685
 6970TIP3   OH220873   2.868   0.532   1.403
 6970TIP3    H120874   2.823   0.459   1.361
 6970TIP3    H220875   2.921   0.571   1.334
 6971TIP3   OH220876   2.844   1.839   4.642
 6971TIP3    H120877   2.822   1.886   4.561
 6971TIP3    H220878   2.938   1.856   4.654
 6972TIP3   OH220879   4.699   1.952   3.892
 6972TIP3    H120880   4.781   1.968   3.939
 6972TIP3    H220881   4.684   2.031   3.840
 6973TIP3   OH220882   0.807   3.905   1.589
 6973TIP3    H120883   0.829   3.918   1.681
 6973TIP3    H220884   0.846   3.820   1.566
 6974TIP3   OH220885   2.739   4.874   5.194
 6974TIP3    H120886   2.643   4.882   5.195
 6974TIP3    H220887   2.759   4.834   5.110
 6975TIP3   OH220888   0.619   6.653   4.535
 6975TIP3    H120889   0.618   6.600   4.614
 6975TIP3    H220890   0.702   6.632   4.493
 6976TIP3   OH220891   2.285   4.022   2.278
 6976TIP3    H120892   2.283   4.116   2.260
 6976TIP3    H220893   2.300   4.016   2.372
 6977TIP3   OH220894   4.706   3.618   4.843
 6977TIP3    H120895   4.776   3.608   4.908
 6977TIP3    H220896   4.643   3.550   4.865
 6978TIP3   OH220897   7.091   1.886   1.067
 6978TIP3    H120898   7.140   1.925   1.140
 6978TIP3    H220899   7.129   1.798   1.057
 6979TIP3   OH220900   4.304   6.063   5.847
 6979TIP3    H120901   4.392   6.092   5.826
 6979TIP3    H220902   4.250   6.098   5.776
 6980TIP3   OH220903   2.883   2.090   1.148
 6980TIP3    H120904   2.870   2.014   1.091
 6980TIP3    H220905   2.971   2.079   1.183
 6981TIP3   OH220906   2.627   3.114   2.714
 6981TIP3    H120907   2.599   3.169   2.640
 6981TIP3    H220908   2.695   3.058   2.678
 6982TIP3   OH220909   0.084   3.774   2.293
 6982TIP3    H120910   0.127   3.823   2.223
 6982TIP3    H220911  -0.009   3.797   2.286
 6983TIP3   OH220912   6.994   1.499   5.091
 6983TIP3    H120913   6.931   1.436   5.124
 6983TIP3    H220914   6.970   1.512   4.999
 6984TIP3   OH220915   5.378   0.398   2.261
 6984TIP3    H120916   5.399   0.430   2.348
 6984TIP3    H220917   5.288   0.427   2.245
 6985TIP3   OH220918   3.650   4.807   3.508
 6985TIP3    H120919   3.712   4.874   3.535
 6985TIP3    H220920   3.698   4.754   3.444
 6986TIP3   OH220921   0.663   4.977   3.648
 6986TIP3    H120922   0.612   5.038   3.594
 6986TIP3    H220923   0.712   5.034   3.708
 6987TIP3   OH220924   2.437   0.557   3.747
 6987TIP3    H120925   2.452   0.476   3.699
 6987TIP3    H220926   2.525   0.595   3.757
 6988TIP3   OH220927   0.119   6.060   1.385
 6988TIP3    H120928   0.048   6.076   1.323
 6988TIP3    H220929   0.113   6.132   1.448
 6989TIP3   OH220930   4.899   0.972   4.750
 6989TIP3    H120931   4.838   0.944   4.682
 6989TIP3    H220932   4.843   0.997   4.824
 6990TIP3   OH220933   1.909   3.928   1.941
 6990TIP3    H120934   1.876   3.844   1.973
 6990TIP3    H220935   1.856   3.947   1.864
 6991TIP3   OH220936   3.887   0.235   3.584
 6991TIP3    H120937   3.925   0.221   3.497
 6991TIP3    H220938   3.809   0.180   3.585
 6992TIP3   OH220939   6.681   3.111   2.726
 6992TIP3    H120940   6.744   3.164   2.774
 6992TIP3    H220941   6.653   3.045   2.788
 6993TIP3   OH220942   3.598   4.534   3.881
 6993TIP3    H120943   3.694   4.525   3.879
 6993TIP3    H220944   3.576   4.574   3.797
 6994TIP3   OH220945   5.975   5.683   0.298
 6994TIP3    H120946   5.982   5.754   0.362
 6994TIP3    H220947   5.977   5.727   0.213
 6995TIP3   OH220948   6.149   6.430   5.669
 6995TIP3    H120949   6.178   6.429   5.578
 6995TIP3    H220950   6.112   6.343   5.683
 6996TIP3   OH220951   4.752   6.087   0.553
 6996TIP3    H120952   4.764   6.089   0.458
 6996TIP3    H220953   4.658   6.085   0.565
 6997TIP3   OH220954   0.507   1.082   5.282
 6997TIP3    H120955   0.551   1.154   5.237
 6997TIP3    H220956   0.432   1.061   5.226
 6998TIP3   OH220957   3.573   6.721   5.749
 6998TIP3    H120958   3.482   6.703   5.773
 6998TIP3    H220959   3.579   6.693   5.658
 6999TIP3   OH220960   3.115   6.383   4.837
 6999TIP3    H120961   3.160   6.443   4.777
 6999TIP3    H220962   3.067   6.441   4.896
 7000TIP3   OH220963   5.743  -0.017   3.492
 7000TIP3    H120964   5.785   0.026   3.566
 7000TIP3    H220965   5.690   0.052   3.452
 7001TIP3   OH220966   5.257   6.736   1.000
 7001TIP3    H120967   5.227   6.751   1.089
 7001TIP3    H220968   5.313   6.811   0.981
 7002TIP3   OH220969   0.673   5.456   0.819
 7002TIP3    H120970   0.698   5.534   0.868
 7002TIP3    H220971   0.590   5.429   0.858
 7003TIP3   OH220972   3.670   1.040   3.767
 7003TIP3    H120973   3.624   1.062   3.686
 7003TIP3    H220974   3.606   1.055   3.837
 7004TIP3   OH220975   0.927   4.967   1.454
 7004TIP3    H120976   0.851   5.024   1.445
 7004TIP3    H220977   0.976   4.978   1.372
 7005TIP3   OH220978   4.516   0.056   1.693
 7005TIP3    H120979   4.508   0.144   1.731
 7005TIP3    H220980   4.520   0.072   1.598
 7006TIP3   OH220981   5.230   0.499   4.284
 7006TIP3    H120982   5.246   0.471   4.374
 7006TIP3    H220983   5.182   0.426   4.245
 7007TIP3   OH220984   3.575   6.336   3.422
 7007TIP3    H120985   3.599   6.309   3.511
 7007TIP3    H220986   3.647   6.391   3.393
 7008TIP3   OH220987   4.369   1.856   4.299
 7008TIP3    H120988   4.432   1.879   4.368
 7008TIP3    H220989   4.293   1.821   4.347
 7009TIP3   OH220990   7.117   0.270   1.436
 7009TIP3    H120991   7.115   0.188   1.387
 7009TIP3    H220992   7.189   0.260   1.498
 7010TIP3   OH220993   6.275   0.693   0.473
 7010TIP3    H120994   6.246   0.643   0.397
 7010TIP3    H220995   6.371   0.688   0.470
 7011TIP3   OH220996   4.956   4.048   5.606
 7011TIP3    H120997   4.954   4.000   5.524
 7011TIP3    H220998   4.927   3.984   5.672
 7012TIP3   OH220999   3.747   0.241   4.127
 7012TIP3    H121000   3.836   0.268   4.104
 7012TIP3    H221001   3.694   0.275   4.054
 7013TIP3   OH221002   2.263   6.259   0.009
 7013TIP3    H121003   2.207   6.275   0.085
 7013TIP3    H221004   2.275   6.345  -0.031
 7014TIP3   OH221005   4.788   3.120   4.091
 7014TIP3    H121006   4.749   3.097   4.006
 7014TIP3    H221007   4.718   3.165   4.138
 7015TIP3   OH221008   6.155   2.761   5.540
 7015TIP3    H121009   6.199   2.827   5.594
 7015TIP3    H221010   6.145   2.803   5.454
 7016TIP3   OH221011   5.108   6.603   0.819
 7016TIP3    H121012   5.036   6.666   0.811
 7016TIP3    H221013   5.144   6.619   0.907
 7017TIP3   OH221014   3.146   6.479   0.525
 7017TIP3    H121015   3.224   6.446   0.479
 7017TIP3    H221016   3.175   6.561   0.564
 7018TIP3   OH221017   6.280   1.970   3.837
 7018TIP3    H121018   6.209   1.939   3.894
 7018TIP3    H221019   6.260   1.933   3.751
 7019TIP3   OH221020   5.686   1.477   1.542
 7019TIP3    H121021   5.684   1.458   1.636
 7019TIP3    H221022   5.772   1.447   1.513
 7020TIP3   OH221023   0.242   5.971   4.214
 7020TIP3    H121024   0.274   6.054   4.180
 7020TIP3    H221025   0.154   5.990   4.245
 7021TIP3   OH221026   4.419   2.836   1.995
 7021TIP3    H121027   4.340   2.817   2.045
 7021TIP3    H221028   4.407   2.790   1.913
 7022TIP3   OH221029   5.761   0.345   2.174
 7022TIP3    H121030   5.816   0.361   2.250
 7022TIP3    H221031   5.716   0.263   2.193
 7023TIP3   OH221032   5.859   3.148   4.785
 7023TIP3    H121033   5.868   3.217   4.720
 7023TIP3    H221034   5.793   3.180   4.846
 7024TIP3   OH221035   5.205   1.243   1.581
 7024TIP3    H121036   5.280   1.183   1.574
 7024TIP3    H221037   5.167   1.225   1.667
 7025TIP3   OH221038   3.311   0.728   3.084
 7025TIP3    H121039   3.218   0.739   3.104
 7025TIP3    H221040   3.343   0.665   3.150
 7026TIP3   OH221041   1.094   0.675   5.704
 7026TIP3    H121042   1.002   0.696   5.691
 7026TIP3    H221043   1.105   0.588   5.666
 7027TIP3   OH221044   5.299   0.802   3.813
 7027TIP3    H121045   5.270   0.762   3.895
 7027TIP3    H221046   5.223   0.799   3.755
 7028TIP3   OH221047   2.391   2.192   4.158
 7028TIP3    H121048   2.303   2.224   4.141
 7028TIP3    H221049   2.439   2.210   4.077
 7029TIP3   OH221050   2.690   3.277   0.609
 7029TIP3    H121051   2.643   3.342   0.558
 7029TIP3    H221052   2.776   3.315   0.623
 7030TIP3   OH221053   6.940   3.493   0.631
 7030TIP3    H121054   7.031   3.521   0.641
 7030TIP3    H221055   6.913   3.465   0.719
 7031TIP3   OH221056   3.536   0.184   0.924
 7031TIP3    H121057   3.493   0.266   0.949
 7031TIP3    H221058   3.629   0.208   0.917
 7032TIP3   OH221059   6.469   2.612   2.253
 7032TIP3    H121060   6.454   2.707   2.257
 7032TIP3    H221061   6.386   2.573   2.278
 7033TIP3   OH221062   2.027   2.965   0.987
 7033TIP3    H121063   2.121   2.972   0.971
 7033TIP3    H221064   2.001   3.052   1.018
 7034TIP3   OH221065   5.931   1.248   2.006
 7034TIP3    H121066   5.905   1.268   1.916
 7034TIP3    H221067   5.892   1.317   2.059
 7035TIP3   OH221068   5.790   6.055   5.727
 7035TIP3    H121069   5.886   6.056   5.727
 7035TIP3    H221070   5.764   6.144   5.704
 7036TIP3   OH221071   4.394   0.484   3.701
 7036TIP3    H121072   4.412   0.574   3.673
 7036TIP3    H221073   4.300   0.473   3.690
 7037TIP3   OH221074   6.296   1.657   5.225
 7037TIP3    H121075   6.358   1.676   5.296
 7037TIP3    H221076   6.216   1.631   5.270
 7038TIP3   OH221077   1.820   6.566   5.804
 7038TIP3    H121078   1.859   6.651   5.782
 7038TIP3    H221079   1.854   6.507   5.737
 7039TIP3   OH221080   4.784   0.740   1.463
 7039TIP3    H121081   4.716   0.677   1.441
 7039TIP3    H221082   4.864   0.688   1.472
 7040TIP3   OH221083   5.035   5.434   2.934
 7040TIP3    H121084   5.059   5.520   2.968
 7040TIP3    H221085   4.955   5.450   2.884
 7041TIP3   OH221086   6.779   0.055   3.455
 7041TIP3    H121087   6.743   0.054   3.366
 7041TIP3    H221088   6.831  -0.024   3.461
 7042TIP3   OH221089   0.616   0.468   2.902
 7042TIP3    H121090   0.560   0.521   2.845
 7042TIP3    H221091   0.560   0.396   2.930
 7043TIP3   OH221092   6.337   0.437   5.030
 7043TIP3    H121093   6.285   0.358   5.042
 7043TIP3    H221094   6.402   0.434   5.100
 7044TIP3   OH221095   6.497   4.723   4.081
 7044TIP3    H121096   6.535   4.663   4.017
 7044TIP3    H221097   6.488   4.806   4.034
 7045TIP3   OH221098   4.846   1.811   2.381
 7045TIP3    H121099   4.907   1.785   2.312
 7045TIP3    H221100   4.759   1.795   2.344
 7046TIP3   OH221101   5.068   1.265   3.580
 7046TIP3    H121102   5.144   1.285   3.526
 7046TIP3    H221103   5.002   1.328   3.553
 7047TIP3   OH221104   5.606   3.706   4.836
 7047TIP3    H121105   5.622   3.671   4.748
 7047TIP3    H221106   5.515   3.685   4.854
 7048TIP3   OH221107   0.250   2.101   1.932
 7048TIP3    H121108   0.198   2.157   1.991
 7048TIP3    H221109   0.336   2.142   1.931
 7049TIP3   OH221110   0.326   5.221   3.697
 7049TIP3    H121111   0.369   5.215   3.611
 7049TIP3    H221112   0.292   5.133   3.713
 7050TIP3   OH221113   2.386   6.337   0.339
 7050TIP3    H121114   2.463   6.358   0.286
 7050TIP3    H221115   2.377   6.242   0.330
 7051TIP3   OH221116   2.427   5.382   3.919
 7051TIP3    H121117   2.395   5.427   3.840
 7051TIP3    H221118   2.463   5.299   3.886
 7052TIP3   OH221119   2.645   1.875   3.500
 7052TIP3    H121120   2.679   1.954   3.458
 7052TIP3    H221121   2.555   1.868   3.469
 7053TIP3   OH221122   0.199   0.805   2.981
 7053TIP3    H121123   0.291   0.781   2.967
 7053TIP3    H221124   0.203   0.889   3.028
 7054TIP3   OH221125   6.197   3.620   0.974
 7054TIP3    H121126   6.234   3.536   1.003
 7054TIP3    H221127   6.144   3.598   0.897
 7055TIP3   OH221128   2.721   0.153   0.585
 7055TIP3    H121129   2.792   0.103   0.627
 7055TIP3    H221130   2.642   0.101   0.601
 7056TIP3   OH221131   4.054   6.070   3.621
 7056TIP3    H121132   4.028   6.064   3.713
 7056TIP3    H221133   3.977   6.104   3.576
 7057TIP3   OH221134   5.990   2.834   1.501
 7057TIP3    H121135   5.992   2.916   1.451
 7057TIP3    H221136   6.082   2.810   1.511
 7058TIP3   OH221137   6.130   0.188   0.589
 7058TIP3    H121138   6.105   0.221   0.675
 7058TIP3    H221139   6.226   0.188   0.590
 7059TIP3   OH221140   6.512   0.474   4.804
 7059TIP3    H121141   6.469   0.457   4.888
 7059TIP3    H221142   6.477   0.558   4.775
 7060TIP3   OH221143   2.250   1.959   5.742
 7060TIP3    H121144   2.174   1.912   5.778
 7060TIP3    H221145   2.323   1.896   5.751
 7061TIP3   OH221146   1.901   3.795   0.357
 7061TIP3    H121147   1.887   3.751   0.273
 7061TIP3    H221148   1.815   3.793   0.399
 7062TIP3   OH221149   5.756   0.668   2.189
 7062TIP3    H121150   5.698   0.592   2.204
 7062TIP3    H221151   5.838   0.644   2.232
 7063TIP3   OH221152   7.211   2.271   2.041
 7063TIP3    H121153   7.194   2.347   1.985
 7063TIP3    H221154   7.140   2.273   2.105
 7064TIP3   OH221155   4.395   6.151   0.034
 7064TIP3    H121156   4.333   6.102  -0.020
 7064TIP3    H221157   4.379   6.243   0.013
 7065TIP3   OH221158   2.518   1.350   5.039
 7065TIP3    H121159   2.581   1.302   4.986
 7065TIP3    H221160   2.489   1.422   4.984
 7066TIP3   OH221161   3.828   2.563   0.338
 7066TIP3    H121162   3.869   2.649   0.342
 7066TIP3    H221163   3.870   2.520   0.264
 7067TIP3   OH221164   4.357   4.094   4.291
 7067TIP3    H121165   4.306   4.076   4.369
 7067TIP3    H221166   4.303   4.155   4.240
 7068TIP3   OH221167   5.193   3.442   3.768
 7068TIP3    H121168   5.223   3.509   3.830
 7068TIP3    H221169   5.171   3.491   3.689
 7069TIP3   OH221170   3.368   5.387   4.202
 7069TIP3    H121171   3.416   5.444   4.262
 7069TIP3    H221172   3.281   5.378   4.241
 7070TIP3   OH221173   3.959   2.190   2.720
 7070TIP3    H121174   3.992   2.168   2.807
 7070TIP3    H221175   4.037   2.187   2.664
 7071TIP3   OH221176   6.319   1.284   3.209
 7071TIP3    H121177   6.304   1.353   3.274
 7071TIP3    H221178   6.331   1.205   3.261
 7072TIP3   OH221179   4.366   6.443   5.746
 7072TIP3    H121180   4.388   6.490   5.665
 7072TIP3    H221181   4.274   6.419   5.735
 7073TIP3   OH221182   3.079   4.486   1.308
 7073TIP3    H121183   3.018   4.541   1.258
 7073TIP3    H221184   3.043   4.484   1.396
 7074TIP3   OH221185   3.653   3.971   0.601
 7074TIP3    H121186   3.611   3.972   0.516
 7074TIP3    H221187   3.747   3.981   0.582
 7075TIP3   OH221188   0.429   2.708   2.704
 7075TIP3    H121189   0.364   2.747   2.763
 7075TIP3    H221190   0.513   2.729   2.745
 7076TIP3   OH221191   4.131   2.044   4.305
 7076TIP3    H121192   4.123   1.957   4.265
 7076TIP3    H221193   4.127   2.027   4.399
 7077TIP3   OH221194   2.977   4.639   4.768
 7077TIP3    H121195   3.012   4.550   4.767
 7077TIP3    H221196   3.039   4.688   4.823
 7078TIP3   OH221197   6.990   5.450   1.180
 7078TIP3    H121198   7.065   5.473   1.235
 7078TIP3    H221199   6.939   5.389   1.233
 7079TIP3   OH221200   6.005   4.795   3.868
 7079TIP3    H121201   6.085   4.815   3.917
 7079TIP3    H221202   5.958   4.732   3.922
 7080TIP3   OH221203   2.780   2.548   4.077
 7080TIP3    H121204   2.804   2.618   4.015
 7080TIP3    H221205   2.841   2.560   4.151
 7081TIP3   OH221206   1.326   5.469   5.816
 7081TIP3    H121207   1.272   5.433   5.886
 7081TIP3    H221208   1.305   5.417   5.739
 7082TIP3   OH221209   5.390   0.644   1.194
 7082TIP3    H121210   5.485   0.638   1.197
 7082TIP3    H221211   5.360   0.553   1.190
 7083TIP3   OH221212   6.063   3.049   5.354
 7083TIP3    H121213   6.051   3.104   5.431
 7083TIP3    H221214   5.976   3.039   5.317
 7084TIP3   OH221215   2.913   0.350   4.982
 7084TIP3    H121216   2.889   0.257   4.978
 7084TIP3    H221217   2.923   0.369   5.075
 7085TIP3   OH221218   5.504   3.184   3.095
 7085TIP3    H121219   5.537   3.102   3.061
 7085TIP3    H221220   5.505   3.244   3.021
 7086TIP3   OH221221   1.428   0.242   4.577
 7086TIP3    H121222   1.391   0.326   4.550
 7086TIP3    H221223   1.395   0.180   4.513
 7087TIP3   OH221224   6.989   5.206   3.748
 7087TIP3    H121225   7.047   5.227   3.674
 7087TIP3    H221226   6.972   5.290   3.790
 7088TIP3   OH221227   2.029   1.112   3.410
 7088TIP3    H121228   1.972   1.089   3.337
 7088TIP3    H221229   1.974   1.165   3.468
 7089TIP3   OH221230   3.364   1.931   0.320
 7089TIP3    H121231   3.456   1.929   0.293
 7089TIP3    H221232   3.358   1.866   0.390
 7090TIP3   OH221233   1.621   4.538   2.722
 7090TIP3    H121234   1.706   4.539   2.678
 7090TIP3    H221235   1.627   4.465   2.785
 7091TIP3   OH221236   2.477   0.221   5.716
 7091TIP3    H121237   2.413   0.161   5.678
 7091TIP3    H221238   2.502   0.278   5.643
 7092TIP3   OH221239   1.980   1.632   2.274
 7092TIP3    H121240   1.998   1.619   2.181
 7092TIP3    H221241   1.940   1.550   2.302
 7093TIP3   OH221242   1.124   2.633   1.585
 7093TIP3    H121243   1.097   2.575   1.656
 7093TIP3    H221244   1.053   2.696   1.577
 7094TIP3   OH221245   5.667   2.361   1.499
 7094TIP3    H121246   5.706   2.447   1.482
 7094TIP3    H221247   5.721   2.323   1.569
 7095TIP3   OH221248   5.545   0.327   3.629
 7095TIP3    H121249   5.491   0.264   3.677
 7095TIP3    H221250   5.502   0.411   3.645
 7096TIP3   OH221251   5.078   2.660   3.085
 7096TIP3    H121252   4.985   2.682   3.089
 7096TIP3    H221253   5.114   2.720   3.020
 7097TIP3   OH221254   4.795   2.194   1.359
 7097TIP3    H121255   4.730   2.209   1.291
 7097TIP3    H221256   4.779   2.263   1.423
 7098TIP3   OH221257   1.320   4.651   3.570
 7098TIP3    H121258   1.411   4.642   3.598
 7098TIP3    H221259   1.276   4.575   3.608
 7099TIP3   OH221260   0.060   6.520   4.156
 7099TIP3    H121261   0.031   6.573   4.081
 7099TIP3    H221262   0.113   6.579   4.209
 7100TIP3   OH221263   3.143   4.876   0.694
 7100TIP3    H121264   3.127   4.885   0.600
 7100TIP3    H221265   3.181   4.789   0.704
 7101TIP3   OH221266   6.323   2.765   0.640
 7101TIP3    H121267   6.372   2.762   0.559
 7101TIP3    H221268   6.348   2.849   0.680
 7102TIP3   OH221269   5.141   1.003   1.024
 7102TIP3    H121270   5.151   0.913   0.992
 7102TIP3    H221271   5.060   1.001   1.075
 7103TIP3   OH221272   1.146   5.194   2.434
 7103TIP3    H121273   1.196   5.131   2.486
 7103TIP3    H221274   1.067   5.147   2.409
 7104TIP3   OH221275   6.375   4.076   2.372
 7104TIP3    H121276   6.452   4.019   2.374
 7104TIP3    H221277   6.334   4.058   2.287
 7105TIP3   OH221278   2.838   3.330   1.021
 7105TIP3    H121279   2.913   3.319   1.080
 7105TIP3    H221280   2.840   3.253   0.964
 7106TIP3   OH221281   0.240   2.207   2.486
 7106TIP3    H121282   0.217   2.239   2.399
 7106TIP3    H221283   0.200   2.120   2.491
 7107TIP3   OH221284   0.956   4.461   3.114
 7107TIP3    H121285   0.917   4.444   3.028
 7107TIP3    H221286   1.019   4.531   3.099
 7108TIP3   OH221287   1.343   1.208   4.108
 7108TIP3    H121288   1.289   1.130   4.091
 7108TIP3    H221289   1.342   1.256   4.026
 7109TIP3   OH221290   1.470   4.949   5.347
 7109TIP3    H121291   1.473   5.002   5.267
 7109TIP3    H221292   1.388   4.973   5.389
 7110TIP3   OH221293   4.513   3.814   2.678
 7110TIP3    H121294   4.527   3.813   2.584
 7110TIP3    H221295   4.417   3.810   2.688
 7111TIP3   OH221296   1.680   4.654   1.803
 7111TIP3    H121297   1.700   4.722   1.867
 7111TIP3    H221298   1.765   4.614   1.782
 7112TIP3   OH221299   4.273   5.943   2.122
 7112TIP3    H121300   4.253   5.934   2.215
 7112TIP3    H221301   4.301   6.034   2.112
 7113TIP3   OH221302   1.031   1.771   0.636
 7113TIP3    H121303   1.089   1.719   0.692
 7113TIP3    H221304   1.081   1.782   0.555
 7114TIP3   OH221305   7.035   4.698   1.852
 7114TIP3    H121306   7.082   4.781   1.858
 7114TIP3    H221307   7.084   4.647   1.788
 7115TIP3   OH221308   6.923   0.258   0.464
 7115TIP3    H121309   6.884   0.342   0.443
 7115TIP3    H221310   6.857   0.194   0.438
 7116TIP3   OH221311   5.172   5.061   0.951
 7116TIP3    H121312   5.137   5.019   1.030
 7116TIP3    H221313   5.121   5.141   0.942
 7117TIP3   OH221314   6.460   3.857   1.743
 7117TIP3    H121315   6.429   3.844   1.833
 7117TIP3    H221316   6.468   3.952   1.735
 7118TIP3   OH221317   4.360   1.831   3.433
 7118TIP3    H121318   4.412   1.911   3.421
 7118TIP3    H221319   4.296   1.834   3.362
 7119TIP3   OH221320   1.835   2.739   2.467
 7119TIP3    H121321   1.919   2.692   2.460
 7119TIP3    H221322   1.839   2.807   2.400
 7120TIP3   OH221323   4.629   2.730   0.967
 7120TIP3    H121324   4.674   2.767   1.043
 7120TIP3    H221325   4.624   2.636   0.986
 7121TIP3   OH221326   6.893   3.808   0.554
 7121TIP3    H121327   6.892   3.718   0.586
 7121TIP3    H221328   6.805   3.841   0.573
 7122TIP3   OH221329   4.976   5.557   2.441
 7122TIP3    H121330   4.959   5.652   2.443
 7122TIP3    H221331   4.921   5.521   2.510
 7123TIP3   OH221332   1.954   4.587   3.271
 7123TIP3    H121333   2.022   4.530   3.235
 7123TIP3    H221334   1.985   4.610   3.359
 7124TIP3   OH221335   4.222   0.345   5.781
 7124TIP3    H121336   4.315   0.359   5.764
 7124TIP3    H221337   4.218   0.266   5.835
 7125TIP3   OH221338   6.977   0.745   4.568
 7125TIP3    H121339   6.939   0.693   4.497
 7125TIP3    H221340   7.019   0.819   4.524
 7126TIP3   OH221341   0.059   4.960   4.372
 7126TIP3    H121342   0.075   4.869   4.348
 7126TIP3    H221343   0.076   4.963   4.466
 7127TIP3   OH221344   0.473   4.909   0.417
 7127TIP3    H121345   0.561   4.877   0.397
 7127TIP3    H221346   0.422   4.890   0.338
 7128TIP3   OH221347   2.209   6.055   4.557
 7128TIP3    H121348   2.296   6.018   4.569
 7128TIP3    H221349   2.224   6.141   4.519
 7129TIP3   OH221350   4.298   1.590   1.550
 7129TIP3    H121351   4.271   1.546   1.630
 7129TIP3    H221352   4.393   1.574   1.545
 7130TIP3   OH221353   0.907   2.365   4.396
 7130TIP3    H121354   0.961   2.345   4.473
 7130TIP3    H221355   0.939   2.451   4.367
 7131TIP3   OH221356   5.995   3.692   3.671
 7131TIP3    H121357   6.034   3.638   3.602
 7131TIP3    H221358   6.061   3.693   3.740
 7132TIP3   OH221359   0.391   5.337   1.409
 7132TIP3    H121360   0.456   5.405   1.394
 7132TIP3    H221361   0.390   5.286   1.328
 7133TIP3   OH221362   6.447   1.720   5.437
 7133TIP3    H121363   6.541   1.709   5.454
 7133TIP3    H221364   6.413   1.761   5.517
 7134TIP3   OH221365   0.101   4.683   0.224
 7134TIP3    H121366   0.109   4.621   0.297
 7134TIP3    H221367   0.068   4.763   0.264
 7135TIP3   OH221368   3.484   4.235   2.870
 7135TIP3    H121369   3.478   4.144   2.900
 7135TIP3    H221370   3.511   4.229   2.779
 7136TIP3   OH221371   1.743   0.768   5.114
 7136TIP3    H121372   1.722   0.830   5.184
 7136TIP3    H221373   1.750   0.684   5.159
 7137TIP3   OH221374   2.644   5.148   3.568
 7137TIP3    H121375   2.557   5.120   3.595
 7137TIP3    H221376   2.696   5.067   3.568
 7138TIP3   OH221377   1.607   2.023   1.318
 7138TIP3    H121378   1.525   2.054   1.279
 7138TIP3    H221379   1.650   2.103   1.348
 7139TIP3   OH221380   5.418   0.722   4.894
 7139TIP3    H121381   5.419   0.772   4.976
 7139TIP3    H221382   5.333   0.678   4.893
 7140TIP3   OH221383   3.728   0.538   2.048
 7140TIP3    H121384   3.679   0.523   2.129
 7140TIP3    H221385   3.664   0.520   1.978
 7141TIP3   OH221386   1.681   5.604   3.606
 7141TIP3    H121387   1.766   5.607   3.563
 7141TIP3    H221388   1.654   5.696   3.611
 7142TIP3   OH221389   2.439   5.880   4.556
 7142TIP3    H121390   2.477   5.793   4.567
 7142TIP3    H221391   2.510   5.932   4.518
 7143TIP3   OH221392   6.368   5.452   0.937
 7143TIP3    H121393   6.368   5.396   0.859
 7143TIP3    H221394   6.368   5.391   1.010
 7144TIP3   OH221395   1.946   0.447   2.759
 7144TIP3    H121396   1.874   0.410   2.708
 7144TIP3    H221397   2.018   0.454   2.696
 7145TIP3   OH221398   1.521   6.782   1.615
 7145TIP3    H121399   1.568   6.773   1.698
 7145TIP3    H221400   1.448   6.721   1.622
 7146TIP3   OH221401   6.248   1.922   4.590
 7146TIP3    H121402   6.184   1.886   4.651
 7146TIP3    H221403   6.327   1.868   4.605
 7147TIP3   OH221404   5.643   3.093   3.796
 7147TIP3    H121405   5.684   3.032   3.857
 7147TIP3    H221406   5.701   3.095   3.720
 7148TIP3   OH221407   6.660   2.869   1.320
 7148TIP3    H121408   6.662   2.928   1.245
 7148TIP3    H221409   6.567   2.846   1.330
 7149TIP3   OH221410   4.886   0.391   0.560
 7149TIP3    H121411   4.853   0.480   0.574
 7149TIP3    H221412   4.845   0.339   0.630
 7150TIP3   OH221413   3.468   5.323   2.652
 7150TIP3    H121414   3.417   5.395   2.613
 7150TIP3    H221415   3.443   5.324   2.744
 7151TIP3   OH221416   4.865   0.079   1.538
 7151TIP3    H121417   4.822   0.074   1.623
 7151TIP3    H221418   4.851  -0.007   1.498
 7152TIP3   OH221419   1.231   4.450   1.622
 7152TIP3    H121420   1.291   4.521   1.644
 7152TIP3    H221421   1.272   4.372   1.660
 7153TIP3   OH221422   6.419   2.126   2.202
 7153TIP3    H121423   6.415   2.208   2.252
 7153TIP3    H221424   6.433   2.059   2.268
 7154TIP3   OH221425   4.789   2.351   1.903
 7154TIP3    H121426   4.751   2.438   1.890
 7154TIP3    H221427   4.863   2.365   1.962
 7155TIP3   OH221428   2.232   3.848   5.155
 7155TIP3    H121429   2.146   3.872   5.120
 7155TIP3    H221430   2.251   3.763   5.114
 7156TIP3   OH221431   2.503   5.528   0.474
 7156TIP3    H121432   2.495   5.612   0.519
 7156TIP3    H221433   2.571   5.481   0.523
 7157TIP3   OH221434   1.374   1.823   0.236
 7157TIP3    H121435   1.339   1.761   0.173
 7157TIP3    H221436   1.448   1.865   0.191
 7158TIP3   OH221437   4.597   5.347   0.658
 7158TIP3    H121438   4.643   5.426   0.685
 7158TIP3    H221439   4.520   5.343   0.716
 7159TIP3   OH221440   3.686   0.758   2.345
 7159TIP3    H121441   3.673   0.775   2.438
 7159TIP3    H221442   3.631   0.682   2.327
 7160TIP3   OH221443   7.031   1.268   1.680
 7160TIP3    H121444   7.023   1.263   1.584
 7160TIP3    H221445   6.941   1.272   1.711
 7161TIP3   OH221446   3.410   6.444   4.736
 7161TIP3    H121447   3.387   6.369   4.791
 7161TIP3    H221448   3.504   6.454   4.746
 7162TIP3   OH221449   4.254   5.306   0.247
 7162TIP3    H121450   4.216   5.391   0.226
 7162TIP3    H221451   4.328   5.326   0.304
 7163TIP3   OH221452   1.522   1.015   3.887
 7163TIP3    H121453   1.576   0.936   3.898
 7163TIP3    H221454   1.444   0.997   3.940
 7164TIP3   OH221455   4.509   0.493   3.979
 7164TIP3    H121456   4.483   0.415   4.028
 7164TIP3    H221457   4.459   0.488   3.897
 7165TIP3   OH221458   4.797   5.640   4.661
 7165TIP3    H121459   4.796   5.578   4.734
 7165TIP3    H221460   4.860   5.706   4.686
 7166TIP3   OH221461   2.202   5.904   1.181
 7166TIP3    H121462   2.215   5.912   1.087
 7166TIP3    H221463   2.291   5.904   1.217
 7167TIP3   OH221464   4.737   4.840   1.894
 7167TIP3    H121465   4.678   4.913   1.914
 7167TIP3    H221466   4.819   4.863   1.938
 7168TIP3   OH221467   6.580   0.984   5.922
 7168TIP3    H121468   6.534   1.015   5.844
 7168TIP3    H221469   6.673   0.986   5.897
 7169TIP3   OH221470   5.755   2.194   4.788
 7169TIP3    H121471   5.746   2.148   4.705
 7169TIP3    H221472   5.836   2.158   4.826
 7170TIP3   OH221473   0.172   2.696   3.413
 7170TIP3    H121474   0.248   2.649   3.447
 7170TIP3    H221475   0.118   2.627   3.373
 7171TIP3   OH221476   0.212   1.533   1.837
 7171TIP3    H121477   0.280   1.505   1.898
 7171TIP3    H221478   0.180   1.616   1.872
 7172TIP3   OH221479   5.864   4.033   3.232
 7172TIP3    H121480   5.857   3.958   3.291
 7172TIP3    H221481   5.776   4.043   3.195
 7173TIP3   OH221482   3.836   6.686   5.304
 7173TIP3    H121483   3.930   6.678   5.317
 7173TIP3    H221484   3.827   6.744   5.228
 7174TIP3   OH221485   3.758   5.796   3.899
 7174TIP3    H121486   3.804   5.807   3.815
 7174TIP3    H221487   3.676   5.752   3.876
 7175TIP3   OH221488   5.183   1.557   3.072
 7175TIP3    H121489   5.236   1.596   3.142
 7175TIP3    H221490   5.222   1.590   2.991
 7176TIP3   OH221491   0.710   3.651   3.475
 7176TIP3    H121492   0.798   3.674   3.443
 7176TIP3    H221493   0.724   3.625   3.566
 7177TIP3   OH221494   4.178   6.337   5.505
 7177TIP3    H121495   4.220   6.414   5.467
 7177TIP3    H221496   4.220   6.263   5.462
 7178TIP3   OH221497   1.791   5.892   2.781
 7178TIP3    H121498   1.886   5.902   2.790
 7178TIP3    H221499   1.759   5.980   2.763
 7179TIP3   OH221500   5.658   5.365   2.816
 7179TIP3    H121501   5.577   5.333   2.856
 7179TIP3    H221502   5.631   5.440   2.763
 7180TIP3   OH221503   2.267   4.644   3.287
 7180TIP3    H121504   2.210   4.644   3.363
 7180TIP3    H221505   2.354   4.662   3.322
 7181TIP3   OH221506   2.655   0.483   3.437
 7181TIP3    H121507   2.703   0.425   3.378
 7181TIP3    H221508   2.591   0.526   3.381
 7182TIP3   OH221509   3.503   6.080   3.256
 7182TIP3    H121510   3.589   6.114   3.229
 7182TIP3    H221511   3.512   6.066   3.350
 7183TIP3   OH221512   1.723   4.078   1.798
 7183TIP3    H121513   1.715   4.030   1.716
 7183TIP3    H221514   1.665   4.154   1.788
 7184TIP3   OH221515   1.442   0.427   2.108
 7184TIP3    H121516   1.384   0.488   2.062
 7184TIP3    H221517   1.417   0.341   2.074
 7185TIP3   OH221518   5.512   5.676   2.935
 7185TIP3    H121519   5.493   5.711   2.848
 7185TIP3    H221520   5.550   5.750   2.982
 7186TIP3   OH221521   3.628   1.699   4.506
 7186TIP3    H121522   3.687   1.765   4.468
 7186TIP3    H221523   3.541   1.727   4.478
 7187TIP3   OH221524   1.468   3.755   3.094
 7187TIP3    H121525   1.442   3.678   3.145
 7187TIP3    H221526   1.396   3.769   3.032
 7188TIP3   OH221527   2.129   2.685   3.987
 7188TIP3    H121528   2.097   2.748   4.051
 7188TIP3    H221529   2.208   2.725   3.951
 7189TIP3   OH221530   6.381   4.863   1.769
 7189TIP3    H121531   6.425   4.804   1.830
 7189TIP3    H221532   6.431   4.856   1.688
 7190TIP3   OH221533   4.435   3.834   0.740
 7190TIP3    H121534   4.425   3.744   0.772
 7190TIP3    H221535   4.513   3.831   0.685
 7191TIP3   OH221536   3.083   2.378   3.283
 7191TIP3    H121537   3.143   2.385   3.209
 7191TIP3    H221538   2.998   2.359   3.242
 7192TIP3   OH221539   2.706   1.935   2.182
 7192TIP3    H121540   2.785   1.987   2.167
 7192TIP3    H221541   2.637   2.000   2.194
 7193TIP3   OH221542   6.750   1.306   5.148
 7193TIP3    H121543   6.689   1.340   5.083
 7193TIP3    H221544   6.739   1.211   5.145
 7194TIP3   OH221545   0.159   3.165   3.710
 7194TIP3    H121546   0.223   3.173   3.780
 7194TIP3    H221547   0.174   3.079   3.672
 7195TIP3   OH221548   3.015   4.616   3.628
 7195TIP3    H121549   3.035   4.640   3.537
 7195TIP3    H221550   3.010   4.699   3.674
 7196TIP3   OH221551   6.822   0.176   5.777
 7196TIP3    H121552   6.909   0.183   5.816
 7196TIP3    H221553   6.830   0.221   5.693
 7197TIP3   OH221554   2.053   0.023   0.543
 7197TIP3    H121555   2.006  -0.039   0.599
 7197TIP3    H221556   2.145   0.012   0.568
 7198TIP3   OH221557   3.762   2.049   5.350
 7198TIP3    H121558   3.798   2.072   5.436
 7198TIP3    H221559   3.825   2.083   5.287
 7199TIP3   OH221560   4.333   3.168   4.757
 7199TIP3    H121561   4.306   3.253   4.724
 7199TIP3    H221562   4.418   3.184   4.798
 7200TIP3   OH221563   6.736   5.396   0.370
 7200TIP3    H121564   6.693   5.382   0.455
 7200TIP3    H221565   6.791   5.473   0.384
 7201TIP3   OH221566   2.625   2.405   2.775
 7201TIP3    H121567   2.653   2.475   2.715
 7201TIP3    H221568   2.634   2.444   2.862
 7202TIP3   OH221569   1.762   0.222   1.334
 7202TIP3    H121570   1.788   0.156   1.399
 7202TIP3    H221571   1.843   0.266   1.310
 7203TIP3   OH221572   1.217   2.568   0.947
 7203TIP3    H121573   1.273   2.626   0.895
 7203TIP3    H221574   1.277   2.525   1.008
 7204TIP3   OH221575   1.623   6.304   3.335
 7204TIP3    H121576   1.663   6.252   3.404
 7204TIP3    H221577   1.536   6.266   3.322
 7205TIP3   OH221578   0.034   6.099   3.238
 7205TIP3    H121579   0.108   6.039   3.248
 7205TIP3    H221580  -0.018   6.063   3.166
 7206TIP3   OH221581   4.957   1.784   0.241
 7206TIP3    H121582   4.940   1.780   0.335
 7206TIP3    H221583   5.030   1.724   0.227
 7207TIP3   OH221584   3.648   3.725   0.263
 7207TIP3    H121585   3.585   3.795   0.275
 7207TIP3    H221586   3.730   3.759   0.298
 7208TIP3   OH221587   1.074   4.570   4.866
 7208TIP3    H121588   1.004   4.634   4.879
 7208TIP3    H221589   1.120   4.600   4.788
 7209TIP3   OH221590   6.832   6.659   1.532
 7209TIP3    H121591   6.923   6.632   1.520
 7209TIP3    H221592   6.808   6.700   1.449
 7210TIP3   OH221593   1.510   2.168   1.639
 7210TIP3    H121594   1.578   2.105   1.663
 7210TIP3    H221595   1.548   2.253   1.661
 7211TIP3   OH221596   2.871   2.968   2.191
 7211TIP3    H121597   2.916   2.901   2.140
 7211TIP3    H221598   2.865   2.932   2.279
 7212TIP3   OH221599   1.146   5.177   4.444
 7212TIP3    H121600   1.239   5.201   4.437
 7212TIP3    H221601   1.100   5.261   4.437
 7213TIP3   OH221602   5.734   0.607   3.642
 7213TIP3    H121603   5.672   0.537   3.661
 7213TIP3    H221604   5.747   0.603   3.547
 7214TIP3   OH221605   0.875   2.699   0.757
 7214TIP3    H121606   0.799   2.669   0.707
 7214TIP3    H221607   0.949   2.690   0.697
 7215TIP3   OH221608   6.608   5.985   4.002
 7215TIP3    H121609   6.700   5.974   4.026
 7215TIP3    H221610   6.602   6.075   3.970
 7216TIP3   OH221611   1.815   3.114   1.136
 7216TIP3    H121612   1.806   3.209   1.138
 7216TIP3    H221613   1.737   3.083   1.090
 7217TIP3   OH221614   1.080   4.807   4.628
 7217TIP3    H121615   1.067   4.744   4.557
 7217TIP3    H221616   1.173   4.830   4.622
 7218TIP3   OH221617   2.364   4.842   1.409
 7218TIP3    H121618   2.372   4.889   1.327
 7218TIP3    H221619   2.447   4.857   1.455
 7219TIP3   OH221620   5.587   4.398   3.721
 7219TIP3    H121621   5.671   4.429   3.688
 7219TIP3    H221622   5.607   4.318   3.768
 7220TIP3   OH221623   2.061   2.914   4.156
 7220TIP3    H121624   2.061   3.009   4.168
 7220TIP3    H221625   1.974   2.887   4.185
 7221TIP3   OH221626   1.679   2.169   4.127
 7221TIP3    H121627   1.699   2.253   4.084
 7221TIP3    H221628   1.601   2.137   4.081
 7222TIP3   OH221629   5.167   1.407   3.795
 7222TIP3    H121630   5.087   1.436   3.839
 7222TIP3    H221631   5.138   1.336   3.738
 7223TIP3   OH221632   6.703   5.551   3.716
 7223TIP3    H121633   6.645   5.485   3.754
 7223TIP3    H221634   6.701   5.623   3.779
 7224TIP3   OH221635   2.490   1.948   2.779
 7224TIP3    H121636   2.436   1.905   2.845
 7224TIP3    H221637   2.444   2.029   2.759
 7225TIP3   OH221638   1.160   1.662   2.701
 7225TIP3    H121639   1.069   1.687   2.683
 7225TIP3    H221640   1.153   1.600   2.773
 7226TIP3   OH221641   3.592   5.439   4.057
 7226TIP3    H121642   3.505   5.420   4.093
 7226TIP3    H221643   3.642   5.359   4.074
 7227TIP3   OH221644   0.410   5.517   2.836
 7227TIP3    H121645   0.490   5.481   2.876
 7227TIP3    H221646   0.417   5.611   2.849
 7228TIP3   OH221647   6.395   3.475   3.922
 7228TIP3    H121648   6.388   3.381   3.936
 7228TIP3    H221649   6.464   3.485   3.857
 7229TIP3   OH221650   0.393   2.858   4.353
 7229TIP3    H121651   0.397   2.917   4.428
 7229TIP3    H221652   0.414   2.772   4.389
 7230TIP3   OH221653   6.300   2.983   0.800
 7230TIP3    H121654   6.209   2.955   0.789
 7230TIP3    H221655   6.341   2.913   0.851
 7231TIP3   OH221656   4.569   3.004   4.968
 7231TIP3    H121657   4.627   2.970   5.036
 7231TIP3    H221658   4.597   3.094   4.954
 7232TIP3   OH221659   6.861   6.117   5.493
 7232TIP3    H121660   6.767   6.110   5.511
 7232TIP3    H221661   6.883   6.037   5.446
 7233TIP3   OH221662   5.121   1.876   3.910
 7233TIP3    H121663   5.215   1.896   3.913
 7233TIP3    H221664   5.112   1.793   3.956
 7234TIP3   OH221665   2.879   6.122   0.497
 7234TIP3    H121666   2.934   6.071   0.556
 7234TIP3    H221667   2.936   6.190   0.463
 7235TIP3   OH221668   0.026   3.756   4.802
 7235TIP3    H121669  -0.060   3.720   4.822
 7235TIP3    H221670   0.020   3.848   4.826
 7236TIP3   OH221671   3.872   3.553   2.247
 7236TIP3    H121672   3.854   3.626   2.187
 7236TIP3    H221673   3.795   3.497   2.239
 7237TIP3   OH221674   6.302   0.404   5.682
 7237TIP3    H121675   6.388   0.420   5.644
 7237TIP3    H221676   6.288   0.310   5.674
 7238TIP3   OH221677   0.391   5.376   5.236
 7238TIP3    H121678   0.378   5.306   5.299
 7238TIP3    H221679   0.422   5.332   5.157
 7239TIP3   OH221680   5.505   4.846   2.386
 7239TIP3    H121681   5.522   4.841   2.480
 7239TIP3    H221682   5.441   4.916   2.376
 7240TIP3   OH221683   2.487   0.985   1.396
 7240TIP3    H121684   2.430   0.933   1.340
 7240TIP3    H221685   2.525   1.051   1.337
 7241TIP3   OH221686   0.729   2.100   2.161
 7241TIP3    H121687   0.653   2.074   2.213
 7241TIP3    H221688   0.781   2.021   2.153
 7242TIP3   OH221689   4.456   2.566   3.131
 7242TIP3    H121690   4.505   2.519   3.198
 7242TIP3    H221691   4.445   2.654   3.167
 7243TIP3   OH221692   5.724   1.656   1.199
 7243TIP3    H121693   5.700   1.565   1.183
 7243TIP3    H221694   5.713   1.700   1.114
 7244TIP3   OH221695   0.333   1.378   0.819
 7244TIP3    H121696   0.416   1.368   0.772
 7244TIP3    H221697   0.324   1.473   0.831
 7245TIP3   OH221698   4.910   0.925   0.867
 7245TIP3    H121699   4.822   0.955   0.887
 7245TIP3    H221700   4.951   0.998   0.821
 7246TIP3   OH221701   0.655   0.295   0.462
 7246TIP3    H121702   0.586   0.358   0.442
 7246TIP3    H221703   0.610   0.225   0.510
 7247TIP3   OH221704   7.017   6.615   1.960
 7247TIP3    H121705   7.070   6.633   1.882
 7247TIP3    H221706   7.053   6.534   1.994
 7248TIP3   OH221707   1.560   3.208   2.393
 7248TIP3    H121708   1.497   3.243   2.329
 7248TIP3    H221709   1.506   3.182   2.467
 7249TIP3   OH221710   4.296   3.552   5.092
 7249TIP3    H121711   4.206   3.520   5.100
 7249TIP3    H221712   4.350   3.475   5.103
 7250TIP3   OH221713   1.766   1.590   0.479
 7250TIP3    H121714   1.835   1.597   0.413
 7250TIP3    H221715   1.776   1.669   0.533
 7251TIP3   OH221716   1.846   0.157   5.646
 7251TIP3    H121717   1.773   0.173   5.706
 7251TIP3    H221718   1.856   0.239   5.598
 7252TIP3   OH221719   1.243   6.578   5.221
 7252TIP3    H121720   1.178   6.640   5.187
 7252TIP3    H221721   1.243   6.506   5.158
 7253TIP3   OH221722   5.417   1.918   0.498
 7253TIP3    H121723   5.445   2.002   0.535
 7253TIP3    H221724   5.329   1.936   0.465
 7254TIP3   OH221725   0.335   4.438   1.143
 7254TIP3    H121726   0.417   4.489   1.144
 7254TIP3    H221727   0.342   4.382   1.067
 7255TIP3   OH221728   5.958   0.269   4.892
 7255TIP3    H121729   5.991   0.307   4.811
 7255TIP3    H221730   5.863   0.262   4.878
 7256TIP3   OH221731   1.865   3.205   4.909
 7256TIP3    H121732   1.849   3.182   5.000
 7256TIP3    H221733   1.836   3.296   4.901
 7257TIP3   OH221734   6.783   5.573   4.644
 7257TIP3    H121735   6.800   5.483   4.674
 7257TIP3    H221736   6.693   5.591   4.672
 7258TIP3   OH221737   6.358   4.403   4.738
 7258TIP3    H121738   6.440   4.450   4.719
 7258TIP3    H221739   6.385   4.328   4.790
 7259TIP3   OH221740   0.770   4.758   2.371
 7259TIP3    H121741   0.859   4.777   2.400
 7259TIP3    H221742   0.772   4.666   2.345
 7260TIP3   OH221743   3.603   2.359   2.998
 7260TIP3    H121744   3.523   2.412   2.994
 7260TIP3    H221745   3.600   2.305   2.920
 7261TIP3   OH221746   3.966   4.644   2.226
 7261TIP3    H121747   3.963   4.549   2.212
 7261TIP3    H221748   4.029   4.656   2.297
 7262TIP3   OH221749   1.321   5.611   2.265
 7262TIP3    H121750   1.334   5.667   2.189
 7262TIP3    H221751   1.234   5.635   2.298
 7263TIP3   OH221752   1.041   5.583   3.364
 7263TIP3    H121753   0.973   5.648   3.382
 7263TIP3    H221754   1.075   5.607   3.278
 7264TIP3   OH221755   1.826   5.261   4.364
 7264TIP3    H121756   1.870   5.181   4.336
 7264TIP3    H221757   1.840   5.323   4.292
 7265TIP3   OH221758   0.088   0.245   2.179
 7265TIP3    H121759   0.078   0.340   2.179
 7265TIP3    H221760   0.143   0.226   2.254
 7266TIP3   OH221761   6.687   3.532   3.175
 7266TIP3    H121762   6.642   3.534   3.260
 7266TIP3    H221763   6.695   3.438   3.155
 7267TIP3   OH221764   2.339   6.359   0.601
 7267TIP3    H121765   2.370   6.356   0.510
 7267TIP3    H221766   2.396   6.422   0.644
 7268TIP3   OH221767   4.511   2.881   4.725
 7268TIP3    H121768   4.556   2.935   4.790
 7268TIP3    H221769   4.565   2.887   4.647
 7269TIP3   OH221770   5.363   1.895   1.441
 7269TIP3    H121771   5.430   1.834   1.412
 7269TIP3    H221772   5.390   1.980   1.407
 7270TIP3   OH221773   4.005   3.571   1.895
 7270TIP3    H121774   4.036   3.614   1.975
 7270TIP3    H221775   4.019   3.478   1.911
 7271TIP3   OH221776   4.310   0.101   1.132
 7271TIP3    H121777   4.323   0.098   1.227
 7271TIP3    H221778   4.216   0.082   1.121
 7272TIP3   OH221779   4.869   2.670   3.766
 7272TIP3    H121780   4.887   2.696   3.675
 7272TIP3    H221781   4.795   2.610   3.759
 7273TIP3   OH221782   6.803   4.906   0.448
 7273TIP3    H121783   6.804   5.001   0.456
 7273TIP3    H221784   6.717   4.885   0.411
 7274TIP3   OH221785   2.068   6.365   4.961
 7274TIP3    H121786   2.047   6.304   5.031
 7274TIP3    H221787   2.024   6.330   4.883
 7275TIP3   OH221788   6.204   3.936   3.410
 7275TIP3    H121789   6.254   3.867   3.454
 7275TIP3    H221790   6.166   3.893   3.333
 7276TIP3   OH221791   4.638   5.787   5.020
 7276TIP3    H121792   4.728   5.810   4.998
 7276TIP3    H221793   4.617   5.714   4.962
 7277TIP3   OH221794   2.879   6.679   4.730
 7277TIP3    H121795   2.958   6.711   4.686
 7277TIP3    H221796   2.831   6.758   4.754
 7278TIP3   OH221797   2.104   4.798   5.665
 7278TIP3    H121798   2.104   4.886   5.702
 7278TIP3    H221799   2.152   4.745   5.729
 7279TIP3   OH221800   6.829   0.990   3.357
 7279TIP3    H121801   6.765   1.062   3.352
 7279TIP3    H221802   6.815   0.951   3.443
 7280TIP3   OH221803   1.063   5.159   5.588
 7280TIP3    H121804   1.146   5.112   5.593
 7280TIP3    H221805   1.041   5.160   5.495
 7281TIP3   OH221806   2.465   2.748   3.987
 7281TIP3    H121807   2.400   2.817   4.002
 7281TIP3    H221808   2.545   2.795   3.962
 7282TIP3   OH221809   5.186   0.796   2.218
 7282TIP3    H121810   5.235   0.830   2.143
 7282TIP3    H221811   5.140   0.719   2.184
 7283TIP3   OH221812   6.175   6.057   0.611
 7283TIP3    H121813   6.268   6.039   0.627
 7283TIP3    H221814   6.164   6.148   0.637
 7284TIP3   OH221815   2.931   2.127   2.151
 7284TIP3    H121816   2.981   2.081   2.218
 7284TIP3    H221817   2.915   2.214   2.187
 7285TIP3   OH221818   6.235   4.306   1.597
 7285TIP3    H121819   6.210   4.367   1.667
 7285TIP3    H221820   6.278   4.361   1.531
 7286TIP3   OH221821   4.494   6.547   0.375
 7286TIP3    H121822   4.522   6.465   0.334
 7286TIP3    H221823   4.399   6.545   0.371
 7287TIP3   OH221824   5.225   5.044   1.945
 7287TIP3    H121825   5.235   4.950   1.959
 7287TIP3    H221826   5.259   5.084   2.025
 7288TIP3   OH221827   4.702   1.893   0.686
 7288TIP3    H121828   4.611   1.872   0.707
 7288TIP3    H221829   4.711   1.871   0.593
 7289TIP3   OH221830   4.754   0.304   0.334
 7289TIP3    H121831   4.738   0.390   0.296
 7289TIP3    H221832   4.820   0.319   0.402
 7290TIP3   OH221833   5.000   3.255   4.487
 7290TIP3    H121834   4.930   3.311   4.455
 7290TIP3    H221835   4.996   3.177   4.432
 7291TIP3   OH221836   2.068   5.853   3.988
 7291TIP3    H121837   2.087   5.799   4.064
 7291TIP3    H221838   2.153   5.869   3.948
 7292TIP3   OH221839   2.098   1.927   1.288
 7292TIP3    H121840   2.127   2.010   1.251
 7292TIP3    H221841   2.004   1.926   1.272
 7293TIP3   OH221842   2.387   0.619   5.790
 7293TIP3    H121843   2.296   0.611   5.759
 7293TIP3    H221844   2.440   0.604   5.713
 7294TIP3   OH221845   4.196   3.978   0.834
 7294TIP3    H121846   4.186   3.897   0.884
 7294TIP3    H221847   4.271   3.961   0.777
 7295TIP3   OH221848   4.453   3.501   2.287
 7295TIP3    H121849   4.499   3.515   2.204
 7295TIP3    H221850   4.396   3.578   2.296
 7296TIP3   OH221851   4.829   1.568   0.046
 7296TIP3    H121852   4.811   1.614   0.128
 7296TIP3    H221853   4.893   1.623   0.001
 7297TIP3   OH221854   7.066   2.954   2.028
 7297TIP3    H121855   7.064   2.879   2.087
 7297TIP3    H221856   7.156   2.987   2.034
 7298TIP3   OH221857   4.019   6.118   0.764
 7298TIP3    H121858   3.977   6.129   0.850
 7298TIP3    H221859   3.948   6.087   0.707
 7299TIP3   OH221860   3.110   6.087   5.649
 7299TIP3    H121861   3.186   6.106   5.594
 7299TIP3    H221862   3.053   6.164   5.638
 7300TIP3   OH221863   4.838   6.502   2.465
 7300TIP3    H121864   4.746   6.485   2.447
 7300TIP3    H221865   4.877   6.520   2.380
 7301TIP3   OH221866   5.098   1.493   2.386
 7301TIP3    H121867   5.106   1.404   2.419
 7301TIP3    H221868   5.184   1.532   2.400
 7302TIP3   OH221869   5.682   1.124   0.539
 7302TIP3    H121870   5.643   1.150   0.622
 7302TIP3    H221871   5.607   1.106   0.482
 7303TIP3   OH221872   2.180   6.177   5.801
 7303TIP3    H121873   2.134   6.243   5.748
 7303TIP3    H221874   2.114   6.110   5.818
 7304TIP3   OH221875   3.607   1.619   1.776
 7304TIP3    H121876   3.651   1.536   1.760
 7304TIP3    H221877   3.583   1.651   1.690
 7305TIP3   OH221878   5.564   5.205   3.591
 7305TIP3    H121879   5.611   5.210   3.508
 7305TIP3    H221880   5.610   5.137   3.640
 7306TIP3   OH221881   0.783   2.283   1.179
 7306TIP3    H121882   0.772   2.268   1.085
 7306TIP3    H221883   0.711   2.343   1.202
 7307TIP3   OH221884   7.148   0.813   3.523
 7307TIP3    H121885   7.074   0.839   3.578
 7307TIP3    H221886   7.184   0.736   3.568
 7308TIP3   OH221887   6.408   5.260   0.690
 7308TIP3    H121888   6.461   5.181   0.697
 7308TIP3    H221889   6.336   5.236   0.631
 7309TIP3   OH221890   4.435   4.794   4.458
 7309TIP3    H121891   4.455   4.786   4.365
 7309TIP3    H221892   4.364   4.857   4.462
 7310TIP3   OH221893   0.680   6.155   2.982
 7310TIP3    H121894   0.749   6.119   2.926
 7310TIP3    H221895   0.670   6.246   2.953
 7311TIP3   OH221896   3.909   6.328   5.444
 7311TIP3    H121897   3.883   6.237   5.431
 7311TIP3    H221898   3.996   6.323   5.484
 7312TIP3   OH221899   1.605   2.909   3.875
 7312TIP3    H121900   1.645   2.968   3.938
 7312TIP3    H221901   1.623   2.949   3.790
 7313TIP3   OH221902   6.640   0.616   4.521
 7313TIP3    H121903   6.689   0.673   4.462
 7313TIP3    H221904   6.649   0.528   4.483
 7314TIP3   OH221905   2.270   3.664   5.837
 7314TIP3    H121906   2.254   3.626   5.750
 7314TIP3    H221907   2.250   3.592   5.898
 7315TIP3   OH221908   2.155   4.467   0.422
 7315TIP3    H121909   2.089   4.518   0.376
 7315TIP3    H221910   2.219   4.444   0.354
 7316TIP3   OH221911   4.882   6.280   2.955
 7316TIP3    H121912   4.907   6.189   2.973
 7316TIP3    H221913   4.790   6.276   2.931
 7317TIP3   OH221914   5.969   4.774   3.076
 7317TIP3    H121915   6.042   4.713   3.074
 7317TIP3    H221916   5.978   4.821   3.159
 7318TIP3   OH221917   2.792   2.793   1.043
 7318TIP3    H121918   2.767   2.704   1.066
 7318TIP3    H221919   2.755   2.808   0.956
 7319TIP3   OH221920   2.634   1.814   5.283
 7319TIP3    H121921   2.561   1.753   5.295
 7319TIP3    H221922   2.658   1.804   5.191
 7320TIP3   OH221923   7.141   4.503   4.997
 7320TIP3    H121924   7.217   4.455   5.028
 7320TIP3    H221925   7.086   4.438   4.954
 7321TIP3   OH221926   2.918   4.377   3.275
 7321TIP3    H121927   2.980   4.305   3.287
 7321TIP3    H221928   2.834   4.334   3.262
 7322TIP3   OH221929   3.063   1.834   3.068
 7322TIP3    H121930   2.992   1.800   3.014
 7322TIP3    H221931   3.095   1.911   3.022
 7323TIP3   OH221932   6.217   0.849   3.264
 7323TIP3    H121933   6.240   0.783   3.199
 7323TIP3    H221934   6.215   0.931   3.215
 7324TIP3   OH221935   3.972   5.618   4.030
 7324TIP3    H121936   4.049   5.668   4.005
 7324TIP3    H221937   3.903   5.683   4.039
 7325TIP3   OH221938   2.750   3.517   2.552
 7325TIP3    H121939   2.749   3.469   2.469
 7325TIP3    H221940   2.828   3.486   2.597
 7326TIP3   OH221941   5.386   2.576   4.227
 7326TIP3    H121942   5.372   2.483   4.213
 7326TIP3    H221943   5.458   2.581   4.291
 7327TIP3   OH221944   0.824   5.438   2.309
 7327TIP3    H121945   0.846   5.481   2.227
 7327TIP3    H221946   0.729   5.448   2.318
 7328TIP3   OH221947   2.202   2.620   0.395
 7328TIP3    H121948   2.264   2.575   0.337
 7328TIP3    H221949   2.119   2.575   0.380
 7329TIP3   OH221950   2.516   1.655   1.535
 7329TIP3    H121951   2.499   1.639   1.628
 7329TIP3    H221952   2.513   1.568   1.496
 7330TIP3   OH221953   6.891   3.844   1.606
 7330TIP3    H121954   6.839   3.808   1.679
 7330TIP3    H221955   6.933   3.921   1.643
 7331TIP3   OH221956   1.237   4.322   3.148
 7331TIP3    H121957   1.155   4.370   3.161
 7331TIP3    H221958   1.305   4.389   3.148
 7332TIP3   OH221959   1.672   2.164   0.331
 7332TIP3    H121960   1.589   2.207   0.353
 7332TIP3    H221961   1.669   2.154   0.236
 7333TIP3   OH221962   2.510   6.199   4.820
 7333TIP3    H121963   2.574   6.269   4.836
 7333TIP3    H221964   2.557   6.136   4.766
 7334TIP3   OH221965   3.924   0.224   2.080
 7334TIP3    H121966   3.893   0.294   2.138
 7334TIP3    H221967   4.019   0.223   2.094
 7335TIP3   OH221968   0.391   0.932   0.452
 7335TIP3    H121969   0.463   0.893   0.402
 7335TIP3    H221970   0.416   0.918   0.543
 7336TIP3   OH221971   6.149   2.520   3.391
 7336TIP3    H121972   6.084   2.583   3.423
 7336TIP3    H221973   6.145   2.448   3.453
 7337TIP3   OH221974   3.272   5.945   2.599
 7337TIP3    H121975   3.280   6.038   2.620
 7337TIP3    H221976   3.363   5.915   2.592
 7338TIP3   OH221977   4.389   0.387   1.185
 7338TIP3    H121978   4.372   0.361   1.275
 7338TIP3    H221979   4.327   0.335   1.133
 7339TIP3   OH221980   3.317   0.750   4.810
 7339TIP3    H121981   3.317   0.806   4.732
 7339TIP3    H221982   3.258   0.678   4.788
 7340TIP3   OH221983   0.702   4.411   3.950
 7340TIP3    H121984   0.793   4.436   3.963
 7340TIP3    H221985   0.705   4.343   3.883
 7341TIP3   OH221986   3.750   3.234   1.727
 7341TIP3    H121987   3.841   3.264   1.720
 7341TIP3    H221988   3.711   3.289   1.795
 7342TIP3   OH221989   1.279   4.101   4.592
 7342TIP3    H121990   1.272   4.055   4.508
 7342TIP3    H221991   1.202   4.157   4.595
 7343TIP3   OH221992   6.103   6.179   3.031
 7343TIP3    H121993   6.165   6.184   3.104
 7343TIP3    H221994   6.058   6.263   3.031
 7344TIP3   OH221995   1.777   5.170   5.419
 7344TIP3    H121996   1.732   5.086   5.428
 7344TIP3    H221997   1.707   5.233   5.403
 7345TIP3   OH221998   6.287   1.686   1.628
 7345TIP3    H121999   6.194   1.692   1.648
 7345TIP3    H222000   6.295   1.606   1.575
 7346TIP3   OH222001   1.306   1.772   1.401
 7346TIP3    H122002   1.325   1.806   1.313
 7346TIP3    H222003   1.320   1.847   1.458
 7347TIP3   OH222004  -0.013   0.601   3.704
 7347TIP3    H122005  -0.052   0.605   3.791
 7347TIP3    H222006   0.076   0.570   3.719
 7348TIP3   OH222007   5.580   3.921   3.600
 7348TIP3    H122008   5.493   3.914   3.641
 7348TIP3    H222009   5.626   3.841   3.627
 7349TIP3   OH222010   4.250   0.206   3.187
 7349TIP3    H122011   4.212   0.176   3.270
 7349TIP3    H222012   4.209   0.150   3.121
 7350TIP3   OH222013   0.175   2.443   0.604
 7350TIP3    H122014   0.207   2.505   0.539
 7350TIP3    H222015   0.213   2.359   0.578
 7351TIP3   OH222016   0.309   4.402   4.421
 7351TIP3    H122017   0.264   4.363   4.497
 7351TIP3    H222018   0.265   4.364   4.345
 7352TIP3   OH222019   5.066   1.655   4.556
 7352TIP3    H122020   5.022   1.571   4.566
 7352TIP3    H222021   5.003   1.709   4.509
 7353TIP3   OH222022   5.068   6.659   5.041
 7353TIP3    H122023   5.049   6.753   5.042
 7353TIP3    H222024   5.023   6.625   5.118
 7354TIP3   OH222025   1.905   4.981   4.674
 7354TIP3    H122026   1.994   5.016   4.679
 7354TIP3    H222027   1.852   5.054   4.641
 7355TIP3   OH222028   3.366   6.354   5.036
 7355TIP3    H122029   3.461   6.361   5.034
 7355TIP3    H222030   3.346   6.287   4.970
 7356TIP3   OH222031   3.248   1.664   2.828
 7356TIP3    H122032   3.266   1.733   2.764
 7356TIP3    H222033   3.307   1.683   2.901
 7357TIP3   OH222034   6.089   2.928   2.959
 7357TIP3    H122035   6.013   2.894   3.006
 7357TIP3    H222036   6.153   2.948   3.027
 7358TIP3   OH222037   2.037   5.581   3.857
 7358TIP3    H122038   2.028   5.675   3.846
 7358TIP3    H222039   2.003   5.564   3.945
 7359TIP3   OH222040   2.984   5.943   5.055
 7359TIP3    H122041   3.033   5.980   5.129
 7359TIP3    H222042   3.012   5.851   5.052
 7360TIP3   OH222043   5.446   5.447   4.805
 7360TIP3    H122044   5.528   5.437   4.758
 7360TIP3    H222045   5.378   5.442   4.738
 7361TIP3   OH222046   6.974   5.257   5.434
 7361TIP3    H122047   6.902   5.289   5.380
 7361TIP3    H222048   6.960   5.163   5.441
 7362TIP3   OH222049   0.708   5.169   4.571
 7362TIP3    H122050   0.796   5.139   4.590
 7362TIP3    H222051   0.678   5.210   4.652
 7363TIP3   OH222052   6.804   5.607   5.852
 7363TIP3    H122053   6.805   5.695   5.814
 7363TIP3    H222054   6.716   5.597   5.887
 7364TIP3   OH222055   6.068   0.946   2.563
 7364TIP3    H122056   6.007   1.020   2.566
 7364TIP3    H222057   6.037   0.893   2.489
 7365TIP3   OH222058   6.968   1.976   0.704
 7365TIP3    H122059   6.892   2.031   0.686
 7365TIP3    H222060   6.938   1.912   0.769
 7366TIP3   OH222061   1.642   2.511   3.407
 7366TIP3    H122062   1.595   2.520   3.324
 7366TIP3    H222063   1.642   2.417   3.425
 7367TIP3   OH222064   0.382   1.365   4.614
 7367TIP3    H122065   0.296   1.402   4.631
 7367TIP3    H222066   0.379   1.278   4.655
 7368TIP3   OH222067   3.272   0.049   2.645
 7368TIP3    H122068   3.282   0.098   2.563
 7368TIP3    H222069   3.339   0.086   2.703
 7369TIP3   OH222070   1.773   4.454   4.116
 7369TIP3    H122071   1.760   4.512   4.190
 7369TIP3    H222072   1.800   4.371   4.155
 7370TIP3   OH222073   1.088   4.002   1.565
 7370TIP3    H122074   1.103   3.967   1.652
 7370TIP3    H222075   1.001   4.040   1.569
 7371TIP3   OH222076   0.448   4.923   1.075
 7371TIP3    H122077   0.435   4.833   1.106
 7371TIP3    H222078   0.404   4.926   0.990
 7372TIP3   OH222079   1.539   6.088   5.327
 7372TIP3    H122080   1.624   6.058   5.296
 7372TIP3    H222081   1.557   6.121   5.415
 7373TIP3   OH222082   0.127   3.041   1.754
 7373TIP3    H122083   0.052   2.987   1.781
 7373TIP3    H222084   0.165   2.993   1.680
 7374TIP3   OH222085   1.973   6.504   5.267
 7374TIP3    H122086   2.055   6.456   5.280
 7374TIP3    H222087   1.987   6.554   5.187
 7375TIP3   OH222088   5.512   2.367   1.920
 7375TIP3    H122089   5.582   2.391   1.860
 7375TIP3    H222090   5.498   2.445   1.974
 7376TIP3   OH222091   6.158   0.203   3.962
 7376TIP3    H122092   6.147   0.288   3.920
 7376TIP3    H222093   6.203   0.222   4.044
 7377TIP3   OH222094   5.160   0.725   3.054
 7377TIP3    H122095   5.102   0.725   3.130
 7377TIP3    H222096   5.242   0.687   3.085
 7378TIP3   OH222097   4.563   3.001   1.312
 7378TIP3    H122098   4.535   3.080   1.266
 7378TIP3    H222099   4.483   2.964   1.347
 7379TIP3   OH222100   0.545   5.125   0.578
 7379TIP3    H122101   0.525   5.040   0.537
 7379TIP3    H222102   0.638   5.139   0.559
 7380TIP3   OH222103   3.145   4.904   0.293
 7380TIP3    H122104   3.058   4.902   0.333
 7380TIP3    H222105   3.192   4.832   0.335
 7381TIP3   OH222106   4.572   4.218   1.804
 7381TIP3    H122107   4.514   4.286   1.769
 7381TIP3    H222108   4.574   4.234   1.898
 7382TIP3   OH222109   2.629   6.011   0.561
 7382TIP3    H122110   2.706   6.061   0.535
 7382TIP3    H222111   2.606   6.046   0.647
 7383TIP3   OH222112   6.449   2.199   3.630
 7383TIP3    H122113   6.418   2.290   3.622
 7383TIP3    H222114   6.442   2.179   3.723
 7384TIP3   OH222115   6.535   3.065   4.835
 7384TIP3    H122116   6.456   3.033   4.792
 7384TIP3    H222117   6.504   3.121   4.905
 7385TIP3   OH222118   6.134   4.520   5.001
 7385TIP3    H122119   6.043   4.490   5.002
 7385TIP3    H222120   6.182   4.450   4.957
 7386TIP3   OH222121   6.352   5.860   1.518
 7386TIP3    H122122   6.403   5.820   1.589
 7386TIP3    H222123   6.262   5.833   1.534
 7387TIP3   OH222124   3.969   0.990   5.614
 7387TIP3    H122125   4.009   0.903   5.615
 7387TIP3    H222126   3.963   1.015   5.706
 7388TIP3   OH222127   4.239   6.393   3.466
 7388TIP3    H122128   4.306   6.326   3.475
 7388TIP3    H222129   4.158   6.349   3.491
 7389TIP3   OH222130   5.563   4.274   0.497
 7389TIP3    H122131   5.553   4.280   0.592
 7389TIP3    H222132   5.548   4.363   0.466
 7390TIP3   OH222133   4.227   1.021   1.177
 7390TIP3    H122134   4.175   1.062   1.108
 7390TIP3    H222135   4.188   1.052   1.258
 7391TIP3   OH222136   3.947   4.523   0.706
 7391TIP3    H122137   3.967   4.430   0.695
 7391TIP3    H222138   4.032   4.565   0.709
 7392TIP3   OH222139   2.458   5.549   5.495
 7392TIP3    H122140   2.528   5.568   5.558
 7392TIP3    H222141   2.430   5.460   5.516
 7393TIP3   OH222142   0.547   0.404   0.804
 7393TIP3    H122143   0.615   0.450   0.754
 7393TIP3    H222144   0.515   0.469   0.867
 7394TIP3   OH222145   1.393   0.612   0.358
 7394TIP3    H122146   1.432   0.688   0.401
 7394TIP3    H222147   1.437   0.537   0.398
 7395TIP3   OH222148   5.742   0.192   5.778
 7395TIP3    H122149   5.779   0.132   5.843
 7395TIP3    H222150   5.815   0.249   5.755
 7396TIP3   OH222151   2.500   6.050   5.189
 7396TIP3    H122152   2.426   6.060   5.129
 7396TIP3    H222153   2.473   6.097   5.268
 7397TIP3   OH222154   2.999   2.194   1.408
 7397TIP3    H122155   3.032   2.196   1.498
 7397TIP3    H222156   2.956   2.109   1.400
 7398TIP3   OH222157   4.831   5.131   0.900
 7398TIP3    H122158   4.764   5.074   0.862
 7398TIP3    H222159   4.889   5.152   0.826
 7399TIP3   OH222160   4.966   4.451   4.970
 7399TIP3    H122161   4.926   4.520   5.023
 7399TIP3    H222162   4.892   4.402   4.935
 7400TIP3   OH222163   4.719   6.277   5.012
 7400TIP3    H122164   4.693   6.301   5.101
 7400TIP3    H222165   4.752   6.358   4.974
 7401TIP3   OH222166   7.173   1.390   4.196
 7401TIP3    H122167   7.231   1.316   4.212
 7401TIP3    H222168   7.226   1.467   4.215
 7402TIP3   OH222169   1.790   2.763   1.786
 7402TIP3    H122170   1.753   2.851   1.784
 7402TIP3    H222171   1.885   2.777   1.791
 7403TIP3   OH222172   6.801   0.832   3.038
 7403TIP3    H122173   6.884   0.819   3.085
 7403TIP3    H222174   6.759   0.746   3.042
 7404TIP3   OH222175   1.402   3.184   5.860
 7404TIP3    H122176   1.369   3.215   5.775
 7404TIP3    H222177   1.359   3.240   5.924
 7405TIP3   OH222178   3.886   3.281   3.537
 7405TIP3    H122179   3.889   3.223   3.460
 7405TIP3    H222180   3.931   3.231   3.605
 7406TIP3   OH222181   2.745   0.981   2.463
 7406TIP3    H122182   2.816   0.922   2.488
 7406TIP3    H222183   2.708   0.943   2.384
 7407TIP3   OH222184   6.472   3.714   0.164
 7407TIP3    H122185   6.496   3.647   0.228
 7407TIP3    H222186   6.429   3.666   0.093
 7408TIP3   OH222187   2.952   0.531   2.709
 7408TIP3    H122188   2.858   0.542   2.725
 7408TIP3    H222189   2.980   0.614   2.670
 7409TIP3   OH222190   4.482   4.015   5.060
 7409TIP3    H122191   4.412   4.047   5.003
 7409TIP3    H222192   4.478   3.919   5.052
 7410TIP3   OH222193   4.677   0.596   4.760
 7410TIP3    H122194   4.738   0.639   4.700
 7410TIP3    H222195   4.602   0.573   4.705
 7411TIP3   OH222196   3.262   1.742   3.222
 7411TIP3    H122197   3.196   1.771   3.159
 7411TIP3    H222198   3.345   1.749   3.175
 7412TIP3   OH222199   1.019   3.277   2.843
 7412TIP3    H122200   1.066   3.292   2.761
 7412TIP3    H222201   1.043   3.351   2.898
 7413TIP3   OH222202   3.733   2.748   1.601
 7413TIP3    H122203   3.767   2.813   1.540
 7413TIP3    H222204   3.811   2.712   1.643
 7414TIP3   OH222205   0.481   1.317   2.507
 7414TIP3    H122206   0.536   1.376   2.455
 7414TIP3    H222207   0.413   1.373   2.543
 7415TIP3   OH222208   5.798   3.238   2.277
 7415TIP3    H122209   5.767   3.159   2.320
 7415TIP3    H222210   5.730   3.261   2.215
 7416TIP3   OH222211   6.407   5.382   3.550
 7416TIP3    H122212   6.333   5.342   3.504
 7416TIP3    H222213   6.447   5.310   3.598
 7417TIP3   OH222214   5.111   1.564   0.266
 7417TIP3    H122215   5.030   1.524   0.298
 7417TIP3    H222216   5.176   1.544   0.333
 7418TIP3   OH222217   3.711   1.986   2.124
 7418TIP3    H122218   3.762   1.936   2.061
 7418TIP3    H222219   3.769   1.995   2.200
 7419TIP3   OH222220   5.987   2.031   0.191
 7419TIP3    H122221   5.924   2.088   0.235
 7419TIP3    H222222   5.937   1.952   0.171
 7420TIP3   OH222223   4.836   4.868   0.471
 7420TIP3    H122224   4.818   4.958   0.495
 7420TIP3    H222225   4.868   4.873   0.380
 7421TIP3   OH222226   1.684   1.116   0.118
 7421TIP3    H122227   1.773   1.119   0.081
 7421TIP3    H222228   1.686   1.043   0.179
 7422TIP3   OH222229   2.551   3.273   2.512
 7422TIP3    H122230   2.584   3.279   2.422
 7422TIP3    H222231   2.458   3.253   2.502
 7423TIP3   OH222232   6.205   2.176   0.265
 7423TIP3    H122233   6.124   2.126   0.253
 7423TIP3    H222234   6.259   2.152   0.190
 7424TIP3   OH222235   4.932   6.257   2.330
 7424TIP3    H122236   4.895   6.233   2.245
 7424TIP3    H222237   4.960   6.347   2.319
 7425TIP3   OH222238   6.729   5.018   5.019
 7425TIP3    H122239   6.687   5.007   5.104
 7425TIP3    H222240   6.820   5.039   5.040
 7426TIP3   OH222241   2.591   2.010   5.464
 7426TIP3    H122242   2.601   1.954   5.387
 7426TIP3    H222243   2.497   2.027   5.470
 7427TIP3   OH222244   2.149   3.545   5.588
 7427TIP3    H122245   2.094   3.608   5.542
 7427TIP3    H222246   2.174   3.481   5.521
 7428TIP3   OH222247   5.869   5.119   5.571
 7428TIP3    H122248   5.820   5.100   5.490
 7428TIP3    H222249   5.828   5.063   5.637
 7429TIP3   OH222250   7.024   1.457   0.288
 7429TIP3    H122251   6.933   1.449   0.260
 7429TIP3    H222252   7.047   1.548   0.269
 7430TIP3   OH222253   5.851   1.507   3.088
 7430TIP3    H122254   5.929   1.519   3.035
 7430TIP3    H222255   5.850   1.413   3.108
 7431TIP3   OH222256   6.276   3.253   4.971
 7431TIP3    H122257   6.237   3.336   4.944
 7431TIP3    H222258   6.248   3.190   4.905
 7432TIP3   OH222259   0.673   6.561   3.857
 7432TIP3    H122260   0.700   6.543   3.947
 7432TIP3    H222261   0.600   6.500   3.842
 7433TIP3   OH222262   2.444   2.764   0.191
 7433TIP3    H122263   2.527   2.732   0.154
 7433TIP3    H222264   2.397   2.684   0.216
 7434TIP3   OH222265   0.235   1.122   5.815
 7434TIP3    H122266   0.148   1.159   5.831
 7434TIP3    H222267   0.277   1.186   5.758
 7435TIP3   OH222268   5.844   0.631   4.959
 7435TIP3    H122269   5.868   0.566   4.893
 7435TIP3    H222270   5.765   0.597   5.000
 7436TIP3   OH222271   6.635   4.203   3.893
 7436TIP3    H122272   6.548   4.171   3.919
 7436TIP3    H222273   6.695   4.162   3.955
 7437TIP3   OH222274   0.636   0.708   4.493
 7437TIP3    H122275   0.704   0.739   4.552
 7437TIP3    H222276   0.675   0.633   4.449
 7438TIP3   OH222277   2.968   3.794   1.353
 7438TIP3    H122278   2.901   3.846   1.309
 7438TIP3    H222279   2.921   3.751   1.425
 7439TIP3   OH222280   1.450   4.178   2.034
 7439TIP3    H122281   1.421   4.087   2.044
 7439TIP3    H222282   1.546   4.173   2.042
 7440TIP3   OH222283   4.888   3.010   2.555
 7440TIP3    H122284   4.931   3.067   2.491
 7440TIP3    H222285   4.804   3.052   2.572
 7441TIP3   OH222286   3.769   0.407   0.110
 7441TIP3    H122287   3.840   0.466   0.138
 7441TIP3    H222288   3.732   0.450   0.032
 7442TIP3   OH222289   5.489   0.805   3.556
 7442TIP3    H122290   5.436   0.883   3.575
 7442TIP3    H222291   5.483   0.752   3.636
 7443TIP3   OH222292   2.518   0.809   5.554
 7443TIP3    H122293   2.431   0.797   5.593
 7443TIP3    H222294   2.529   0.903   5.547
 7444TIP3   OH222295   3.202   6.037   2.173
 7444TIP3    H122296   3.281   6.073   2.213
 7444TIP3    H222297   3.174   5.968   2.233
 7445TIP3   OH222298   4.384   0.574  -0.045
 7445TIP3    H122299   4.402   0.481  -0.029
 7445TIP3    H222300   4.446   0.620   0.012
 7446TIP3   OH222301   6.979   3.145   5.421
 7446TIP3    H122302   6.991   3.196   5.501
 7446TIP3    H222303   7.063   3.102   5.407
 7447TIP3   OH222304   3.742   0.866   4.649
 7447TIP3    H122305   3.723   0.825   4.564
 7447TIP3    H222306   3.687   0.818   4.711
 7448TIP3   OH222307   7.220   5.704   4.253
 7448TIP3    H122308   7.139   5.654   4.247
 7448TIP3    H222309   7.285   5.651   4.206
 7449TIP3   OH222310   3.072   2.622   2.600
 7449TIP3    H122311   3.047   2.699   2.652
 7449TIP3    H222312   3.166   2.632   2.585
 7450TIP3   OH222313   5.175   5.688   3.729
 7450TIP3    H122314   5.156   5.707   3.820
 7450TIP3    H222315   5.092   5.656   3.693
 7451TIP3   OH222316   4.711   3.932   0.258
 7451TIP3    H122317   4.795   3.908   0.297
 7451TIP3    H222318   4.701   3.873   0.183
 7452TIP3   OH222319   3.828   3.828   5.415
 7452TIP3    H122320   3.761   3.847   5.349
 7452TIP3    H222321   3.878   3.756   5.377
 7453TIP3   OH222322   1.296   5.003   5.577
 7453TIP3    H122323   1.257   4.916   5.588
 7453TIP3    H222324   1.386   4.991   5.606
 7454TIP3   OH222325   6.740   5.918   4.670
 7454TIP3    H122326   6.749   5.997   4.723
 7454TIP3    H222327   6.731   5.847   4.734
 7455TIP3   OH222328   1.668   1.141   0.819
 7455TIP3    H122329   1.749   1.135   0.870
 7455TIP3    H222330   1.695   1.174   0.734
 7456TIP3   OH222331   1.840   4.111   0.159
 7456TIP3    H122332   1.936   4.118   0.153
 7456TIP3    H222333   1.808   4.181   0.102
 7457TIP3   OH222334   2.681   1.935   5.853
 7457TIP3    H122335   2.708   1.944   5.762
 7457TIP3    H222336   2.658   1.842   5.862
 7458TIP3   OH222337   0.097   4.137   1.809
 7458TIP3    H122338   0.057   4.216   1.774
 7458TIP3    H222339   0.191   4.151   1.796
 7459TIP3   OH222340   6.379   2.414   1.910
 7459TIP3    H122341   6.333   2.484   1.863
 7459TIP3    H222342   6.318   2.341   1.911
 7460TIP3   OH222343   1.147   4.510   0.326
 7460TIP3    H122344   1.085   4.530   0.256
 7460TIP3    H222345   1.233   4.521   0.286
 7461TIP3   OH222346   3.536   2.231   2.768
 7461TIP3    H122347   3.464   2.295   2.769
 7461TIP3    H222348   3.559   2.223   2.676
 7462TIP3   OH222349   4.650   4.163   4.302
 7462TIP3    H122350   4.565   4.119   4.304
 7462TIP3    H222351   4.709   4.104   4.348
 7463TIP3   OH222352   0.556   6.780   0.633
 7463TIP3    H122353   0.556   6.686   0.614
 7463TIP3    H222354   0.646   6.800   0.658
 7464TIP3   OH222355   0.189   3.770   2.670
 7464TIP3    H122356   0.169   3.844   2.613
 7464TIP3    H222357   0.156   3.694   2.622
 7465TIP3   OH222358   1.954   0.794   5.459
 7465TIP3    H122359   1.952   0.887   5.479
 7465TIP3    H222360   1.899   0.753   5.526
 7466TIP3   OH222361   4.769   4.808   4.593
 7466TIP3    H122362   4.685   4.847   4.616
 7466TIP3    H222363   4.798   4.856   4.516
 7467TIP3   OH222364   1.094   2.408   2.238
 7467TIP3    H122365   1.017   2.366   2.275
 7467TIP3    H222366   1.069   2.433   2.149
 7468TIP3   OH222367   0.627   4.425   5.496
 7468TIP3    H122368   0.706   4.453   5.449
 7468TIP3    H222369   0.558   4.482   5.462
 7469TIP3   OH222370   6.930   2.260   4.862
 7469TIP3    H122371   6.876   2.243   4.940
 7469TIP3    H222372   6.985   2.334   4.887
 7470TIP3   OH222373   6.788   2.778   2.921
 7470TIP3    H122374   6.708   2.820   2.890
 7470TIP3    H222375   6.835   2.848   2.966
 7471TIP3   OH222376   0.015   4.854   0.819
 7471TIP3    H122377   0.096   4.898   0.846
 7471TIP3    H222378  -0.019   4.909   0.748
 7472TIP3   OH222379  -0.019   4.098   5.250
 7472TIP3    H122380   0.035   4.110   5.328
 7472TIP3    H222381   0.040   4.118   5.177
 7473TIP3   OH222382   6.153   0.462   3.637
 7473TIP3    H122383   6.172   0.424   3.723
 7473TIP3    H222384   6.138   0.555   3.654
 7474TIP3   OH222385   3.027   2.300   5.488
 7474TIP3    H122386   2.996   2.299   5.578
 7474TIP3    H222387   3.049   2.209   5.468
 7475TIP3   OH222388   2.284   5.465   4.407
 7475TIP3    H122389   2.325   5.386   4.372
 7475TIP3    H222390   2.344   5.535   4.384
 7476TIP3   OH222391   5.538   2.110   3.688
 7476TIP3    H122392   5.604   2.124   3.756
 7476TIP3    H222393   5.475   2.181   3.701
 7477TIP3   OH222394   1.232   4.159   1.396
 7477TIP3    H122395   1.309   4.201   1.432
 7477TIP3    H222396   1.190   4.116   1.470
 7478TIP3   OH222397   2.947   1.681   0.572
 7478TIP3    H122398   2.898   1.619   0.518
 7478TIP3    H222399   2.920   1.767   0.539
 7479TIP3   OH222400   3.404   3.637   3.300
 7479TIP3    H122401   3.364   3.553   3.324
 7479TIP3    H222402   3.333   3.687   3.260
 7480TIP3   OH222403   2.383   4.061   3.079
 7480TIP3    H122404   2.404   4.140   3.029
 7480TIP3    H222405   2.465   4.011   3.078
 7481TIP3   OH222406   5.690   4.352   4.586
 7481TIP3    H122407   5.656   4.297   4.657
 7481TIP3    H222408   5.764   4.399   4.625
 7482TIP3   OH222409   5.226   6.371   4.136
 7482TIP3    H122410   5.299   6.312   4.156
 7482TIP3    H222411   5.183   6.386   4.220
 7483TIP3   OH222412   1.370   5.515   5.418
 7483TIP3    H122413   1.369   5.596   5.368
 7483TIP3    H222414   1.412   5.538   5.501
 7484TIP3   OH222415   1.295   6.185   3.007
 7484TIP3    H122416   1.202   6.207   3.011
 7484TIP3    H222417   1.301   6.121   2.936
 7485TIP3   OH222418   0.797   4.856   3.266
 7485TIP3    H122419   0.843   4.822   3.343
 7485TIP3    H222420   0.865   4.899   3.215
 7486TIP3   OH222421   1.489   1.580   1.887
 7486TIP3    H122422   1.506   1.496   1.929
 7486TIP3    H222423   1.445   1.557   1.805
 7487TIP3   OH222424   6.973   1.431   2.148
 7487TIP3    H122425   6.884   1.425   2.112
 7487TIP3    H222426   6.985   1.524   2.166
 7488TIP3   OH222427   1.720   6.522   0.430
 7488TIP3    H122428   1.758   6.608   0.415
 7488TIP3    H222429   1.654   6.512   0.362
 7489TIP3   OH222430   5.320   0.122   2.147
 7489TIP3    H122431   5.401   0.121   2.095
 7489TIP3    H222432   5.331   0.196   2.206
 7490TIP3   OH222433   6.923   0.514   0.100
 7490TIP3    H122434   6.955   0.450   0.037
 7490TIP3    H222435   6.836   0.483   0.124
 7491TIP3   OH222436   2.690   1.960   1.341
 7491TIP3    H122437   2.608   2.008   1.335
 7491TIP3    H222438   2.736   1.980   1.259
 7492TIP3   OH222439   6.949   5.971   1.446
 7492TIP3    H122440   6.971   5.881   1.425
 7492TIP3    H222441   6.856   5.980   1.423
 7493TIP3   OH222442   7.098   3.640   4.573
 7493TIP3    H122443   7.116   3.582   4.647
 7493TIP3    H222444   7.178   3.692   4.564
 7494TIP3   OH222445   6.058   1.843   3.976
 7494TIP3    H122446   5.990   1.810   3.918
 7494TIP3    H222447   6.085   1.768   4.027
 7495TIP3   OH222448   1.459   1.501   5.218
 7495TIP3    H122449   1.497   1.512   5.305
 7495TIP3    H222450   1.384   1.443   5.232
 7496TIP3   OH222451   6.007   6.580   2.246
 7496TIP3    H122452   5.925   6.554   2.203
 7496TIP3    H222453   5.993   6.560   2.339
 7497TIP3   OH222454   4.600   3.601   0.160
 7497TIP3    H122455   4.667   3.662   0.127
 7497TIP3    H222456   4.517   3.641   0.133
 7498TIP3   OH222457   6.358   1.421   0.566
 7498TIP3    H122458   6.319   1.425   0.478
 7498TIP3    H222459   6.306   1.356   0.613
 7499TIP3   OH222460   0.307   4.482   0.039
 7499TIP3    H122461   0.291   4.463   0.132
 7499TIP3    H222462   0.219   4.497   0.003
 7500TIP3   OH222463   5.055   3.524   3.539
 7500TIP3    H122464   4.993   3.456   3.516
 7500TIP3    H222465   5.068   3.574   3.458
 7501TIP3   OH222466   4.226   2.956   5.837
 7501TIP3    H122467   4.171   2.878   5.834
 7501TIP3    H222468   4.255   2.969   5.747
 7502TIP3   OH222469   5.614   1.978   4.596
 7502TIP3    H122470   5.575   2.042   4.655
 7502TIP3    H222471   5.660   1.917   4.654
 7503TIP3   OH222472   4.119   5.633   3.032
 7503TIP3    H122473   4.204   5.642   3.076
 7503TIP3    H222474   4.125   5.548   2.988
 7504TIP3   OH222475   5.188   3.019   3.491
 7504TIP3    H122476   5.140   2.987   3.414
 7504TIP3    H222477   5.226   2.941   3.530
 7505TIP3   OH222478   2.963   0.210   1.155
 7505TIP3    H122479   2.927   0.253   1.078
 7505TIP3    H222480   3.043   0.167   1.124
 7506TIP3   OH222481   2.080   2.455   3.562
 7506TIP3    H122482   2.133   2.498   3.495
 7506TIP3    H222483   2.138   2.389   3.600
 7507TIP3   OH222484   4.870   1.431   3.528
 7507TIP3    H122485   4.832   1.502   3.477
 7507TIP3    H222486   4.826   1.437   3.613
 7508TIP3   OH222487   4.906   0.394   4.821
 7508TIP3    H122488   4.860   0.350   4.894
 7508TIP3    H222489   4.947   0.470   4.861
 7509TIP3   OH222490   0.846   6.825   0.669
 7509TIP3    H122491   0.898   6.850   0.593
 7509TIP3    H222492   0.856   6.730   0.675
 7510TIP3   OH222493   6.382   3.757   4.416
 7510TIP3    H122494   6.322   3.830   4.431
 7510TIP3    H222495   6.462   3.799   4.383
 7511TIP3   OH222496   1.527   1.922   3.148
 7511TIP3    H122497   1.452   1.971   3.114
 7511TIP3    H222498   1.583   1.989   3.189
 7512TIP3   OH222499   5.025   5.226   4.686
 7512TIP3    H122500   5.084   5.220   4.762
 7512TIP3    H222501   4.938   5.232   4.725
 7513TIP3   OH222502   4.141   2.229   1.744
 7513TIP3    H122503   4.076   2.203   1.810
 7513TIP3    H222504   4.119   2.178   1.667
 7514TIP3   OH222505   5.767   5.235   4.807
 7514TIP3    H122506   5.719   5.248   4.889
 7514TIP3    H222507   5.753   5.316   4.758
 7515TIP3   OH222508   6.771   1.816   2.257
 7515TIP3    H122509   6.819   1.869   2.321
 7515TIP3    H222510   6.840   1.767   2.212
 7516TIP3   OH222511   3.653   4.366   5.011
 7516TIP3    H122512   3.603   4.327   5.083
 7516TIP3    H222513   3.741   4.379   5.047
 7517TIP3   OH222514   2.757   3.853   2.385
 7517TIP3    H122515   2.787   3.902   2.462
 7517TIP3    H222516   2.771   3.914   2.312
 7518TIP3   OH222517   6.153   5.031   1.228
 7518TIP3    H122518   6.103   4.949   1.226
 7518TIP3    H222519   6.236   5.009   1.270
 7519TIP3   OH222520   0.591   6.551   5.176
 7519TIP3    H122521   0.555   6.494   5.244
 7519TIP3    H222522   0.523   6.553   5.108
 7520TIP3   OH222523   1.566   2.213   2.969
 7520TIP3    H122524   1.635   2.154   2.941
 7520TIP3    H222525   1.490   2.156   2.983
 7521TIP3   OH222526   2.189   5.036   2.480
 7521TIP3    H122527   2.237   5.111   2.445
 7521TIP3    H222528   2.249   4.994   2.541
 7522TIP3   OH222529   1.586   3.237   0.970
 7522TIP3    H122530   1.537   3.302   0.920
 7522TIP3    H222531   1.618   3.175   0.905
 7523TIP3   OH222532   2.410   4.088   0.130
 7523TIP3    H122533   2.416   4.130   0.216
 7523TIP3    H222534   2.369   4.003   0.148
 7524TIP3   OH222535   5.431   0.562   3.725
 7524TIP3    H122536   5.391   0.647   3.740
 7524TIP3    H222537   5.388   0.504   3.788
 7525TIP3   OH222538   6.084   4.870   0.549
 7525TIP3    H122539   5.998   4.838   0.523
 7525TIP3    H222540   6.077   4.883   0.644
 7526TIP3   OH222541   2.331   3.699   0.892
 7526TIP3    H122542   2.250   3.709   0.842
 7526TIP3    H222543   2.334   3.777   0.948
 7527TIP3   OH222544   4.307   3.741   2.256
 7527TIP3    H122545   4.269   3.819   2.214
 7527TIP3    H222546   4.241   3.714   2.320
 7528TIP3   OH222547   6.154   3.613   2.011
 7528TIP3    H122548   6.170   3.526   1.975
 7528TIP3    H222549   6.135   3.668   1.935
 7529TIP3   OH222550   4.460   5.400   0.397
 7529TIP3    H122551   4.510   5.411   0.477
 7529TIP3    H222552   4.524   5.414   0.327
 7530TIP3   OH222553   6.999   4.928   3.788
 7530TIP3    H122554   6.985   5.023   3.780
 7530TIP3    H222555   7.056   4.918   3.864
 7531TIP3   OH222556   4.086   5.366   3.704
 7531TIP3    H122557   4.075   5.461   3.692
 7531TIP3    H222558   4.158   5.359   3.767
 7532TIP3   OH222559   3.540   3.972   2.302
 7532TIP3    H122560   3.601   4.007   2.237
 7532TIP3    H222561   3.532   4.042   2.367
 7533TIP3   OH222562   5.499   0.047   4.570
 7533TIP3    H122563   5.527   0.036   4.479
 7533TIP3    H222564   5.522   0.138   4.592
 7534TIP3   OH222565   3.008   6.744   1.358
 7534TIP3    H122566   3.047   6.680   1.417
 7534TIP3    H222567   2.949   6.692   1.303
 7535TIP3   OH222568   2.470   3.888   3.518
 7535TIP3    H122569   2.400   3.823   3.505
 7535TIP3    H222570   2.517   3.857   3.595
 7536TIP3   OH222571   4.036   2.152   5.791
 7536TIP3    H122572   4.117   2.102   5.801
 7536TIP3    H222573   4.003   2.126   5.705
 7537TIP3   OH222574   2.868   6.724   2.434
 7537TIP3    H122575   2.891   6.661   2.366
 7537TIP3    H222576   2.947   6.779   2.443
 7538TIP3   OH222577   1.763   2.862   3.166
 7538TIP3    H122578   1.847   2.819   3.181
 7538TIP3    H222579   1.787   2.951   3.140
 7539TIP3   OH222580   1.812   5.982   5.287
 7539TIP3    H122581   1.799   5.969   5.381
 7539TIP3    H222582   1.866   5.908   5.260
 7540TIP3   OH222583   6.186   1.828   1.352
 7540TIP3    H122584   6.153   1.739   1.362
 7540TIP3    H222585   6.116   1.883   1.386
 7541TIP3   OH222586   0.467   0.497   0.465
 7541TIP3    H122587   0.505   0.565   0.521
 7541TIP3    H222588   0.392   0.539   0.424
 7542TIP3   OH222589   2.316   0.313   4.448
 7542TIP3    H122590   2.346   0.326   4.538
 7542TIP3    H222591   2.231   0.357   4.445
 7543TIP3   OH222592   5.374   4.451   2.230
 7543TIP3    H122593   5.395   4.411   2.146
 7543TIP3    H222594   5.306   4.394   2.267
 7544TIP3   OH222595   4.488   1.587   0.145
 7544TIP3    H122596   4.528   1.642   0.077
 7544TIP3    H222597   4.490   1.642   0.223
 7545TIP3   OH222598   3.405   2.745   1.392
 7545TIP3    H122599   3.347   2.669   1.401
 7545TIP3    H222600   3.491   2.707   1.377
 7546TIP3   OH222601   1.073   0.405   5.099
 7546TIP3    H122602   1.139   0.335   5.099
 7546TIP3    H222603   1.002   0.371   5.044
 7547TIP3   OH222604   1.043   6.442   0.953
 7547TIP3    H122605   0.978   6.510   0.971
 7547TIP3    H222606   1.033   6.422   0.860
 7548TIP3   OH222607   3.261   0.029   5.714
 7548TIP3    H122608   3.334   0.090   5.701
 7548TIP3    H222609   3.189   0.083   5.745
 7549TIP3   OH222610   5.095   2.359   0.944
 7549TIP3    H122611   5.191   2.359   0.947
 7549TIP3    H222612   5.069   2.427   1.006
 7550TIP3   OH222613   5.409   0.622   5.571
 7550TIP3    H122614   5.502   0.627   5.591
 7550TIP3    H222615   5.366   0.644   5.653
 7551TIP3   OH222616   5.240   3.892   1.147
 7551TIP3    H122617   5.287   3.872   1.228
 7551TIP3    H222618   5.163   3.942   1.175
 7552TIP3   OH222619   3.966   0.901   2.891
 7552TIP3    H122620   4.006   0.836   2.833
 7552TIP3    H222621   3.933   0.849   2.965
 7553TIP3   OH222622   6.678   1.491   2.777
 7553TIP3    H122623   6.651   1.418   2.721
 7553TIP3    H222624   6.656   1.570   2.727
 7554TIP3   OH222625   2.859   3.225   5.357
 7554TIP3    H122626   2.784   3.171   5.385
 7554TIP3    H222627   2.833   3.315   5.381
 7555TIP3   OH222628   0.051   0.518   5.709
 7555TIP3    H122629  -0.043   0.531   5.716
 7555TIP3    H222630   0.088   0.607   5.716
 7556TIP3   OH222631   4.757   5.839   2.898
 7556TIP3    H122632   4.809   5.885   2.964
 7556TIP3    H222633   4.805   5.852   2.816
 7557TIP3   OH222634   2.687   2.763   4.203
 7557TIP3    H122635   2.696   2.677   4.161
 7557TIP3    H222636   2.774   2.802   4.194
 7558TIP3   OH222637   4.210   4.401   4.312
 7558TIP3    H122638   4.196   4.493   4.291
 7558TIP3    H222639   4.281   4.402   4.376
 7559TIP3   OH222640   6.094   6.694   5.356
 7559TIP3    H122641   6.109   6.770   5.413
 7559TIP3    H222642   6.173   6.688   5.303
 7560TIP3   OH222643   1.727   1.275   0.589
 7560TIP3    H122644   1.657   1.235   0.539
 7560TIP3    H222645   1.806   1.256   0.539
 7561TIP3   OH222646   3.285   2.059   4.195
 7561TIP3    H122647   3.232   1.979   4.203
 7561TIP3    H222648   3.253   2.101   4.115
 7562TIP3   OH222649   4.078   4.555   3.832
 7562TIP3    H122650   4.047   4.639   3.799
 7562TIP3    H222651   4.090   4.501   3.754
 7563TIP3   OH222652   2.119   2.364   4.710
 7563TIP3    H122653   2.082   2.400   4.630
 7563TIP3    H222654   2.150   2.277   4.685
 7564TIP3   OH222655   1.625   4.143   4.124
 7564TIP3    H122656   1.716   4.119   4.104
 7564TIP3    H222657   1.575   4.063   4.112
 7565TIP3   OH222658   5.530   3.859   2.723
 7565TIP3    H122659   5.436   3.854   2.708
 7565TIP3    H222660   5.560   3.768   2.717
 7566TIP3   OH222661   3.289   4.617   0.694
 7566TIP3    H122662   3.268   4.525   0.682
 7566TIP3    H222663   3.341   4.620   0.774
 7567TIP3   OH222664   1.343   4.317   2.676
 7567TIP3    H122665   1.385   4.320   2.590
 7567TIP3    H222666   1.412   4.286   2.735
 7568TIP3   OH222667   0.421   0.800   3.220
 7568TIP3    H122668   0.432   0.895   3.229
 7568TIP3    H222669   0.454   0.765   3.302
 7569TIP3   OH222670   5.494   4.796   1.774
 7569TIP3    H122671   5.438   4.729   1.813
 7569TIP3    H222672   5.568   4.747   1.737
 7570TIP3   OH222673   4.355   6.439   5.304
 7570TIP3    H122674   4.384   6.478   5.222
 7570TIP3    H222675   4.369   6.345   5.293
 7571TIP3   OH222676   1.977   0.360   0.376
 7571TIP3    H122677   1.896   0.323   0.410
 7571TIP3    H222678   2.008   0.418   0.444
 7572TIP3   OH222679   0.600   5.253   2.886
 7572TIP3    H122680   0.571   5.162   2.888
 7572TIP3    H222681   0.683   5.253   2.933
 7573TIP3   OH222682   0.864   5.240   3.021
 7573TIP3    H122683   0.847   5.271   3.110
 7573TIP3    H222684   0.899   5.152   3.032
 7574TIP3   OH222685   4.569   1.594   0.839
 7574TIP3    H122686   4.627   1.655   0.885
 7574TIP3    H222687   4.618   1.569   0.761
 7575TIP3   OH222688   4.903   0.161   4.214
 7575TIP3    H122689   4.915   0.069   4.237
 7575TIP3    H222690   4.816   0.182   4.247
 7576TIP3   OH222691   2.538   4.147   5.266
 7576TIP3    H122692   2.491   4.136   5.349
 7576TIP3    H222693   2.558   4.241   5.262
 7577TIP3   OH222694   2.248   0.056   4.358
 7577TIP3    H122695   2.317   0.057   4.424
 7577TIP3    H222696   2.235   0.148   4.335
 7578TIP3   OH222697   1.651   4.122   5.192
 7578TIP3    H122698   1.705   4.198   5.215
 7578TIP3    H222699   1.567   4.139   5.234
 7579TIP3   OH222700   4.079   0.198   0.462
 7579TIP3    H122701   4.026   0.232   0.534
 7579TIP3    H222702   4.104   0.275   0.411
 7580TIP3   OH222703   1.272   3.958   3.977
 7580TIP3    H122704   1.298   3.996   3.892
 7580TIP3    H222705   1.246   3.869   3.956
 7581TIP3   OH222706   5.850   5.413   0.197
 7581TIP3    H122707   5.844   5.410   0.101
 7581TIP3    H222708   5.857   5.506   0.218
 7582TIP3   OH222709   2.173   6.781   4.366
 7582TIP3    H122710   2.116   6.786   4.443
 7582TIP3    H222711   2.170   6.869   4.328
 7583TIP3   OH222712   6.787   2.908   3.594
 7583TIP3    H122713   6.752   2.819   3.590
 7583TIP3    H222714   6.854   2.905   3.662
 7584TIP3   OH222715   4.579   6.378   2.085
 7584TIP3    H122716   4.610   6.465   2.108
 7584TIP3    H222717   4.541   6.388   1.998
 7585TIP3   OH222718   3.177   0.160   4.321
 7585TIP3    H122719   3.145   0.248   4.337
 7585TIP3    H222720   3.098   0.106   4.316
 7586TIP3   OH222721   5.087   2.054   0.866
 7586TIP3    H122722   5.057   2.064   0.956
 7586TIP3    H222723   5.120   2.140   0.842
 7587TIP3   OH222724   3.282   4.932   2.680
 7587TIP3    H122725   3.310   4.986   2.754
 7587TIP3    H222726   3.315   4.844   2.701
 7588TIP3   OH222727   5.530   0.193   1.603
 7588TIP3    H122728   5.512   0.230   1.517
 7588TIP3    H222729   5.506   0.262   1.665
 7589TIP3   OH222730   1.952   5.553   0.954
 7589TIP3    H122731   2.014   5.517   0.890
 7589TIP3    H222732   1.873   5.573   0.904
 7590TIP3   OH222733   3.580  -0.014   4.008
 7590TIP3    H122734   3.603   0.065   4.057
 7590TIP3    H222735   3.565  -0.081   4.075
 7591TIP3   OH222736   2.293   2.099   3.155
 7591TIP3    H122737   2.229   2.088   3.085
 7591TIP3    H222738   2.241   2.127   3.231
 7592TIP3   OH222739   6.654   2.173   0.821
 7592TIP3    H122740   6.715   2.191   0.893
 7592TIP3    H222741   6.567   2.174   0.863
 7593TIP3   OH222742   2.406   0.795   3.083
 7593TIP3    H122743   2.414   0.860   3.013
 7593TIP3    H222744   2.312   0.787   3.098
 7594TIP3   OH222745   6.453   5.889   1.243
 7594TIP3    H122746   6.544   5.862   1.260
 7594TIP3    H222747   6.403   5.849   1.315
 7595TIP3   OH222748   5.529   4.304   2.907
 7595TIP3    H122749   5.492   4.391   2.921
 7595TIP3    H222750   5.559   4.305   2.817
 7596TIP3   OH222751   4.957   3.618   1.276
 7596TIP3    H122752   4.874   3.594   1.234
 7596TIP3    H222753   4.958   3.714   1.273
 7597TIP3   OH222754   4.257   6.573   0.827
 7597TIP3    H122755   4.187   6.524   0.870
 7597TIP3    H222756   4.271   6.649   0.884
 7598TIP3   OH222757   0.161   1.048   5.337
 7598TIP3    H122758   0.103   1.121   5.361
 7598TIP3    H222759   0.200   1.019   5.419
 7599TIP3   OH222760   3.103   5.935   5.867
 7599TIP3    H122761   3.173   5.972   5.920
 7599TIP3    H222762   3.088   6.001   5.798
 7600TIP3   OH222763   2.576   6.310   3.630
 7600TIP3    H122764   2.495   6.312   3.580
 7600TIP3    H222765   2.626   6.237   3.594
 7601TIP3   OH222766   1.624   5.459   3.352
 7601TIP3    H122767   1.560   5.486   3.287
 7601TIP3    H222768   1.703   5.441   3.302
 7602TIP3   OH222769   6.385   2.963   4.021
 7602TIP3    H122770   6.404   2.919   3.938
 7602TIP3    H222771   6.384   3.056   3.999
 7603TIP3   OH222772   1.102   4.643   0.632
 7603TIP3    H122773   1.168   4.590   0.588
 7603TIP3    H222774   1.085   4.716   0.571
 7604TIP3   OH222775   6.177   0.201   2.417
 7604TIP3    H122776   6.124   0.178   2.341
 7604TIP3    H222777   6.120   0.184   2.492
 7605TIP3   OH222778   5.540   4.703   1.432
 7605TIP3    H122779   5.508   4.654   1.356
 7605TIP3    H222780   5.570   4.636   1.492
 7606TIP3   OH222781   0.206   4.005   0.590
 7606TIP3    H122782   0.180   3.966   0.507
 7606TIP3    H222783   0.276   3.948   0.623
 7607TIP3   OH222784   6.616   3.407   4.362
 7607TIP3    H122785   6.588   3.355   4.437
 7607TIP3    H222786   6.535   3.430   4.317
 7608TIP3   OH222787   5.957   3.779   4.858
 7608TIP3    H122788   5.974   3.702   4.805
 7608TIP3    H222789   5.866   3.768   4.888
 7609TIP3   OH222790   3.132   2.601   3.695
 7609TIP3    H122791   3.092   2.513   3.692
 7609TIP3    H222792   3.178   2.603   3.778
 7610TIP3   OH222793   6.505   4.578   3.041
 7610TIP3    H122794   6.457   4.552   2.962
 7610TIP3    H222795   6.559   4.502   3.062
 7611TIP3   OH222796   1.316   1.444   3.526
 7611TIP3    H122797   1.362   1.505   3.468
 7611TIP3    H222798   1.223   1.465   3.514
 7612TIP3   OH222799   3.764   5.108   2.760
 7612TIP3    H122800   3.706   5.122   2.686
 7612TIP3    H222801   3.740   5.175   2.824
 7613TIP3   OH222802   6.154   5.438   5.882
 7613TIP3    H122803   6.195   5.515   5.842
 7613TIP3    H222804   6.068   5.433   5.839
 7614TIP3   OH222805   4.290   6.609   4.912
 7614TIP3    H122806   4.203   6.598   4.951
 7614TIP3    H222807   4.316   6.698   4.938
 7615TIP3   OH222808   5.803   6.730   4.177
 7615TIP3    H122809   5.824   6.708   4.268
 7615TIP3    H222810   5.707   6.729   4.174
 7616TIP3   OH222811   0.671   5.438   0.123
 7616TIP3    H122812   0.664   5.476   0.210
 7616TIP3    H222813   0.592   5.466   0.077
 7617TIP3   OH222814   5.666   3.335   4.385
 7617TIP3    H122815   5.762   3.330   4.387
 7617TIP3    H222816   5.640   3.323   4.476
 7618TIP3   OH222817   7.085   1.958   0.235
 7618TIP3    H122818   7.040   2.038   0.265
 7618TIP3    H222819   7.160   1.989   0.185
 7619TIP3   OH222820   1.882   3.108   3.175
 7619TIP3    H122821   1.891   3.193   3.133
 7619TIP3    H222822   1.962   3.097   3.226
 7620TIP3   OH222823   1.327   0.037   0.882
 7620TIP3    H122824   1.359   0.127   0.882
 7620TIP3    H222825   1.232   0.045   0.874
 7621TIP3   OH222826   5.777   2.538   1.280
 7621TIP3    H122827   5.848   2.477   1.300
 7621TIP3    H222828   5.805   2.583   1.200
 7622TIP3   OH222829   5.080   2.856   2.730
 7622TIP3    H122830   5.108   2.893   2.814
 7622TIP3    H222831   5.005   2.909   2.704
 7623TIP3   OH222832   1.461   2.193   4.908
 7623TIP3    H122833   1.404   2.118   4.926
 7623TIP3    H222834   1.549   2.156   4.903
 7624TIP3   OH222835   3.308   3.267   3.232
 7624TIP3    H122836   3.361   3.215   3.171
 7624TIP3    H222837   3.316   3.357   3.199
 7625TIP3   OH222838   0.616   1.084   0.296
 7625TIP3    H122839   0.640   1.162   0.347
 7625TIP3    H222840   0.598   1.017   0.362
 7626TIP3   OH222841   6.503   4.949   2.981
 7626TIP3    H122842   6.564   4.892   2.936
 7626TIP3    H222843   6.431   4.892   3.008
 7627TIP3   OH222844   5.569   0.207   5.005
 7627TIP3    H122845   5.498   0.178   5.062
 7627TIP3    H222846   5.605   0.126   4.968
 7628TIP3   OH222847   3.322   0.959   3.309
 7628TIP3    H122848   3.292   1.039   3.265
 7628TIP3    H222849   3.414   0.951   3.285
 7629TIP3   OH222850   2.668   6.099   4.516
 7629TIP3    H122851   2.651   6.075   4.425
 7629TIP3    H222852   2.711   6.184   4.511
 7630TIP3   OH222853   3.282   2.718   4.767
 7630TIP3    H122854   3.276   2.690   4.675
 7630TIP3    H222855   3.267   2.638   4.817
 7631TIP3   OH222856   6.510   0.216   3.720
 7631TIP3    H122857   6.519   0.121   3.735
 7631TIP3    H222858   6.517   0.226   3.625
 7632TIP3   OH222859   2.679   1.585   3.523
 7632TIP3    H122860   2.659   1.678   3.532
 7632TIP3    H222861   2.635   1.559   3.441
 7633TIP3   OH222862   5.613   5.033   1.350
 7633TIP3    H122863   5.519   5.033   1.369
 7633TIP3    H222864   5.629   5.120   1.313
 7634TIP3   OH222865   2.007   3.947   1.179
 7634TIP3    H122866   1.962   3.869   1.148
 7634TIP3    H222867   2.020   4.000   1.100
 7635TIP3   OH222868   0.596   1.957   5.457
 7635TIP3    H122869   0.691   1.967   5.449
 7635TIP3    H222870   0.585   1.883   5.516
 7636TIP3   OH222871   2.784   5.689   0.192
 7636TIP3    H122872   2.816   5.777   0.209
 7636TIP3    H222873   2.814   5.637   0.267
 7637TIP3   OH222874   5.351   1.762   0.828
 7637TIP3    H122875   5.343   1.819   0.904
 7637TIP3    H222876   5.348   1.673   0.864
 7638TIP3   OH222877   1.783   5.954   5.577
 7638TIP3    H122878   1.719   5.949   5.648
 7638TIP3    H222879   1.864   5.922   5.615
 7639TIP3   OH222880   4.011   3.209   1.243
 7639TIP3    H122881   3.957   3.239   1.170
 7639TIP3    H222882   4.062   3.286   1.269
 7640TIP3   OH222883   4.413   0.281   4.115
 7640TIP3    H122884   4.371   0.251   4.035
 7640TIP3    H222885   4.375   0.227   4.185
 7641TIP3   OH222886   1.821   1.465   0.797
 7641TIP3    H122887   1.777   1.430   0.720
 7641TIP3    H222888   1.893   1.518   0.763
 7642TIP3   OH222889   0.548   6.349   5.591
 7642TIP3    H122890   0.618   6.414   5.585
 7642TIP3    H222891   0.581   6.283   5.652
 7643TIP3   OH222892   7.003   3.443   1.308
 7643TIP3    H122893   7.050   3.359   1.306
 7643TIP3    H222894   7.072   3.509   1.311
 7644TIP3   OH222895   1.456   0.234   3.119
 7644TIP3    H122896   1.367   0.243   3.154
 7644TIP3    H222897   1.462   0.302   3.052
 7645TIP3   OH222898   1.340   4.768   4.691
 7645TIP3    H122899   1.397   4.842   4.671
 7645TIP3    H222900   1.387   4.692   4.657
 7646TIP3   OH222901   2.431   0.142   0.586
 7646TIP3    H122902   2.377   0.107   0.516
 7646TIP3    H222903   2.404   0.093   0.664
 7647TIP3   OH222904   2.882   4.450   4.536
 7647TIP3    H122905   2.922   4.513   4.476
 7647TIP3    H222906   2.873   4.370   4.485
 7648TIP3   OH222907   0.351   1.506   4.960
 7648TIP3    H122908   0.378   1.588   4.918
 7648TIP3    H222909   0.265   1.487   4.922
 7649TIP3   OH222910   5.213   5.958   4.008
 7649TIP3    H122911   5.201   5.863   4.011
 7649TIP3    H222912   5.146   5.992   4.067
 7650TIP3   OH222913   5.579   3.859   1.651
 7650TIP3    H122914   5.605   3.950   1.651
 7650TIP3    H222915   5.490   3.859   1.687
 7651TIP3   OH222916   3.282   5.916   0.898
 7651TIP3    H122917   3.215   5.980   0.922
 7651TIP3    H222918   3.268   5.901   0.804
 7652TIP3   OH222919   3.283   2.726   4.296
 7652TIP3    H122920   3.248   2.719   4.385
 7652TIP3    H222921   3.329   2.644   4.281
 7653TIP3   OH222922   5.624   3.893   5.370
 7653TIP3    H122923   5.591   3.805   5.386
 7653TIP3    H222924   5.707   3.880   5.325
 7654TIP3   OH222925   0.430   3.504   3.270
 7654TIP3    H122926   0.446   3.485   3.178
 7654TIP3    H222927   0.493   3.449   3.317
 7655TIP3   OH222928   0.233   1.227   2.036
 7655TIP3    H122929   0.177   1.286   1.985
 7655TIP3    H222930   0.264   1.280   2.109
 7656TIP3   OH222931   4.281   5.574   4.670
 7656TIP3    H122932   4.261   5.524   4.591
 7656TIP3    H222933   4.211   5.639   4.676
 7657TIP3   OH222934   3.440   0.203   0.040
 7657TIP3    H122935   3.512   0.185   0.101
 7657TIP3    H222936   3.481   0.203  -0.046
 7658TIP3   OH222937   5.685   5.645   0.254
 7658TIP3    H122938   5.755   5.682   0.307
 7658TIP3    H222939   5.633   5.593   0.316
 7659TIP3   OH222940   4.501   2.370   3.459
 7659TIP3    H122941   4.427   2.377   3.399
 7659TIP3    H222942   4.576   2.399   3.407
 7660TIP3   OH222943   5.878   0.695   1.318
 7660TIP3    H122944   5.913   0.612   1.353
 7660TIP3    H222945   5.863   0.749   1.396
 7661TIP3   OH222946   4.172   6.403   1.489
 7661TIP3    H122947   4.082   6.435   1.498
 7661TIP3    H222948   4.175   6.325   1.544
 7662TIP3   OH222949   7.124   5.366   0.749
 7662TIP3    H122950   7.134   5.317   0.831
 7662TIP3    H222951   7.121   5.298   0.681
 7663TIP3   OH222952   4.314   0.005   2.365
 7663TIP3    H122953   4.302  -0.068   2.305
 7663TIP3    H222954   4.236   0.059   2.353
 7664TIP3   OH222955   4.829   5.367   5.147
 7664TIP3    H122956   4.894   5.436   5.163
 7664TIP3    H222957   4.771   5.370   5.222
 7665TIP3   OH222958   5.479   1.334   0.222
 7665TIP3    H122959   5.468   1.253   0.272
 7665TIP3    H222960   5.527   1.392   0.281
 7666TIP3   OH222961   0.948   5.339   1.778
 7666TIP3    H122962   0.985   5.410   1.831
 7666TIP3    H222963   0.947   5.373   1.689
 7667TIP3   OH222964   2.535   3.352   2.135
 7667TIP3    H122965   2.585   3.411   2.193
 7667TIP3    H222966   2.495   3.410   2.071
 7668TIP3   OH222967   3.513   4.008   4.034
 7668TIP3    H122968   3.545   4.035   3.948
 7668TIP3    H222969   3.443   3.945   4.014
 7669TIP3   OH222970   4.619   2.566   5.226
 7669TIP3    H122971   4.607   2.565   5.131
 7669TIP3    H222972   4.531   2.556   5.262
 7670TIP3   OH222973   5.764   6.552   0.213
 7670TIP3    H122974   5.677   6.557   0.174
 7670TIP3    H222975   5.824   6.556   0.138
 7671TIP3   OH222976   6.052   1.511   1.009
 7671TIP3    H122977   5.993   1.437   1.023
 7671TIP3    H222978   6.010   1.563   0.940
 7672TIP3   OH222979   5.750   1.622   5.576
 7672TIP3    H122980   5.804   1.588   5.505
 7672TIP3    H222981   5.783   1.711   5.591
 7673TIP3   OH222982   2.254   2.997   0.596
 7673TIP3    H122983   2.258   3.090   0.573
 7673TIP3    H222984   2.191   2.960   0.535
 7674TIP3   OH222985   3.296   0.215   1.731
 7674TIP3    H122986   3.213   0.238   1.772
 7674TIP3    H222987   3.320   0.132   1.772
 7675TIP3   OH222988   6.930   2.364   2.813
 7675TIP3    H122989   6.857   2.307   2.790
 7675TIP3    H222990   7.002   2.303   2.830
 7676TIP3   OH222991   0.240   4.639   2.258
 7676TIP3    H122992   0.239   4.652   2.163
 7676TIP3    H222993   0.320   4.682   2.287
 7677TIP3   OH222994   5.356   1.616   5.202
 7677TIP3    H122995   5.341   1.590   5.293
 7677TIP3    H222996   5.445   1.650   5.201
 7678TIP3   OH222997   3.851   3.720   3.358
 7678TIP3    H122998   3.828   3.644   3.304
 7678TIP3    H222999   3.873   3.683   3.444
 7679TIP3   OH223000   7.158   1.284   1.045
 7679TIP3    H123001   7.176   1.366   1.091
 7679TIP3    H223002   7.091   1.307   0.980
 7680TIP3   OH223003   4.148   6.052   4.125
 7680TIP3    H123004   4.142   6.147   4.121
 7680TIP3    H223005   4.077   6.026   4.183
 7681TIP3   OH223006   0.811   3.966   1.883
 7681TIP3    H123007   0.890   3.914   1.892
 7681TIP3    H223008   0.780   3.978   1.973
 7682TIP3   OH223009   2.894   5.762   4.251
 7682TIP3    H123010   2.855   5.799   4.172
 7682TIP3    H223011   2.989   5.774   4.239
 7683TIP3   OH223012   6.891   1.718   0.807
 7683TIP3    H123013   6.821   1.698   0.870
 7683TIP3    H223014   6.908   1.634   0.763
 7684TIP3   OH223015   2.768   1.299   4.164
 7684TIP3    H123016   2.818   1.342   4.094
 7684TIP3    H223017   2.813   1.215   4.178
 7685TIP3   OH223018   7.117   4.348   3.004
 7685TIP3    H123019   7.109   4.420   3.067
 7685TIP3    H223020   7.202   4.363   2.963
 7686TIP3   OH223021   1.932   2.540   0.368
 7686TIP3    H123022   1.914   2.583   0.451
 7686TIP3    H223023   1.896   2.452   0.378
 7687TIP3   OH223024   4.700   4.179   1.156
 7687TIP3    H123025   4.781   4.225   1.180
 7687TIP3    H223026   4.632   4.224   1.205
 7688TIP3   OH223027   0.117   0.249   3.988
 7688TIP3    H123028   0.032   0.253   3.945
 7688TIP3    H223029   0.175   0.210   3.922
 7689TIP3   OH223030   1.924   4.378   0.577
 7689TIP3    H123031   2.016   4.379   0.549
 7689TIP3    H223032   1.896   4.469   0.572
 7690TIP3   OH223033   1.642   4.333   5.573
 7690TIP3    H123034   1.697   4.321   5.496
 7690TIP3    H223035   1.584   4.406   5.550
 7691TIP3   OH223036   3.330   1.200   5.798
 7691TIP3    H123037   3.369   1.113   5.788
 7691TIP3    H223038   3.237   1.184   5.811
 7692TIP3   OH223039   6.987   0.201   2.382
 7692TIP3    H123040   6.994   0.216   2.288
 7692TIP3    H223041   6.934   0.274   2.414
 7693TIP3   OH223042   1.322   3.196   2.557
 7693TIP3    H123043   1.310   3.114   2.605
 7693TIP3    H223044   1.234   3.222   2.531
 7694TIP3   OH223045   7.061   2.328   3.141
 7694TIP3    H123046   7.079   2.324   3.235
 7694TIP3    H223047   7.051   2.421   3.123
 7695TIP3   OH223048   1.184   1.830   2.930
 7695TIP3    H123049   1.140   1.878   2.860
 7695TIP3    H223050   1.131   1.751   2.941
 7696TIP3   OH223051   1.903   5.354   5.057
 7696TIP3    H123052   1.973   5.357   4.992
 7696TIP3    H223053   1.851   5.278   5.032
 7697TIP3   OH223054   3.754   4.317   2.901
 7697TIP3    H123055   3.689   4.263   2.856
 7697TIP3    H223056   3.825   4.257   2.923
 7698TIP3   OH223057   2.594   0.613   5.363
 7698TIP3    H123058   2.673   0.560   5.346
 7698TIP3    H223059   2.627   0.691   5.407
 7699TIP3   OH223060   3.261   3.784   3.123
 7699TIP3    H123061   3.328   3.783   3.055
 7699TIP3    H223062   3.208   3.862   3.104
 7700TIP3   OH223063   6.861   5.926   4.049
 7700TIP3    H123064   6.869   5.935   4.144
 7700TIP3    H223065   6.945   5.957   4.014
 7701TIP3   OH223066   3.178   3.936   5.390
 7701TIP3    H123067   3.118   3.984   5.334
 7701TIP3    H223068   3.189   3.992   5.467
 7702TIP3   OH223069   4.148   2.196   0.067
 7702TIP3    H123070   4.197   2.202   0.149
 7702TIP3    H223071   4.133   2.102   0.055
 7703TIP3   OH223072   4.261   4.712   0.413
 7703TIP3    H123073   4.173   4.743   0.393
 7703TIP3    H223074   4.295   4.680   0.329
 7704TIP3   OH223075   0.151   4.490   2.549
 7704TIP3    H123076   0.135   4.440   2.468
 7704TIP3    H223077   0.144   4.581   2.521
 7705TIP3   OH223078   5.455   2.716   5.004
 7705TIP3    H123079   5.520   2.677   5.062
 7705TIP3    H223080   5.377   2.728   5.059
 7706TIP3   OH223081   4.091   0.769   4.345
 7706TIP3    H123082   4.173   0.776   4.394
 7706TIP3    H223083   4.029   0.821   4.396
 7707TIP3   OH223084   6.112   4.682   0.312
 7707TIP3    H123085   6.096   4.594   0.349
 7707TIP3    H223086   6.108   4.740   0.387
 7708TIP3   OH223087   3.745   2.898   3.278
 7708TIP3    H123088   3.695   2.967   3.323
 7708TIP3    H223089   3.797   2.857   3.348
 7709TIP3   OH223090   1.664   6.285   4.703
 7709TIP3    H123091   1.578   6.308   4.738
 7709TIP3    H223092   1.649   6.272   4.609
 7710TIP3   OH223093   5.202   5.667   1.530
 7710TIP3    H123094   5.246   5.595   1.485
 7710TIP3    H223095   5.234   5.663   1.620
 7711TIP3   OH223096   0.123   3.861   1.497
 7711TIP3    H123097   0.169   3.935   1.538
 7711TIP3    H223098   0.178   3.837   1.423
 7712TIP3   OH223099   3.828   5.209   1.835
 7712TIP3    H123100   3.893   5.251   1.891
 7712TIP3    H223101   3.848   5.115   1.841
 7713TIP3   OH223102   3.379   1.508   0.778
 7713TIP3    H123103   3.319   1.520   0.705
 7713TIP3    H223104   3.414   1.419   0.767
 7714TIP3   OH223105   5.811   0.945   4.268
 7714TIP3    H123106   5.773   1.023   4.228
 7714TIP3    H223107   5.897   0.936   4.226
 7715TIP3   OH223108   6.414   1.208   3.854
 7715TIP3    H123109   6.456   1.294   3.856
 7715TIP3    H223110   6.352   1.210   3.926
 7716TIP3   OH223111   3.213   1.667   1.815
 7716TIP3    H123112   3.267   1.649   1.737
 7716TIP3    H223113   3.256   1.618   1.885
 7717TIP3   OH223114   5.557   5.469   0.475
 7717TIP3    H123115   5.551   5.374   0.466
 7717TIP3    H223116   5.477   5.493   0.522
 7718TIP3   OH223117   3.236   1.960   1.669
 7718TIP3    H123118   3.147   1.975   1.637
 7718TIP3    H223119   3.231   1.876   1.716
 7719TIP3   OH223120   1.503   2.890   1.452
 7719TIP3    H123121   1.438   2.819   1.445
 7719TIP3    H223122   1.490   2.925   1.540
 7720TIP3   OH223123   4.118   4.251   0.728
 7720TIP3    H123124   4.066   4.172   0.746
 7720TIP3    H223125   4.192   4.220   0.676
 7721TIP3   OH223126   3.132   3.218   4.119
 7721TIP3    H123127   3.095   3.136   4.087
 7721TIP3    H223128   3.095   3.285   4.062
 7722TIP3   OH223129   4.192   3.079   3.163
 7722TIP3    H123130   4.249   3.009   3.132
 7722TIP3    H223131   4.219   3.092   3.254
 7723TIP3   OH223132   0.704   3.451   0.052
 7723TIP3    H123133   0.637   3.413   0.109
 7723TIP3    H223134   0.663   3.454  -0.035
 7724TIP3   OH223135   1.042   4.275   4.576
 7724TIP3    H123136   1.016   4.328   4.501
 7724TIP3    H223137   1.070   4.338   4.642
 7725TIP3   OH223138   2.649   0.726   3.818
 7725TIP3    H123139   2.627   0.675   3.896
 7725TIP3    H223140   2.737   0.759   3.835
 7726TIP3   OH223141   4.622   3.575   1.386
 7726TIP3    H123142   4.638   3.505   1.322
 7726TIP3    H223143   4.621   3.655   1.333
 7727TIP3   OH223144   4.704   1.118   4.970
 7727TIP3    H123145   4.659   1.038   5.001
 7727TIP3    H223146   4.648   1.150   4.899
 7728TIP3   OH223147   0.901   6.101   1.358
 7728TIP3    H123148   0.983   6.055   1.340
 7728TIP3    H223149   0.886   6.087   1.452
 7729TIP3   OH223150   3.381   3.903   3.641
 7729TIP3    H123151   3.429   3.913   3.723
 7729TIP3    H223152   3.434   3.843   3.589
 7730TIP3   OH223153   0.732   1.126   2.203
 7730TIP3    H123154   0.822   1.110   2.175
 7730TIP3    H223155   0.729   1.219   2.225
 7731TIP3   OH223156   6.118   5.014   2.974
 7731TIP3    H123157   6.132   4.924   3.003
 7731TIP3    H223158   6.206   5.052   2.973
 7732TIP3   OH223159   1.297   2.922   5.024
 7732TIP3    H123160   1.362   2.976   4.981
 7732TIP3    H223161   1.269   2.859   4.957
 7733TIP3   OH223162   0.793   3.613   5.378
 7733TIP3    H123163   0.840   3.649   5.303
 7733TIP3    H223164   0.702   3.638   5.364
 7734TIP3   OH223165   2.685   6.607   1.992
 7734TIP3    H123166   2.720   6.522   2.020
 7734TIP3    H223167   2.612   6.585   1.934
 7735TIP3   OH223168   5.692   4.543   2.040
 7735TIP3    H123169   5.709   4.459   2.081
 7735TIP3    H223170   5.649   4.595   2.108
 7736TIP3   OH223171   1.137   3.668   4.391
 7736TIP3    H123172   1.076   3.606   4.352
 7736TIP3    H223173   1.120   3.663   4.485
 7737TIP3   OH223174   5.019   1.838   5.727
 7737TIP3    H123175   4.959   1.877   5.790
 7737TIP3    H223176   4.967   1.773   5.681
 7738TIP3   OH223177   6.068   3.083   2.208
 7738TIP3    H123178   6.147   3.138   2.213
 7738TIP3    H223179   6.029   3.091   2.295
 7739TIP3   OH223180   6.722   6.416   2.980
 7739TIP3    H123181   6.643   6.462   2.952
 7739TIP3    H223182   6.701   6.323   2.970
 7740TIP3   OH223183   6.576   4.070   2.145
 7740TIP3    H123184   6.634   4.048   2.218
 7740TIP3    H223185   6.597   4.006   2.077
 7741TIP3   OH223186   1.335   0.799   5.607
 7741TIP3    H123187   1.361   0.731   5.670
 7741TIP3    H223188   1.252   0.768   5.572
 7742TIP3   OH223189   1.776   2.663   4.770
 7742TIP3    H123190   1.709   2.596   4.782
 7742TIP3    H223191   1.858   2.620   4.793
 7743TIP3   OH223192   4.179   3.354   2.502
 7743TIP3    H123193   4.273   3.355   2.484
 7743TIP3    H223194   4.169   3.293   2.575
 7744TIP3   OH223195   6.648   3.823   0.427
 7744TIP3    H123196   6.585   3.753   0.410
 7744TIP3    H223197   6.596   3.893   0.467
 7745TIP3   OH223198   3.170   5.639   4.510
 7745TIP3    H123199   3.167   5.731   4.537
 7745TIP3    H223200   3.143   5.590   4.587
 7746TIP3   OH223201   0.937   5.647   5.816
 7746TIP3    H123202   0.901   5.662   5.728
 7746TIP3    H223203   0.871   5.682   5.875
 7747TIP3   OH223204   5.777   2.704   4.600
 7747TIP3    H123205   5.778   2.745   4.686
 7747TIP3    H223206   5.755   2.612   4.618
 7748TIP3   OH223207   0.109   2.585   2.320
 7748TIP3    H123208   0.028   2.581   2.370
 7748TIP3    H223209   0.104   2.669   2.274
 7749TIP3   OH223210   5.053   1.852   1.485
 7749TIP3    H123211   5.032   1.919   1.420
 7749TIP3    H223212   5.149   1.854   1.491
 7750TIP3   OH223213   4.205   4.375   1.112
 7750TIP3    H123214   4.214   4.427   1.032
 7750TIP3    H223215   4.278   4.314   1.110
 7751TIP3   OH223216   4.626   6.767   5.545
 7751TIP3    H123217   4.532   6.749   5.546
 7751TIP3    H223218   4.637   6.834   5.477
 7752TIP3   OH223219   1.350   4.748   4.349
 7752TIP3    H123220   1.406   4.823   4.368
 7752TIP3    H223221   1.262   4.785   4.340
 7753TIP3   OH223222   3.882   5.567   3.147
 7753TIP3    H123223   3.815   5.624   3.108
 7753TIP3    H223224   3.965   5.598   3.110
 7754TIP3   OH223225   5.230   2.947   2.962
 7754TIP3    H123226   5.282   2.954   3.042
 7754TIP3    H223227   5.146   2.988   2.984
 7755TIP3   OH223228   4.607   1.051   0.983
 7755TIP3    H123229   4.569   1.115   1.043
 7755TIP3    H223230   4.641   1.102   0.911
 7756TIP3   OH223231   2.026   4.902   1.901
 7756TIP3    H123232   1.974   4.937   1.973
 7756TIP3    H223233   2.101   4.860   1.943
 7757TIP3   OH223234   2.198   0.219   4.786
 7757TIP3    H123235   2.103   0.233   4.785
 7757TIP3    H223236   2.234   0.294   4.739
 7758TIP3   OH223237   5.098   5.515   3.426
 7758TIP3    H123238   5.064   5.435   3.385
 7758TIP3    H223239   5.034   5.536   3.494
 7759TIP3   OH223240   6.929   1.368   3.185
 7759TIP3    H123241   6.951   1.458   3.207
 7759TIP3    H223242   6.850   1.375   3.132
 7760TIP3   OH223243   5.499   1.093   2.161
 7760TIP3    H123244   5.499   0.997   2.159
 7760TIP3    H223245   5.432   1.116   2.226
 7761TIP3   OH223246   1.538   4.322   4.917
 7761TIP3    H123247   1.632   4.324   4.934
 7761TIP3    H223248   1.531   4.310   4.822
 7762TIP3   OH223249   2.156   6.694   3.829
 7762TIP3    H123250   2.103   6.615   3.816
 7762TIP3    H223251   2.116   6.759   3.771
 7763TIP3   OH223252   4.583   6.362   2.372
 7763TIP3    H123253   4.557   6.355   2.280
 7763TIP3    H223254   4.620   6.277   2.393
 7764TIP3   OH223255   5.208   1.844   2.553
 7764TIP3    H123256   5.123   1.833   2.595
 7764TIP3    H223257   5.189   1.888   2.470
 7765TIP3   OH223258   2.552   2.930   0.935
 7765TIP3    H123259   2.559   3.015   0.978
 7765TIP3    H223260   2.573   2.948   0.843
 7766TIP3   OH223261   4.271   1.821   4.748
 7766TIP3    H123262   4.253   1.793   4.838
 7766TIP3    H223263   4.354   1.869   4.755
 7767TIP3   OH223264   1.548   6.146   0.120
 7767TIP3    H123265   1.601   6.128   0.042
 7767TIP3    H223266   1.612   6.167   0.188
 7768TIP3   OH223267   3.965   5.511   2.271
 7768TIP3    H123268   3.964   5.455   2.349
 7768TIP3    H223269   4.057   5.516   2.246
 7769TIP3   OH223270   5.658   5.968   2.208
 7769TIP3    H123271   5.733   6.023   2.187
 7769TIP3    H223272   5.624   6.002   2.291
 7770TIP3   OH223273   0.106   4.988   4.648
 7770TIP3    H123274   0.197   4.965   4.666
 7770TIP3    H223275   0.087   5.060   4.708
 7771TIP3   OH223276   2.613   5.794   2.784
 7771TIP3    H123277   2.605   5.886   2.808
 7771TIP3    H223278   2.592   5.746   2.865
 7772TIP3   OH223279   3.035   6.179   4.549
 7772TIP3    H123280   3.044   6.201   4.456
 7772TIP3    H223281   3.027   6.263   4.593
 7773TIP3   OH223282   7.114   0.619   2.538
 7773TIP3    H123283   7.082   0.578   2.619
 7773TIP3    H223284   7.161   0.697   2.567
 7774TIP3   OH223285   6.285   6.113   5.488
 7774TIP3    H123286   6.254   6.054   5.419
 7774TIP3    H223287   6.276   6.201   5.449
 7775TIP3   OH223288   1.107   6.318   5.122
 7775TIP3    H123289   1.045   6.285   5.187
 7775TIP3    H223290   1.055   6.331   5.043
 7776TIP3   OH223291   0.007   5.993   3.995
 7776TIP3    H123292  -0.005   5.994   4.090
 7776TIP3    H223293   0.102   5.986   3.983
 7777TIP3   OH223294   0.917   5.569   3.087
 7777TIP3    H123295   0.994   5.525   3.050
 7777TIP3    H223296   0.897   5.520   3.166
 7778TIP3   OH223297   5.599   0.492   5.776
 7778TIP3    H123298   5.671   0.439   5.741
 7778TIP3    H223299   5.541   0.429   5.819
 7779TIP3   OH223300   5.558   1.111   3.590
 7779TIP3    H123301   5.574   1.134   3.498
 7779TIP3    H223302   5.642   1.125   3.633
 7780TIP3   OH223303   0.259   1.910   2.222
 7780TIP3    H123304   0.235   1.818   2.211
 7780TIP3    H223305   0.341   1.908   2.271
 7781TIP3   OH223306   2.118   0.147   3.039
 7781TIP3    H123307   2.209   0.156   3.068
 7781TIP3    H223308   2.080   0.234   3.050
 7782TIP3   OH223309   6.229   6.230   3.614
 7782TIP3    H123310   6.251   6.318   3.646
 7782TIP3    H223311   6.308   6.178   3.630
 7783TIP3   OH223312   1.442   5.036   1.385
 7783TIP3    H123313   1.396   4.957   1.413
 7783TIP3    H223314   1.516   5.043   1.446
 7784TIP3   OH223315   6.584   5.363   4.180
 7784TIP3    H123316   6.539   5.440   4.146
 7784TIP3    H223317   6.665   5.358   4.129
 7785TIP3   OH223318   5.890   0.076   5.155
 7785TIP3    H123319   5.907  -0.018   5.165
 7785TIP3    H223320   5.908   0.094   5.063
 7786TIP3   OH223321   7.038   0.646   5.206
 7786TIP3    H123322   7.029   0.690   5.122
 7786TIP3    H223323   7.097   0.703   5.257
 7787TIP3   OH223324   1.586   3.927   2.668
 7787TIP3    H123325   1.568   3.946   2.761
 7787TIP3    H223326   1.631   3.843   2.669
 7788TIP3   OH223327   1.676   0.177   4.109
 7788TIP3    H123328   1.666   0.112   4.040
 7788TIP3    H223329   1.753   0.228   4.083
 7789TIP3   OH223330   6.012   6.414   3.062
 7789TIP3    H123331   6.037   6.405   3.154
 7789TIP3    H223332   5.968   6.499   3.058
 7790TIP3   OH223333   2.445   6.585   4.919
 7790TIP3    H123334   2.538   6.584   4.894
 7790TIP3    H223335   2.415   6.496   4.902
 7791TIP3   OH223336   3.315   2.441  -0.012
 7791TIP3    H123337   3.362   2.517  -0.046
 7791TIP3    H223338   3.381   2.391   0.036
 7792TIP3   OH223339   1.074   6.691   3.444
 7792TIP3    H123340   1.071   6.639   3.525
 7792TIP3    H223341   0.984   6.691   3.412
 7793TIP3   OH223342   3.089   6.518   2.707
 7793TIP3    H123343   3.051   6.479   2.628
 7793TIP3    H223344   3.016   6.519   2.770
 7794TIP3   OH223345   6.787   3.278   2.487
 7794TIP3    H123346   6.772   3.357   2.540
 7794TIP3    H223347   6.789   3.207   2.551
 7795TIP3   OH223348   2.137   1.167   4.297
 7795TIP3    H123349   2.165   1.240   4.242
 7795TIP3    H223350   2.064   1.128   4.249
 7796TIP3   OH223351   5.548   6.581   3.472
 7796TIP3    H123352   5.583   6.598   3.560
 7796TIP3    H223353   5.576   6.657   3.421
 7797TIP3   OH223354   2.748   6.235   3.909
 7797TIP3    H123355   2.748   6.277   3.995
 7797TIP3    H223356   2.712   6.301   3.850
 7798TIP3   OH223357   0.534   4.030   0.392
 7798TIP3    H123358   0.486   4.084   0.330
 7798TIP3    H223359   0.619   4.073   0.401
 7799TIP3   OH223360   1.450   5.888   4.576
 7799TIP3    H123361   1.384   5.826   4.607
 7799TIP3    H223362   1.410   5.927   4.498
 7800TIP3   OH223363   1.050   0.745   0.553
 7800TIP3    H123364   0.988   0.812   0.581
 7800TIP3    H223365   1.027   0.728   0.461
 7801TIP3   OH223366   5.302   1.417   4.084
 7801TIP3    H123367   5.253   1.411   4.002
 7801TIP3    H223368   5.378   1.360   4.070
 7802TIP3   OH223369   2.500   5.006   3.290
 7802TIP3    H123370   2.539   4.919   3.287
 7802TIP3    H223371   2.487   5.023   3.383
 7803TIP3   OH223372   4.231   6.615   0.484
 7803TIP3    H123373   4.163   6.569   0.434
 7803TIP3    H223374   4.196   6.620   0.573
 7804TIP3   OH223375   3.654   1.566   5.467
 7804TIP3    H123376   3.670   1.544   5.558
 7804TIP3    H223377   3.666   1.483   5.420
 7805TIP3   OH223378   4.095   5.110   3.224
 7805TIP3    H123379   4.092   5.028   3.274
 7805TIP3    H223380   4.153   5.091   3.151
 7806TIP3   OH223381   5.027   0.764   3.655
 7806TIP3    H123382   5.024   0.827   3.583
 7806TIP3    H223383   5.013   0.679   3.612
 7807TIP3   OH223384   6.705   0.005   3.052
 7807TIP3    H123385   6.730   0.090   3.089
 7807TIP3    H223386   6.698  -0.054   3.127
 7808TIP3   OH223387   4.694   2.287   5.280
 7808TIP3    H123388   4.625   2.227   5.311
 7808TIP3    H223389   4.673   2.370   5.323
 7809TIP3   OH223390   2.757   3.391   4.006
 7809TIP3    H123391   2.819   3.415   4.075
 7809TIP3    H223392   2.736   3.299   4.024
 7810TIP3   OH223393   7.253   4.061   4.829
 7810TIP3    H123394   7.170   4.029   4.795
 7810TIP3    H223395   7.264   4.147   4.789
 7811TIP3   OH223396   6.252   1.764   2.997
 7811TIP3    H123397   6.331   1.717   3.022
 7811TIP3    H223398   6.276   1.856   3.003
 7812TIP3   OH223399   5.895   1.502   5.853
 7812TIP3    H123400   5.833   1.430   5.846
 7812TIP3    H223401   5.936   1.490   5.939
 7813TIP3   OH223402   4.157   2.588   4.909
 7813TIP3    H123403   4.211   2.605   4.986
 7813TIP3    H223404   4.138   2.675   4.874
 7814TIP3   OH223405   1.908   5.217   2.270
 7814TIP3    H123406   1.830   5.195   2.219
 7814TIP3    H223407   1.898   5.167   2.351
 7815TIP3   OH223408   4.499   3.915   5.537
 7815TIP3    H123409   4.407   3.898   5.516
 7815TIP3    H223410   4.525   3.984   5.476
 7816TIP3   OH223411   5.206   0.211   0.159
 7816TIP3    H123412   5.155   0.159   0.221
 7816TIP3    H223413   5.141   0.260   0.108
 7817TIP3   OH223414   3.394   5.916   4.643
 7817TIP3    H123415   3.302   5.933   4.621
 7817TIP3    H223416   3.443   5.958   4.572
 7818TIP3   OH223417   1.349   5.260   2.271
 7818TIP3    H123418   1.265   5.250   2.314
 7818TIP3    H223419   1.344   5.203   2.194
 7819TIP3   OH223420   1.140   4.092   2.299
 7819TIP3    H123421   1.201   4.083   2.372
 7819TIP3    H223422   1.186   4.147   2.235
 7820TIP3   OH223423   5.170   5.175   3.012
 7820TIP3    H123424   5.115   5.249   2.990
 7820TIP3    H223425   5.110   5.111   3.051
 7821TIP3   OH223426   6.626   0.976   3.682
 7821TIP3    H123427   6.648   0.926   3.760
 7821TIP3    H223428   6.622   1.067   3.712
 7822TIP3   OH223429   0.255   2.787   3.871
 7822TIP3    H123430   0.176   2.734   3.878
 7822TIP3    H223431   0.251   2.846   3.946
 7823TIP3   OH223432   5.601   4.138   1.576
 7823TIP3    H123433   5.620   4.231   1.580
 7823TIP3    H223434   5.686   4.096   1.568
 7824TIP3   OH223435   3.530   2.381   0.178
 7824TIP3    H123436   3.477   2.302   0.174
 7824TIP3    H223437   3.575   2.376   0.262
 7825TIP3   OH223438   1.344   1.789   4.290
 7825TIP3    H123439   1.363   1.826   4.204
 7825TIP3    H223440   1.399   1.711   4.296
 7826TIP3   OH223441   0.636   6.205   5.345
 7826TIP3    H123442   0.589   6.122   5.353
 7826TIP3    H223443   0.621   6.250   5.428
 7827TIP3   OH223444   3.505   5.472   5.322
 7827TIP3    H123445   3.477   5.416   5.395
 7827TIP3    H223446   3.423   5.501   5.282
 7828TIP3   OH223447   0.485   5.143   3.488
 7828TIP3    H123448   0.475   5.232   3.456
 7828TIP3    H223449   0.528   5.096   3.417
 7829TIP3   OH223450   0.108   2.505   0.880
 7829TIP3    H123451   0.080   2.414   0.891
 7829TIP3    H223452   0.146   2.508   0.792
 7830TIP3   OH223453   1.657   3.515   0.292
 7830TIP3    H123454   1.608   3.534   0.212
 7830TIP3    H223455   1.687   3.424   0.282
 7831TIP3   OH223456   5.021   5.199   1.236
 7831TIP3    H123457   5.018   5.115   1.281
 7831TIP3    H223458   5.114   5.213   1.219
 7832TIP3   OH223459   5.580   5.273   5.039
 7832TIP3    H123460   5.500   5.323   5.057
 7832TIP3    H223461   5.619   5.260   5.125
 7833TIP3   OH223462   0.749   1.571   2.986
 7833TIP3    H123463   0.662   1.543   2.957
 7833TIP3    H223464   0.768   1.649   2.934
 7834TIP3   OH223465   1.360   0.102   3.788
 7834TIP3    H123466   1.330   0.067   3.704
 7834TIP3    H223467   1.445   0.142   3.769
 7835TIP3   OH223468   4.404   2.254   5.626
 7835TIP3    H123469   4.398   2.203   5.707
 7835TIP3    H223470   4.384   2.344   5.652
 7836TIP3   OH223471   6.392   6.755   4.275
 7836TIP3    H123472   6.444   6.830   4.245
 7836TIP3    H223473   6.305   6.792   4.293
 7837TIP3   OH223474   4.968   3.135   2.062
 7837TIP3    H123475   4.973   3.170   1.973
 7837TIP3    H223476   5.046   3.080   2.071
 7838TIP3   OH223477   0.470   1.077   3.224
 7838TIP3    H123478   0.542   1.123   3.181
 7838TIP3    H223479   0.460   1.121   3.308
 7839TIP3   OH223480   5.116   3.980   4.965
 7839TIP3    H123481   5.130   4.026   5.048
 7839TIP3    H223482   5.140   4.043   4.898
 7840TIP3   OH223483   6.388   2.789   0.957
 7840TIP3    H123484   6.434   2.783   1.041
 7840TIP3    H223485   6.394   2.700   0.921
 7841TIP3   OH223486   3.498   1.984   5.416
 7841TIP3    H123487   3.538   1.963   5.331
 7841TIP3    H223488   3.558   2.048   5.455
 7842TIP3   OH223489   6.980   4.295   4.895
 7842TIP3    H123490   7.053   4.258   4.847
 7842TIP3    H223491   6.916   4.320   4.827
 7843TIP3   OH223492   6.936   5.117   4.100
 7843TIP3    H123493   6.900   5.064   4.171
 7843TIP3    H223494   6.864   5.174   4.073
 7844TIP3   OH223495   3.356   1.658   4.710
 7844TIP3    H123496   3.322   1.647   4.798
 7844TIP3    H223497   3.419   1.730   4.716
 7845TIP3   OH223498   3.417   4.754   1.806
 7845TIP3    H123499   3.329   4.763   1.842
 7845TIP3    H223500   3.410   4.681   1.744
 7846TIP3   OH223501   3.179   3.201   2.970
 7846TIP3    H123502   3.117   3.231   2.904
 7846TIP3    H223503   3.208   3.282   3.014
 7847TIP3   OH223504   3.406   0.383   4.973
 7847TIP3    H123505   3.374   0.373   5.063
 7847TIP3    H223506   3.328   0.377   4.918
 7848TIP3   OH223507   5.157   4.657   2.375
 7848TIP3    H123508   5.172   4.694   2.288
 7848TIP3    H223509   5.170   4.563   2.363
 7849TIP3   OH223510   4.469   4.689   0.834
 7849TIP3    H123511   4.438   4.600   0.815
 7849TIP3    H223512   4.399   4.728   0.887
 7850TIP3   OH223513   1.842   0.024   5.407
 7850TIP3    H123514   1.817   0.065   5.490
 7850TIP3    H223515   1.923  -0.022   5.426
 7851TIP3   OH223516   1.431   2.961   5.379
 7851TIP3    H123517   1.524   2.942   5.385
 7851TIP3    H223518   1.410   2.947   5.286
 7852TIP3   OH223519   3.932   0.565   4.910
 7852TIP3    H123520   4.014   0.573   4.959
 7852TIP3    H223521   3.908   0.472   4.919
 7853TIP3   OH223522   3.677   2.688   5.863
 7853TIP3    H123523   3.754   2.725   5.904
 7853TIP3    H223524   3.616   2.762   5.855
 7854TIP3   OH223525   0.343   1.963   3.580
 7854TIP3    H123526   0.262   1.924   3.615
 7854TIP3    H223527   0.395   1.984   3.658
 7855TIP3   OH223528   4.700   6.040   1.124
 7855TIP3    H123529   4.610   6.036   1.090
 7855TIP3    H223530   4.708   5.963   1.180
 7856TIP3   OH223531   5.558   0.807   5.213
 7856TIP3    H123532   5.606   0.796   5.131
 7856TIP3    H223533   5.521   0.721   5.231
 7857TIP3   OH223534   4.305   0.053   5.781
 7857TIP3    H123535   4.289   0.080   5.690
 7857TIP3    H223536   4.400   0.058   5.790
 7858TIP3   OH223537   2.093   6.248   1.488
 7858TIP3    H123538   2.050   6.189   1.426
 7858TIP3    H223539   2.184   6.219   1.490
 7859TIP3   OH223540   4.180   4.919   5.223
 7859TIP3    H123541   4.166   5.004   5.181
 7859TIP3    H223542   4.247   4.877   5.169
 7860TIP3   OH223543   5.698   1.015   4.704
 7860TIP3    H123544   5.646   1.012   4.623
 7860TIP3    H223545   5.731   1.105   4.707
 7861TIP3   OH223546   0.252   1.283   3.368
 7861TIP3    H123547   0.243   1.347   3.297
 7861TIP3    H223548   0.171   1.232   3.365
 7862TIP3   OH223549   6.305   3.220   1.428
 7862TIP3    H123550   6.282   3.216   1.335
 7862TIP3    H223551   6.391   3.261   1.430
 7863TIP3   OH223552   1.897   6.421   1.173
 7863TIP3    H123553   1.883   6.336   1.131
 7863TIP3    H223554   1.822   6.474   1.146
 7864TIP3   OH223555   5.445   2.231   5.654
 7864TIP3    H123556   5.376   2.165   5.660
 7864TIP3    H223557   5.476   2.225   5.563
 7865TIP3   OH223558   5.907   3.843   5.440
 7865TIP3    H123559   6.000   3.818   5.442
 7865TIP3    H223560   5.876   3.828   5.529
 7866TIP3   OH223561   3.454   5.536   1.017
 7866TIP3    H123562   3.479   5.629   1.012
 7866TIP3    H223563   3.361   5.535   0.993
 7867TIP3   OH223564   3.956   0.917   3.253
 7867TIP3    H123565   3.902   0.858   3.201
 7867TIP3    H223566   4.044   0.880   3.248
 7868TIP3   OH223567   3.978   0.973   3.577
 7868TIP3    H123568   4.020   0.932   3.653
 7868TIP3    H223569   4.023   0.935   3.501
 7869TIP3   OH223570   6.888   6.584   4.813
 7869TIP3    H123571   6.875   6.504   4.763
 7869TIP3    H223572   6.824   6.645   4.778
 7870TIP3   OH223573   0.505   5.721   1.939
 7870TIP3    H123574   0.536   5.811   1.942
 7870TIP3    H223575   0.575   5.672   1.896
 7871TIP3   OH223576   0.727   1.110   3.119
 7871TIP3    H123577   0.706   1.040   3.057
 7871TIP3    H223578   0.789   1.166   3.073
 7872TIP3   OH223579   0.190   5.813   0.690
 7872TIP3    H123580   0.143   5.730   0.683
 7872TIP3    H223581   0.227   5.813   0.778
 7873TIP3   OH223582   4.919   2.445   0.515
 7873TIP3    H123583   4.932   2.509   0.444
 7873TIP3    H223584   4.977   2.475   0.585
 7874TIP3   OH223585   5.285   6.725   3.552
 7874TIP3    H123586   5.292   6.817   3.576
 7874TIP3    H223587   5.363   6.707   3.500
 7875TIP3   OH223588   2.369   3.755   3.896
 7875TIP3    H123589   2.449   3.757   3.843
 7875TIP3    H223590   2.397   3.715   3.979
 7876TIP3   OH223591   3.641   5.695   3.041
 7876TIP3    H123592   3.618   5.631   2.972
 7876TIP3    H223593   3.557   5.733   3.066
 7877TIP3   OH223594   1.632   0.259   0.757
 7877TIP3    H123595   1.697   0.247   0.687
 7877TIP3    H223596   1.679   0.235   0.837
 7878TIP3   OH223597   0.860   4.140   0.074
 7878TIP3    H123598   0.834   4.096   0.155
 7878TIP3    H223599   0.841   4.076   0.005
 7879TIP3   OH223600   4.771   0.477   2.902
 7879TIP3    H123601   4.705   0.511   2.963
 7879TIP3    H223602   4.822   0.415   2.955
 7880TIP3   OH223603   2.181   3.033   4.588
 7880TIP3    H123604   2.253   3.092   4.612
 7880TIP3    H223605   2.152   3.064   4.503
 7881TIP3   OH223606   0.795   0.049   3.422
 7881TIP3    H123607   0.822   0.114   3.488
 7881TIP3    H223608   0.756   0.101   3.352
 7882TIP3   OH223609   0.951   1.619   4.968
 7882TIP3    H123610   0.958   1.544   4.908
 7882TIP3    H223611   1.009   1.597   5.041
 7883TIP3   OH223612   1.752   1.548   3.509
 7883TIP3    H123613   1.790   1.614   3.451
 7883TIP3    H223614   1.708   1.599   3.578
 7884TIP3   OH223615   0.909   2.306   0.441
 7884TIP3    H123616   0.928   2.352   0.523
 7884TIP3    H223617   0.834   2.250   0.462
 7885TIP3   OH223618   3.971   6.675   1.125
 7885TIP3    H123619   3.929   6.626   1.196
 7885TIP3    H223620   3.918   6.754   1.116
 7886TIP3   OH223621   1.026   4.353   2.322
 7886TIP3    H123622   1.077   4.369   2.401
 7886TIP3    H223623   1.039   4.260   2.304
 7887TIP3   OH223624   5.844   1.032   1.557
 7887TIP3    H123625   5.800   0.947   1.559
 7887TIP3    H223626   5.831   1.062   1.467
 7888TIP3   OH223627   1.822   4.138   4.745
 7888TIP3    H123628   1.815   4.214   4.802
 7888TIP3    H223629   1.793   4.064   4.800
 7889TIP3   OH223630   1.389   6.504   0.326
 7889TIP3    H123631   1.343   6.438   0.378
 7889TIP3    H223632   1.465   6.459   0.290
 7890TIP3   OH223633   5.253   2.007   5.684
 7890TIP3    H123634   5.181   1.949   5.661
 7890TIP3    H223635   5.331   1.965   5.647
 7891TIP3   OH223636   4.560   5.773   4.412
 7891TIP3    H123637   4.485   5.780   4.354
 7891TIP3    H223638   4.524   5.784   4.500
 7892TIP3   OH223639   2.664   0.114   0.938
 7892TIP3    H123640   2.711   0.051   0.992
 7892TIP3    H223641   2.732   0.170   0.901
 7893TIP3   OH223642   2.917   4.375   1.001
 7893TIP3    H123643   2.884   4.455   1.043
 7893TIP3    H223644   2.899   4.305   1.064
 7894TIP3   OH223645   5.499   4.532   3.403
 7894TIP3    H123646   5.588   4.497   3.398
 7894TIP3    H223647   5.494   4.574   3.489
 7895TIP3   OH223648   4.337   3.623   1.997
 7895TIP3    H123649   4.429   3.617   2.022
 7895TIP3    H223650   4.301   3.689   2.057
 7896TIP3   OH223651   6.815   5.659   4.007
 7896TIP3    H123652   6.719   5.660   4.005
 7896TIP3    H223653   6.840   5.749   4.028
 7897TIP3   OH223654   0.489   4.009   3.204
 7897TIP3    H123655   0.393   4.003   3.209
 7897TIP3    H223656   0.520   3.925   3.238
 7898TIP3   OH223657   5.128   4.894   1.160
 7898TIP3    H123658   5.054   4.913   1.218
 7898TIP3    H223659   5.197   4.864   1.219
 7899TIP3   OH223660   4.219   1.680   4.515
 7899TIP3    H123661   4.128   1.653   4.523
 7899TIP3    H223662   4.248   1.694   4.605
 7900TIP3   OH223663   2.472   0.420   5.516
 7900TIP3    H123664   2.519   0.477   5.455
 7900TIP3    H223665   2.395   0.390   5.468
 7901TIP3   OH223666   0.353   2.506   2.536
 7901TIP3    H123667   0.393   2.578   2.586
 7901TIP3    H223668   0.263   2.535   2.522
 7902TIP3   OH223669   4.835   0.134   5.551
 7902TIP3    H123670   4.765   0.198   5.540
 7902TIP3    H223671   4.909   0.173   5.504
 7903TIP3   OH223672   1.732   4.959   1.220
 7903TIP3    H123673   1.658   4.906   1.191
 7903TIP3    H223674   1.708   4.989   1.308
 7904TIP3   OH223675   5.391   2.320   4.643
 7904TIP3    H123676   5.385   2.413   4.625
 7904TIP3    H223677   5.303   2.296   4.674
 7905TIP3   OH223678   5.944   5.390   1.292
 7905TIP3    H123679   5.896   5.389   1.210
 7905TIP3    H223680   5.928   5.478   1.329
 7906TIP3   OH223681   7.139   6.005   1.646
 7906TIP3    H123682   7.088   6.025   1.724
 7906TIP3    H223683   7.073   5.986   1.579
 7907TIP3   OH223684   6.459   3.999   4.256
 7907TIP3    H123685   6.397   4.044   4.313
 7907TIP3    H223686   6.543   4.005   4.303
 7908TIP3   OH223687   4.274   3.413   4.612
 7908TIP3    H123688   4.250   3.500   4.645
 7908TIP3    H223689   4.361   3.424   4.575
 7909TIP3   OH223690   3.247   5.125   2.024
 7909TIP3    H123691   3.267   5.058   2.089
 7909TIP3    H223692   3.283   5.206   2.060
 7910TIP3   OH223693   5.055   0.936   2.451
 7910TIP3    H123694   5.056   0.884   2.370
 7910TIP3    H223695   5.138   0.914   2.494
 7911TIP3   OH223696   0.832   6.548   0.744
 7911TIP3    H123697   0.798   6.549   0.834
 7911TIP3    H223698   0.917   6.505   0.751
 7912TIP3   OH223699   2.772   3.022   0.481
 7912TIP3    H123700   2.695   2.973   0.453
 7912TIP3    H223701   2.752   3.113   0.461
 7913TIP3   OH223702   4.373   1.346   5.613
 7913TIP3    H123703   4.309   1.416   5.598
 7913TIP3    H223704   4.416   1.371   5.694
 7914TIP3   OH223705   2.745   4.581   3.395
 7914TIP3    H123706   2.802   4.523   3.344
 7914TIP3    H223707   2.722   4.529   3.473
 7915TIP3   OH223708   4.548   4.211   3.999
 7915TIP3    H123709   4.585   4.273   4.062
 7915TIP3    H223710   4.538   4.130   4.048
 7916TIP3   OH223711   5.283   4.570   0.114
 7916TIP3    H123712   5.189   4.589   0.108
 7916TIP3    H223713   5.303   4.524   0.032
 7917TIP3   OH223714   6.817   4.463   1.097
 7917TIP3    H123715   6.816   4.481   1.003
 7917TIP3    H223716   6.818   4.368   1.103
 7918TIP3   OH223717   7.053   2.885   1.212
 7918TIP3    H123718   7.088   2.878   1.301
 7918TIP3    H223719   7.123   2.850   1.157
 7919TIP3   OH223720   3.611   2.819   1.989
 7919TIP3    H123721   3.590   2.841   1.898
 7919TIP3    H223722   3.639   2.727   1.985
 7920TIP3   OH223723   2.101   5.024   5.843
 7920TIP3    H123724   2.056   4.981   5.916
 7920TIP3    H223725   2.043   5.097   5.819
 7921TIP3   OH223726   6.344   6.156   1.268
 7921TIP3    H123727   6.366   6.134   1.359
 7921TIP3    H223728   6.363   6.076   1.219
 7922TIP3   OH223729   5.190   2.994   0.889
 7922TIP3    H123730   5.160   3.066   0.945
 7922TIP3    H223731   5.137   3.001   0.810
 7923TIP3   OH223732   0.394   0.462   2.271
 7923TIP3    H123733   0.354   0.530   2.216
 7923TIP3    H223734   0.478   0.499   2.298
 7924TIP3   OH223735   0.739   2.940   2.271
 7924TIP3    H123736   0.730   2.931   2.176
 7924TIP3    H223737   0.685   2.871   2.308
 7925TIP3   OH223738   0.934   6.602   2.859
 7925TIP3    H123739   0.940   6.666   2.789
 7925TIP3    H223740   0.865   6.635   2.917
 7926TIP3   OH223741   5.815   6.741   5.752
 7926TIP3    H123742   5.753   6.668   5.757
 7926TIP3    H223743   5.901   6.700   5.758
 7927TIP3   OH223744   0.166   2.879   5.650
 7927TIP3    H123745   0.220   2.820   5.703
 7927TIP3    H223746   0.227   2.944   5.617
 7928TIP3   OH223747   4.604   6.528   4.123
 7928TIP3    H123748   4.686   6.573   4.104
 7928TIP3    H223749   4.543   6.560   4.057
 7929TIP3   OH223750   0.739   4.419   5.109
 7929TIP3    H123751   0.715   4.510   5.091
 7929TIP3    H223752   0.738   4.377   5.023
 7930TIP3   OH223753   2.264   0.519   0.318
 7930TIP3    H123754   2.347   0.513   0.271
 7930TIP3    H223755   2.204   0.464   0.267
 7931TIP3   OH223756   1.914   2.445   2.044
 7931TIP3    H123757   1.868   2.409   2.120
 7931TIP3    H223758   1.887   2.536   2.041
 7932TIP3   OH223759   4.455   2.756   1.726
 7932TIP3    H123760   4.507   2.828   1.692
 7932TIP3    H223761   4.502   2.677   1.699
 7933TIP3   OH223762   0.858   3.658   1.488
 7933TIP3    H123763   0.947   3.650   1.453
 7933TIP3    H223764   0.805   3.601   1.433
 7934TIP3   OH223765   6.119   0.556   4.505
 7934TIP3    H123766   6.062   0.554   4.582
 7934TIP3    H223767   6.208   0.559   4.540
 7935TIP3   OH223768   0.574   2.698   5.060
 7935TIP3    H123769   0.658   2.656   5.076
 7935TIP3    H223770   0.547   2.665   4.973
 7936TIP3   OH223771   4.409   3.755   0.054
 7936TIP3    H123772   4.377   3.781  -0.032
 7936TIP3    H223773   4.419   3.837   0.102
 7937TIP3   OH223774   0.412   1.939   3.853
 7937TIP3    H123775   0.376   1.852   3.873
 7937TIP3    H223776   0.382   1.994   3.926
 7938TIP3   OH223777   6.182   5.629   2.861
 7938TIP3    H123778   6.270   5.635   2.823
 7938TIP3    H223779   6.149   5.544   2.834
 7939TIP3   OH223780   2.858   4.430   1.871
 7939TIP3    H123781   2.762   4.427   1.864
 7939TIP3    H223782   2.879   4.522   1.856
 7940TIP3   OH223783   3.667   4.523   1.740
 7940TIP3    H123784   3.578   4.531   1.703
 7940TIP3    H223785   3.718   4.484   1.670
 7941TIP3   OH223786   5.168   3.180   1.368
 7941TIP3    H123787   5.157   3.151   1.458
 7941TIP3    H223788   5.183   3.099   1.319
 7942TIP3   OH223789   3.731   3.222   0.393
 7942TIP3    H123790   3.713   3.313   0.417
 7942TIP3    H223791   3.822   3.207   0.419
 7943TIP3   OH223792   0.622   4.260   1.843
 7943TIP3    H123793   0.530   4.248   1.864
 7943TIP3    H223794   0.628   4.240   1.750
 7944TIP3   OH223795   5.265   0.387   0.734
 7944TIP3    H123796   5.336   0.327   0.758
 7944TIP3    H223797   5.216   0.400   0.816
 7945TIP3   OH223798   0.262   2.899   0.627
 7945TIP3    H123799   0.282   2.849   0.706
 7945TIP3    H223800   0.167   2.901   0.624
 7946TIP3   OH223801   4.946   4.958   1.365
 7946TIP3    H123802   4.950   4.949   1.460
 7946TIP3    H223803   4.853   4.956   1.345
 7947TIP3   OH223804   3.195   6.059   1.901
 7947TIP3    H123805   3.219   6.151   1.887
 7947TIP3    H223806   3.196   6.048   1.996
 7948TIP3   OH223807   3.299   0.975   0.615
 7948TIP3    H123808   3.295   0.883   0.642
 7948TIP3    H223809   3.264   1.024   0.689
 7949TIP3   OH223810   2.057   1.054   2.919
 7949TIP3    H123811   2.108   1.132   2.941
 7949TIP3    H223812   2.116   1.002   2.863
 7950TIP3   OH223813   5.828   2.981   2.761
 7950TIP3    H123814   5.778   2.899   2.763
 7950TIP3    H223815   5.914   2.956   2.727
 7951TIP3   OH223816   1.812   5.007   0.780
 7951TIP3    H123817   1.829   5.070   0.850
 7951TIP3    H223818   1.896   4.962   0.768
 7952TIP3   OH223819   5.955   5.576   2.260
 7952TIP3    H123820   5.954   5.657   2.209
 7952TIP3    H223821   5.986   5.602   2.346
 7953TIP3   OH223822   5.806   5.960   3.179
 7953TIP3    H123823   5.812   5.868   3.207
 7953TIP3    H223824   5.800   6.009   3.261
 7954TIP3   OH223825   3.118   1.833   3.609
 7954TIP3    H123826   3.044   1.818   3.550
 7954TIP3    H223827   3.079   1.850   3.694
 7955TIP3   OH223828   2.359   6.641   1.416
 7955TIP3    H123829   2.339   6.670   1.327
 7955TIP3    H223830   2.375   6.547   1.406
 7956TIP3   OH223831   5.189   3.427   1.226
 7956TIP3    H123832   5.095   3.448   1.226
 7956TIP3    H223833   5.199   3.364   1.298
 7957TIP3   OH223834   5.446   0.161   0.279
 7957TIP3    H123835   5.370   0.179   0.223
 7957TIP3    H223836   5.437   0.069   0.304
 7958TIP3   OH223837   5.391   4.634   1.190
 7958TIP3    H123838   5.411   4.706   1.131
 7958TIP3    H223839   5.380   4.558   1.132
 7959TIP3   OH223840   2.168   5.339   4.082
 7959TIP3    H123841   2.238   5.395   4.046
 7959TIP3    H223842   2.199   5.250   4.067
 7960TIP3   OH223843   5.982   3.948   2.731
 7960TIP3    H123844   6.017   3.978   2.815
 7960TIP3    H223845   6.058   3.944   2.673
 7961TIP3   OH223846   0.127   6.565   2.598
 7961TIP3    H123847   0.113   6.537   2.689
 7961TIP3    H223848   0.203   6.623   2.603
 7962TIP3   OH223849   3.503   3.943   5.382
 7962TIP3    H123850   3.539   3.969   5.466
 7962TIP3    H223851   3.417   3.905   5.403
 7963TIP3   OH223852   0.286   1.366   5.680
 7963TIP3    H123853   0.195   1.389   5.663
 7963TIP3    H223854   0.337   1.431   5.631
 7964TIP3   OH223855   2.118   2.915   5.248
 7964TIP3    H123856   2.084   2.980   5.186
 7964TIP3    H223857   2.190   2.873   5.201
 7965TIP3   OH223858   0.119   0.127   0.452
 7965TIP3    H123859   0.114   0.179   0.373
 7965TIP3    H223860   0.190   0.167   0.503
 7966TIP3   OH223861   0.675   5.548   4.290
 7966TIP3    H123862   0.759   5.592   4.274
 7966TIP3    H223863   0.671   5.538   4.385
 7967TIP3   OH223864   1.885   4.878   5.201
 7967TIP3    H123865   1.870   4.791   5.164
 7967TIP3    H223866   1.815   4.889   5.265
 7968TIP3   OH223867   1.162   1.076   5.279
 7968TIP3    H123868   1.229   1.022   5.236
 7968TIP3    H223869   1.142   1.029   5.360
 7969TIP3   OH223870   3.858   6.327   0.057
 7969TIP3    H123871   3.819   6.342   0.143
 7969TIP3    H223872   3.837   6.407   0.008
 7970TIP3   OH223873   2.774   0.288   5.852
 7970TIP3    H123874   2.678   0.292   5.853
 7970TIP3    H223875   2.800   0.315   5.940
 7971TIP3   OH223876   2.944   3.850   3.217
 7971TIP3    H123877   3.005   3.790   3.174
 7971TIP3    H223878   2.982   3.937   3.203
 7972TIP3   OH223879   0.809   4.089   0.401
 7972TIP3    H123880   0.883   4.147   0.385
 7972TIP3    H223881   0.836   4.004   0.366
 7973TIP3   OH223882   4.862   0.301   3.097
 7973TIP3    H123883   4.822   0.219   3.128
 7973TIP3    H223884   4.903   0.338   3.175
 7974TIP3   OH223885   0.103   5.543   2.012
 7974TIP3    H123886   0.120   5.464   1.961
 7974TIP3    H223887   0.055   5.600   1.953
 7975TIP3   OH223888   5.097   5.623   5.421
 7975TIP3    H123889   5.152   5.700   5.409
 7975TIP3    H223890   5.158   5.552   5.438
 7976TIP3   OH223891   7.042   3.604   5.784
 7976TIP3    H123892   6.986   3.667   5.829
 7976TIP3    H223893   7.072   3.649   5.706
 7977TIP3   OH223894   5.859   4.986   1.831
 7977TIP3    H123895   5.816   5.005   1.747
 7977TIP3    H223896   5.941   4.944   1.807
 7978TIP3   OH223897   1.351   1.299   2.788
 7978TIP3    H123898   1.365   1.268   2.699
 7978TIP3    H223899   1.438   1.326   2.818
 7979TIP3   OH223900   5.288   6.567   4.710
 7979TIP3    H123901   5.202   6.597   4.679
 7979TIP3    H223902   5.341   6.647   4.712
 7980TIP3   OH223903   4.738   5.247   5.730
 7980TIP3    H123904   4.704   5.332   5.759
 7980TIP3    H223905   4.665   5.206   5.683
 7981TIP3   OH223906   6.954   5.203   5.133
 7981TIP3    H123907   7.005   5.283   5.133
 7981TIP3    H223908   6.863   5.232   5.144
 7982TIP3   OH223909   5.952   0.219   0.868
 7982TIP3    H123910   5.907   0.237   0.786
 7982TIP3    H223911   5.932   0.295   0.924
 7983TIP3   OH223912   5.709   5.010   3.730
 7983TIP3    H123913   5.733   4.919   3.713
 7983TIP3    H223914   5.662   5.007   3.813
 7984TIP3   OH223915   1.433   0.167   0.541
 7984TIP3    H123916   1.501   0.146   0.476
 7984TIP3    H223917   1.478   0.160   0.625
 7985TIP3   OH223918   5.852   2.997   4.556
 7985TIP3    H123919   5.836   3.054   4.632
 7985TIP3    H223920   5.774   2.943   4.549
 7986TIP3   OH223921   4.922   5.805   2.400
 7986TIP3    H123922   4.838   5.841   2.373
 7986TIP3    H223923   4.985   5.838   2.336
 7987TIP3   OH223924   0.274   5.419   0.459
 7987TIP3    H123925   0.328   5.365   0.401
 7987TIP3    H223926   0.328   5.495   0.479
 7988TIP3   OH223927   3.365   5.553   2.527
 7988TIP3    H123928   3.316   5.576   2.448
 7988TIP3    H223929   3.298   5.533   2.592
 7989TIP3   OH223930   4.111   4.694   4.447
 7989TIP3    H123931   4.156   4.697   4.362
 7989TIP3    H223932   4.032   4.745   4.434
 7990TIP3   OH223933   0.454   0.467   3.863
 7990TIP3    H123934   0.505   0.542   3.835
 7990TIP3    H223935   0.518   0.396   3.872
 7991TIP3   OH223936   3.571   4.220   3.355
 7991TIP3    H123937   3.534   4.273   3.285
 7991TIP3    H223938   3.502   4.157   3.376
 7992TIP3   OH223939   5.929   6.465   1.748
 7992TIP3    H123940   5.921   6.447   1.655
 7992TIP3    H223941   5.884   6.391   1.791
 7993TIP3   OH223942   0.920   1.686   5.517
 7993TIP3    H123943   0.876   1.711   5.599
 7993TIP3    H223944   0.888   1.748   5.452
 7994TIP3   OH223945   3.421   6.552   3.973
 7994TIP3    H123946   3.398   6.459   3.973
 7994TIP3    H223947   3.417   6.578   4.065
 7995TIP3   OH223948   5.055   3.765   3.069
 7995TIP3    H123949   5.041   3.859   3.081
 7995TIP3    H223950   4.979   3.735   3.020
 7996TIP3   OH223951   3.880   1.227   3.629
 7996TIP3    H123952   3.917   1.154   3.579
 7996TIP3    H223953   3.835   1.185   3.703
 7997TIP3   OH223954   1.843   3.353   4.153
 7997TIP3    H123955   1.760   3.382   4.193
 7997TIP3    H223956   1.871   3.428   4.101
 7998TIP3   OH223957  -0.003   6.724   5.773
 7998TIP3    H123958  -0.086   6.767   5.753
 7998TIP3    H223959   0.005   6.730   5.868
 7999TIP3   OH223960   4.589   5.695   2.692
 7999TIP3    H123961   4.547   5.756   2.631
 7999TIP3    H223962   4.656   5.747   2.736
 8000TIP3   OH223963   1.215   5.117   0.453
 8000TIP3    H123964   1.237   5.182   0.520
 8000TIP3    H223965   1.139   5.154   0.407
 8001TIP3   OH223966   3.447   0.041   3.163
 8001TIP3    H123967   3.500   0.014   3.088
 8001TIP3    H223968   3.476  -0.015   3.235
 8002TIP3   OH223969   4.311   5.007   2.203
 8002TIP3    H123970   4.332   5.100   2.196
 8002TIP3    H223971   4.235   5.004   2.261
 8003TIP3   OH223972   2.908   0.923   4.964
 8003TIP3    H123973   2.948   0.949   4.881
 8003TIP3    H223974   2.817   0.905   4.942
 8004TIP3   OH223975   6.942   3.304   2.987
 8004TIP3    H123976   7.030   3.338   2.998
 8004TIP3    H223977   6.923   3.314   2.894
 8005TIP3   OH223978   0.471   6.036   4.701
 8005TIP3    H123979   0.473   6.045   4.796
 8005TIP3    H223980   0.413   5.961   4.686
 8006TIP3   OH223981   1.026   4.446   3.588
 8006TIP3    H123982   1.000   4.528   3.631
 8006TIP3    H223983   0.951   4.423   3.533
 8007TIP3   OH223984   6.018   5.909   2.992
 8007TIP3    H123985   5.947   5.946   3.045
 8007TIP3    H223986   6.062   5.984   2.954
 8008TIP3   OH223987   6.732   1.601   4.718
 8008TIP3    H123988   6.812   1.589   4.769
 8008TIP3    H223989   6.745   1.547   4.640
 8009TIP3   OH223990   3.821   0.712   3.097
 8009TIP3    H123991   3.753   0.665   3.147
 8009TIP3    H223992   3.868   0.643   3.050
 8010TIP3   OH223993   5.904   5.517   1.046
 8010TIP3    H123994   5.986   5.567   1.049
 8010TIP3    H223995   5.899   5.484   0.956
 8011TIP3   OH223996   1.555   3.669   1.043
 8011TIP3    H123997   1.589   3.716   1.119
 8011TIP3    H223998   1.629   3.618   1.011
 8012TIP3   OH223999   1.471   1.241   0.974
 8012TIP3    H124000   1.470   1.198   1.059
 8012TIP3    H224001   1.535   1.192   0.922
 8013TIP3   OH224002   2.443   1.602   5.168
 8013TIP3    H124003   2.483   1.648   5.094
 8013TIP3    H224004   2.504   1.531   5.188
 8014TIP3   OH224005   2.921   2.584   2.356
 8014TIP3    H124006   2.949   2.583   2.447
 8014TIP3    H224007   2.864   2.660   2.349
 8015TIP3   OH224008   1.696   0.965   5.353
 8015TIP3    H124009   1.713   1.031   5.420
 8015TIP3    H224010   1.610   0.930   5.375
 8016TIP3   OH224011   1.134   4.671   3.057
 8016TIP3    H124012   1.115   4.765   3.054
 8016TIP3    H224013   1.205   4.658   2.995
 8017TIP3   OH224014   6.678   3.052   1.118
 8017TIP3    H124015   6.737   3.125   1.137
 8017TIP3    H224016   6.596   3.094   1.092
 8018TIP3   OH224017   1.352   2.458   4.895
 8018TIP3    H124018   1.382   2.442   4.984
 8018TIP3    H224019   1.335   2.371   4.859
 8019TIP3   OH224020   5.537   3.042   1.381
 8019TIP3    H124021   5.481   3.073   1.452
 8019TIP3    H224022   5.502   2.956   1.359
 8020TIP3   OH224023   0.358   5.627   5.708
 8020TIP3    H124024   0.413   5.632   5.786
 8020TIP3    H224025   0.293   5.560   5.728
 8021TIP3   OH224026   5.881   2.371   0.529
 8021TIP3    H124027   5.802   2.417   0.502
 8021TIP3    H224028   5.953   2.423   0.494
 8022TIP3   OH224029   5.016   2.042   5.516
 8022TIP3    H124030   5.060   1.959   5.499
 8022TIP3    H224031   4.922   2.022   5.510
 8023TIP3   OH224032   6.793   1.246   5.442
 8023TIP3    H124033   6.835   1.291   5.516
 8023TIP3    H224034   6.760   1.317   5.387
 8024TIP3   OH224035   0.718   0.718   2.006
 8024TIP3    H124036   0.736   0.686   1.918
 8024TIP3    H224037   0.686   0.642   2.054
 8025TIP3   OH224038   0.074   5.464   1.319
 8025TIP3    H124039   0.041   5.554   1.314
 8025TIP3    H224040   0.169   5.473   1.320
 8026TIP3   OH224041   3.215   0.988   2.980
 8026TIP3    H124042   3.289   0.929   2.997
 8026TIP3    H224043   3.210   1.042   3.059
 8027TIP3   OH224044   6.556   2.620   3.993
 8027TIP3    H124045   6.611   2.614   4.071
 8027TIP3    H224046   6.605   2.572   3.925
 8028TIP3   OH224047   4.270   5.551   1.505
 8028TIP3    H124048   4.341   5.515   1.560
 8028TIP3    H224049   4.196   5.492   1.521
 8029TIP3   OH224050   5.306   0.663   0.672
 8029TIP3    H124051   5.272   0.574   0.668
 8029TIP3    H224052   5.390   0.655   0.717
 8030TIP3   OH224053   2.013   0.586   0.591
 8030TIP3    H124054   2.072   0.596   0.665
 8030TIP3    H224055   2.018   0.670   0.545
 8031TIP3   OH224056   6.327   2.646   3.245
 8031TIP3    H124057   6.276   2.589   3.303
 8031TIP3    H224058   6.296   2.624   3.157
 8032TIP3   OH224059   2.698   3.490   4.799
 8032TIP3    H124060   2.786   3.464   4.825
 8032TIP3    H224061   2.658   3.522   4.880
 8033TIP3   OH224062   0.238   0.817   3.827
 8033TIP3    H124063   0.189   0.820   3.745
 8033TIP3    H224064   0.207   0.893   3.876
 8034TIP3   OH224065   6.810   0.409   2.499
 8034TIP3    H124066   6.816   0.500   2.529
 8034TIP3    H224067   6.747   0.412   2.427
 8035TIP3   OH224068   7.209   2.963   5.403
 8035TIP3    H124069   7.181   2.909   5.477
 8035TIP3    H224070   7.301   2.982   5.420
 8036TIP3   OH224071   1.255   5.626   2.770
 8036TIP3    H124072   1.257   5.574   2.689
 8036TIP3    H224073   1.344   5.619   2.805
 8037TIP3   OH224074   3.429   6.426   5.504
 8037TIP3    H124075   3.382   6.411   5.421
 8037TIP3    H224076   3.502   6.484   5.480
 8038TIP3   OH224077   5.771   3.019   0.811
 8038TIP3    H124078   5.828   2.970   0.750
 8038TIP3    H224079   5.685   3.019   0.769
 8039TIP3   OH224080   0.505   0.846   1.305
 8039TIP3    H124081   0.545   0.812   1.225
 8039TIP3    H224082   0.579   0.871   1.361
 8040TIP3   OH224083   5.917   5.391   5.760
 8040TIP3    H124084   5.884   5.312   5.716
 8040TIP3    H224085   5.892   5.463   5.702
 8041TIP3   OH224086   0.665   4.208   0.622
 8041TIP3    H124087   0.731   4.238   0.684
 8041TIP3    H224088   0.713   4.155   0.559
 8042TIP3   OH224089   3.781   4.256   2.352
 8042TIP3    H124090   3.764   4.322   2.285
 8042TIP3    H224091   3.859   4.210   2.321
 8043TIP3   OH224092   6.410   3.659   3.500
 8043TIP3    H124093   6.440   3.748   3.517
 8043TIP3    H224094   6.411   3.651   3.404
 8044TIP3   OH224095   6.393   5.846   4.582
 8044TIP3    H124096   6.310   5.875   4.617
 8044TIP3    H224097   6.438   5.927   4.556
 8045TIP3   OH224098   1.978   2.879   4.709
 8045TIP3    H124099   1.898   2.838   4.674
 8045TIP3    H224100   2.029   2.900   4.631
 8046TIP3   OH224101   3.554   4.012   5.627
 8046TIP3    H124102   3.616   3.957   5.675
 8046TIP3    H224103   3.595   4.098   5.624
 8047TIP3   OH224104   5.039   3.671   2.733
 8047TIP3    H124105   4.974   3.634   2.793
 8047TIP3    H224106   5.006   3.759   2.713
 8048TIP3   OH224107   1.531   1.732   5.084
 8048TIP3    H124108   1.556   1.766   5.170
 8048TIP3    H224109   1.495   1.645   5.102
 8049TIP3   OH224110   6.329   2.618   1.660
 8049TIP3    H124111   6.364   2.535   1.627
 8049TIP3    H224112   6.396   2.683   1.637
 8050TIP3   OH224113   5.210   0.791   1.628
 8050TIP3    H124114   5.191   0.798   1.535
 8050TIP3    H224115   5.124   0.795   1.670
 8051TIP3   OH224116   0.737   5.250   5.232
 8051TIP3    H124117   0.693   5.186   5.176
 8051TIP3    H224118   0.701   5.235   5.319
 8052TIP3   OH224119   5.691   3.653   4.568
 8052TIP3    H124120   5.704   3.675   4.476
 8052TIP3    H224121   5.612   3.600   4.569
 8053TIP3   OH224122   0.064   0.243   3.688
 8053TIP3    H124123   0.142   0.233   3.743
 8053TIP3    H224124   0.096   0.290   3.611
 8054TIP3   OH224125   0.445   6.474   3.187
 8054TIP3    H124126   0.398   6.421   3.251
 8054TIP3    H224127   0.478   6.549   3.236
 8055TIP3   OH224128   1.149   2.394   5.580
 8055TIP3    H124129   1.073   2.376   5.525
 8055TIP3    H224130   1.127   2.476   5.626
 8056TIP3   OH224131   1.356   4.982   3.018
 8056TIP3    H124132   1.372   4.888   3.010
 8056TIP3    H224133   1.261   4.991   3.014
 8057TIP3   OH224134   5.896   1.123   5.424
 8057TIP3    H124135   5.985   1.118   5.390
 8057TIP3    H224136   5.848   1.057   5.374
 8058TIP3   OH224137   2.514   2.377   4.315
 8058TIP3    H124138   2.475   2.292   4.297
 8058TIP3    H224139   2.499   2.428   4.236
 8059TIP3   OH224140   3.321   3.232   4.894
 8059TIP3    H124141   3.291   3.149   4.929
 8059TIP3    H224142   3.258   3.253   4.824
 8060TIP3   OH224143   0.868   2.003   1.833
 8060TIP3    H124144   0.875   1.998   1.738
 8060TIP3    H224145   0.827   1.921   1.859
 8061TIP3   OH224146   2.208   1.927   5.242
 8061TIP3    H124147   2.285   1.982   5.253
 8061TIP3    H224148   2.151   1.948   5.316
 8062TIP3   OH224149   4.002   0.898   4.743
 8062TIP3    H124150   3.969   0.823   4.693
 8062TIP3    H224151   3.967   0.885   4.831
 8063TIP3   OH224152   2.712   4.536   0.854
 8063TIP3    H124153   2.755   4.573   0.777
 8063TIP3    H224154   2.757   4.453   0.869
 8064TIP3   OH224155   2.881   3.451   3.605
 8064TIP3    H124156   2.902   3.541   3.582
 8064TIP3    H224157   2.796   3.456   3.648
 8065TIP3   OH224158   3.175   5.125   1.301
 8065TIP3    H124159   3.238   5.182   1.344
 8065TIP3    H224160   3.214   5.038   1.307
 8066TIP3   OH224161   3.786   5.425   4.375
 8066TIP3    H124162   3.827   5.481   4.441
 8066TIP3    H224163   3.755   5.349   4.424
 8067TIP3   OH224164   2.639   0.703   2.951
 8067TIP3    H124165   2.572   0.749   3.002
 8067TIP3    H224166   2.624   0.610   2.970
 8068TIP3   OH224167   7.098   4.216   5.861
 8068TIP3    H124168   7.031   4.256   5.805
 8068TIP3    H224169   7.154   4.167   5.801
 8069TIP3   OH224170   5.651   6.725   0.649
 8069TIP3    H124171   5.661   6.640   0.606
 8069TIP3    H224172   5.574   6.715   0.705
 8070TIP3   OH224173   2.004   3.572   3.794
 8070TIP3    H124174   1.983   3.663   3.810
 8070TIP3    H224175   1.920   3.526   3.798
 8071TIP3   OH224176   1.143   2.964   0.287
 8071TIP3    H124177   1.053   2.961   0.255
 8071TIP3    H224178   1.185   2.886   0.251
 8072TIP3   OH224179   1.171   5.924   1.554
 8072TIP3    H124180   1.085   5.896   1.585
 8072TIP3    H224181   1.229   5.849   1.573
 8073TIP3   OH224182   5.814  -0.002   0.990
 8073TIP3    H124183   5.863   0.053   0.929
 8073TIP3    H224184   5.778   0.059   1.054
 8074TIP3   OH224185   6.169   6.656   0.430
 8074TIP3    H124186   6.091   6.707   0.453
 8074TIP3    H224187   6.200   6.621   0.513
 8075TIP3   OH224188   4.928   2.200   3.247
 8075TIP3    H124189   4.937   2.107   3.227
 8075TIP3    H224190   4.942   2.206   3.342
 8076TIP3   OH224191   2.636   3.621   2.255
 8076TIP3    H124192   2.699   3.668   2.308
 8076TIP3    H224193   2.552   3.665   2.273
 8077TIP3   OH224194   0.930   2.675   0.086
 8077TIP3    H124195   0.994   2.676   0.015
 8077TIP3    H224196   0.963   2.608   0.146
 8078TIP3   OH224197   1.984   0.143   3.299
 8078TIP3    H124198   2.029   0.097   3.227
 8078TIP3    H224199   2.050   0.203   3.334
 8079TIP3   OH224200   3.956   3.896   4.414
 8079TIP3    H124201   3.894   3.842   4.365
 8079TIP3    H224202   4.042   3.862   4.389
 8080TIP3   OH224203   1.880   0.895   3.931
 8080TIP3    H124204   1.798   0.856   3.961
 8080TIP3    H224205   1.861   0.989   3.925
 8081TIP3   OH224206   0.091   1.525   3.228
 8081TIP3    H124207   0.008   1.561   3.259
 8081TIP3    H224208   0.065   1.453   3.170
 8082TIP3   OH224209   7.154   1.849   1.457
 8082TIP3    H124210   7.222   1.787   1.429
 8082TIP3    H224211   7.109   1.805   1.529
 8083TIP3   OH224212   6.730   2.782   0.723
 8083TIP3    H124213   6.750   2.690   0.708
 8083TIP3    H224214   6.757   2.798   0.814
 8084TIP3   OH224215   3.052   4.663   5.214
 8084TIP3    H124216   2.979   4.681   5.274
 8084TIP3    H224217   3.122   4.629   5.270
 8085TIP3   OH224218   5.878   2.294   0.805
 8085TIP3    H124219   5.872   2.346   0.725
 8085TIP3    H224220   5.955   2.327   0.850
 8086TIP3   OH224221   1.468   3.918   5.554
 8086TIP3    H124222   1.558   3.909   5.585
 8086TIP3    H224223   1.430   3.830   5.563
 8087TIP3   OH224224   4.072   0.023   5.909
 8087TIP3    H124225   4.086  -0.071   5.910
 8087TIP3    H224226   4.154   0.059   5.875
 8088TIP3   OH224227   4.943   4.728   3.595
 8088TIP3    H124228   4.848   4.717   3.594
 8088TIP3    H224229   4.960   4.780   3.673
 8089TIP3   OH224230   6.823   4.320   3.731
 8089TIP3    H124231   6.746   4.282   3.773
 8089TIP3    H224232   6.859   4.380   3.796
 8090TIP3   OH224233   1.477   0.842   2.736
 8090TIP3    H124234   1.435   0.877   2.815
 8090TIP3    H224235   1.417   0.774   2.706
 8091TIP3   OH224236   0.839   4.948   0.175
 8091TIP3    H124237   0.787   5.010   0.227
 8091TIP3    H224238   0.814   4.967   0.084
 8092TIP3   OH224239   7.091   5.504   3.351
 8092TIP3    H124240   7.119   5.530   3.439
 8092TIP3    H224241   7.003   5.469   3.364
 8093TIP3   OH224242   4.514   5.624   4.131
 8093TIP3    H124243   4.420   5.635   4.142
 8093TIP3    H224244   4.536   5.680   4.056
 8094TIP3   OH224245   4.768   2.882   1.144
 8094TIP3    H124246   4.715   2.916   1.217
 8094TIP3    H224247   4.850   2.855   1.186
 8095TIP3   OH224248   1.878   6.169   1.064
 8095TIP3    H124249   1.866   6.075   1.077
 8095TIP3    H224250   1.830   6.188   0.983
 8096TIP3   OH224251   4.722   4.451   1.639
 8096TIP3    H124252   4.792   4.492   1.590
 8096TIP3    H224253   4.754   4.449   1.729
 8097TIP3   OH224254   0.495   5.172   2.229
 8097TIP3    H124255   0.518   5.080   2.236
 8097TIP3    H224256   0.511   5.208   2.316
 8098TIP3   OH224257   4.354   4.588   3.923
 8098TIP3    H124258   4.269   4.626   3.903
 8098TIP3    H224259   4.338   4.494   3.932
 8099TIP3   OH224260   1.031   0.640   4.035
 8099TIP3    H124261   1.021   0.708   3.969
 8099TIP3    H224262   1.101   0.672   4.093
 8100TIP3   OH224263   6.064   2.408   2.428
 8100TIP3    H124264   6.006   2.417   2.503
 8100TIP3    H224265   6.078   2.314   2.418
 8101TIP3   OH224266   4.593   1.776   2.265
 8101TIP3    H124267   4.516   1.830   2.285
 8101TIP3    H224268   4.581   1.750   2.173
 8102TIP3   OH224269   4.459   5.891   0.131
 8102TIP3    H124270   4.373   5.893   0.090
 8102TIP3    H224271   4.487   5.982   0.133
 8103TIP3   OH224272   2.262   4.947   3.036
 8103TIP3    H124273   2.221   4.917   3.117
 8103TIP3    H224274   2.344   4.898   3.032
 8104TIP3   OH224275   1.868   5.406   1.715
 8104TIP3    H124276   1.863   5.431   1.622
 8104TIP3    H224277   1.777   5.400   1.743
 8105TIP3   OH224278   4.513   2.639   0.528
 8105TIP3    H124279   4.508   2.561   0.473
 8105TIP3    H224280   4.563   2.612   0.604
 8106TIP3   OH224281   5.732   1.711   3.572
 8106TIP3    H124282   5.683   1.649   3.517
 8106TIP3    H224283   5.811   1.730   3.523
 8107TIP3   OH224284   4.167   6.155   2.976
 8107TIP3    H124285   4.223   6.077   2.983
 8107TIP3    H224286   4.111   6.151   3.053
 8108TIP3   OH224287   5.310   2.190   0.701
 8108TIP3    H124288   5.371   2.257   0.669
 8108TIP3    H224289   5.330   2.181   0.794
 8109TIP3   OH224290   3.854   4.721   2.752
 8109TIP3    H124291   3.825   4.674   2.830
 8109TIP3    H224292   3.780   4.776   2.728
 8110TIP3   OH224293   1.648   1.915   1.611
 8110TIP3    H124294   1.595   1.916   1.531
 8110TIP3    H224295   1.735   1.943   1.583
 8111TIP3   OH224296   4.936   5.078   1.878
 8111TIP3    H124297   5.017   5.041   1.913
 8111TIP3    H224298   4.877   5.082   1.952
 8112TIP3   OH224299   5.695   5.740   0.517
 8112TIP3    H124300   5.641   5.694   0.582
 8112TIP3    H224301   5.784   5.710   0.536
 8113TIP3   OH224302   2.560   6.324   0.072
 8113TIP3    H124303   2.585   6.413   0.046
 8113TIP3    H224304   2.469   6.316   0.045
 8114TIP3   OH224305   2.745   6.313   4.178
 8114TIP3    H124306   2.706   6.227   4.193
 8114TIP3    H224307   2.754   6.350   4.266
 8115TIP3   OH224308   5.034   2.610   1.059
 8115TIP3    H124309   5.101   2.648   1.002
 8115TIP3    H224310   4.951   2.632   1.017
 8116TIP3   OH224311   4.519   5.936   3.663
 8116TIP3    H124312   4.560   5.938   3.577
 8116TIP3    H224313   4.589   5.962   3.723
 8117TIP3   OH224314   1.106   4.911   4.291
 8117TIP3    H124315   1.020   4.867   4.296
 8117TIP3    H224316   1.085   5.004   4.289
 8118TIP3   OH224317   2.534   2.513   1.637
 8118TIP3    H124318   2.493   2.444   1.690
 8118TIP3    H224319   2.610   2.471   1.598
 8119TIP3   OH224320   6.854   2.846   1.878
 8119TIP3    H124321   6.917   2.894   1.931
 8119TIP3    H224322   6.790   2.911   1.851
 8120TIP3   OH224323   1.892   1.951   5.336
 8120TIP3    H124324   1.907   1.857   5.322
 8120TIP3    H224325   1.848   1.980   5.256
 8121TIP3   OH224326   6.202   3.116   1.164
 8121TIP3    H124327   6.155   3.045   1.208
 8121TIP3    H224328   6.148   3.135   1.087
 8122TIP3   OH224329   7.130   4.385   0.789
 8122TIP3    H124330   7.035   4.372   0.784
 8122TIP3    H224331   7.147   4.457   0.729
 8123TIP3   OH224332   3.686   2.089   0.857
 8123TIP3    H124333   3.629   2.139   0.915
 8123TIP3    H224334   3.626   2.031   0.810
 8124TIP3   OH224335   4.788   1.164   2.103
 8124TIP3    H124336   4.791   1.071   2.082
 8124TIP3    H224337   4.880   1.189   2.110
 8125TIP3   OH224338   3.942   4.367   5.073
 8125TIP3    H124339   3.955   4.325   4.988
 8125TIP3    H224340   4.029   4.396   5.099
 8126TIP3   OH224341   2.319   6.120   1.571
 8126TIP3    H124342   2.326   6.144   1.663
 8126TIP3    H224343   2.331   6.025   1.570
 8127TIP3   OH224344   0.281   5.224   5.458
 8127TIP3    H124345   0.231   5.305   5.456
 8127TIP3    H224346   0.337   5.232   5.536
 8128TIP3   OH224347   3.601   3.098   3.402
 8128TIP3    H124348   3.530   3.144   3.448
 8128TIP3    H224349   3.634   3.163   3.339
 8129TIP3   OH224350   4.295   4.104   5.264
 8129TIP3    H124351   4.349   4.078   5.190
 8129TIP3    H224352   4.208   4.070   5.244
 8130TIP3   OH224353   0.285   1.887   5.362
 8130TIP3    H124354   0.267   1.920   5.450
 8130TIP3    H224355   0.377   1.910   5.347
 8131TIP3   OH224356   6.846   1.917   1.624
 8131TIP3    H124357   6.874   1.849   1.686
 8131TIP3    H224358   6.855   1.999   1.673
 8132TIP3   OH224359   0.134   5.635   2.451
 8132TIP3    H124360   0.166   5.604   2.366
 8132TIP3    H224361   0.136   5.557   2.507
 8133TIP3   OH224362   3.160   2.224   1.025
 8133TIP3    H124363   3.187   2.147   0.975
 8133TIP3    H224364   3.135   2.190   1.110
 8134TIP3   OH224365   1.972   3.408   3.507
 8134TIP3    H124366   2.066   3.397   3.516
 8134TIP3    H224367   1.941   3.427   3.596
 8135TIP3   OH224368   3.585   5.322   1.764
 8135TIP3    H124369   3.658   5.263   1.781
 8135TIP3    H224370   3.582   5.380   1.840
 8136TIP3   OH224371   0.037   1.156   1.340
 8136TIP3    H124372  -0.016   1.221   1.385
 8136TIP3    H224373  -0.023   1.115   1.277
 8137TIP3   OH224374   1.301   6.180   3.532
 8137TIP3    H124375   1.260   6.097   3.507
 8137TIP3    H224376   1.314   6.226   3.449
 8138TIP3   OH224377   2.979   6.732   3.403
 8138TIP3    H124378   3.029   6.660   3.365
 8138TIP3    H224379   2.946   6.698   3.486
 8139TIP3   OH224380   4.525   1.950   1.397
 8139TIP3    H124381   4.482   1.968   1.314
 8139TIP3    H224382   4.457   1.961   1.463
 8140TIP3   OH224383   5.880   0.276   4.567
 8140TIP3    H124384   5.848   0.302   4.480
 8140TIP3    H224385   5.889   0.181   4.562
 8141TIP3   OH224386   1.380   3.299   3.131
 8141TIP3    H124387   1.460   3.307   3.183
 8141TIP3    H224388   1.372   3.206   3.113
 8142TIP3   OH224389   5.747   0.217   4.309
 8142TIP3    H124390   5.805   0.142   4.296
 8142TIP3    H224391   5.659   0.181   4.298
 8143TIP3   OH224392   5.003   6.176   5.421
 8143TIP3    H124393   4.953   6.102   5.454
 8143TIP3    H224394   4.939   6.228   5.371
 8144TIP3   OH224395   5.991   6.479   2.498
 8144TIP3    H124396   6.076   6.453   2.532
 8144TIP3    H224397   5.963   6.550   2.555
 8145TIP3   OH224398   6.937   6.686   3.717
 8145TIP3    H124399   6.870   6.619   3.703
 8145TIP3    H224400   6.891   6.769   3.706
 8146TIP3   OH224401   0.843   5.716   0.273
 8146TIP3    H124402   0.843   5.707   0.178
 8146TIP3    H224403   0.766   5.666   0.302
 8147TIP3   OH224404   6.984   4.346   1.387
 8147TIP3    H124405   6.961   4.260   1.352
 8147TIP3    H224406   7.040   4.385   1.320
 8148TIP3   OH224407   3.894   3.202   2.856
 8148TIP3    H124408   3.826   3.268   2.846
 8148TIP3    H224409   3.873   3.136   2.789
 8149TIP3   OH224410   4.661   5.496   5.821
 8149TIP3    H124411   4.717   5.572   5.804
 8149TIP3    H224412   4.656   5.492   5.917
 8150TIP3   OH224413   7.009   5.580   0.901
 8150TIP3    H124414   7.048   5.526   0.832
 8150TIP3    H224415   7.014   5.526   0.980
 8151TIP3   OH224416   5.286   6.119   4.481
 8151TIP3    H124417   5.210   6.174   4.464
 8151TIP3    H224418   5.273   6.042   4.425
 8152TIP3   OH224419   5.901   2.304   1.305
 8152TIP3    H124420   5.864   2.283   1.391
 8152TIP3    H224421   5.854   2.247   1.244
 8153TIP3   OH224422   3.118   6.280   1.647
 8153TIP3    H124423   3.176   6.311   1.716
 8153TIP3    H224424   3.071   6.358   1.618
 8154TIP3   OH224425   5.207   2.920   5.166
 8154TIP3    H124426   5.142   2.973   5.214
 8154TIP3    H224427   5.156   2.850   5.127
 8155TIP3   OH224428   4.000   5.072   2.914
 8155TIP3    H124429   3.930   5.082   2.850
 8155TIP3    H224430   4.062   5.012   2.873
 8156TIP3   OH224431   4.283   6.025   3.370
 8156TIP3    H124432   4.201   6.068   3.345
 8156TIP3    H224433   4.329   6.091   3.422
 8157TIP3   OH224434   5.416   5.850   4.172
 8157TIP3    H124435   5.356   5.853   4.098
 8157TIP3    H224436   5.360   5.853   4.249
 8158TIP3   OH224437   1.346   1.301   4.383
 8158TIP3    H124438   1.333   1.273   4.292
 8158TIP3    H224439   1.267   1.272   4.429
 8159TIP3   OH224440   5.060   0.950   3.447
 8159TIP3    H124441   4.967   0.975   3.442
 8159TIP3    H224442   5.107   1.028   3.417
 8160TIP3   OH224443   6.449   0.229   3.455
 8160TIP3    H124444   6.467   0.319   3.428
 8160TIP3    H224445   6.353   0.221   3.452
 8161TIP3   OH224446   4.535   3.259   1.485
 8161TIP3    H124447   4.496   3.266   1.398
 8161TIP3    H224448   4.487   3.186   1.526
 8162TIP3   OH224449   2.916   0.899   5.388
 8162TIP3    H124450   2.910   0.846   5.468
 8162TIP3    H224451   2.826   0.921   5.367
 8163TIP3   OH224452   6.763   1.232   5.796
 8163TIP3    H124453   6.771   1.287   5.718
 8163TIP3    H224454   6.784   1.290   5.869
 8164TIP3   OH224455   4.793   3.385   2.434
 8164TIP3    H124456   4.745   3.319   2.483
 8164TIP3    H224457   4.863   3.337   2.390
 8165TIP3   OH224458   0.603   0.640   1.102
 8165TIP3    H124459   0.663   0.714   1.092
 8165TIP3    H224460   0.618   0.610   1.192
 8166TIP3   OH224461   4.382   2.183   1.255
 8166TIP3    H124462   4.456   2.228   1.214
 8166TIP3    H224463   4.305   2.227   1.220
 8167TIP3   OH224464   4.202   6.858   5.271
 8167TIP3    H124465   4.204   6.860   5.367
 8167TIP3    H224466   4.160   6.775   5.250
 8168TIP3   OH224467   0.479   0.791   2.955
 8168TIP3    H124468   0.551   0.851   2.934
 8168TIP3    H224469   0.465   0.801   3.049
 8169TIP3   OH224470   1.396   5.859   3.830
 8169TIP3    H124471   1.393   5.953   3.810
 8169TIP3    H224472   1.313   5.825   3.797
 8170TIP3   OH224473   3.046   4.514   3.059
 8170TIP3    H124474   3.035   4.434   3.110
 8170TIP3    H224475   2.961   4.558   3.064
 8171TIP3   OH224476   1.384   3.013   1.687
 8171TIP3    H124477   1.365   3.100   1.722
 8171TIP3    H224478   1.298   2.971   1.680
 8172TIP3   OH224479   6.462   1.893   5.205
 8172TIP3    H124480   6.408   1.836   5.260
 8172TIP3    H224481   6.552   1.867   5.225
 8173TIP3   OH224482   0.310   5.129   1.983
 8173TIP3    H124483   0.243   5.071   2.020
 8173TIP3    H224484   0.351   5.169   2.060
 8174TIP3   OH224485   4.722   5.135   5.016
 8174TIP3    H124486   4.782   5.066   4.989
 8174TIP3    H224487   4.780   5.206   5.045
 8175TIP3   OH224488   5.389   6.103   5.418
 8175TIP3    H124489   5.412   6.052   5.496
 8175TIP3    H224490   5.389   6.194   5.449
 8176TIP3   OH224491   4.119   4.847   2.806
 8176TIP3    H124492   4.195   4.842   2.748
 8176TIP3    H224493   4.046   4.815   2.753
 8177TIP3   OH224494   0.073   4.512   4.188
 8177TIP3    H124495   0.051   4.536   4.098
 8177TIP3    H224496   0.115   4.426   4.181
 8178TIP3   OH224497   0.200   5.516   3.150
 8178TIP3    H124498   0.290   5.500   3.122
 8178TIP3    H224499   0.164   5.429   3.167
 8179TIP3   OH224500   6.991   1.939   4.210
 8179TIP3    H124501   7.075   1.927   4.255
 8179TIP3    H224502   6.983   1.862   4.154
 8180TIP3   OH224503   4.951   1.465   3.935
 8180TIP3    H124504   4.905   1.384   3.958
 8180TIP3    H224505   4.883   1.520   3.897
 8181TIP3   OH224506   6.740   2.622   4.228
 8181TIP3    H124507   6.799   2.548   4.211
 8181TIP3    H224508   6.720   2.614   4.322
 8182TIP3   OH224509   3.667   0.560   1.477
 8182TIP3    H124510   3.761   0.573   1.486
 8182TIP3    H224511   3.646   0.490   1.539
 8183TIP3   OH224512   2.283   6.806   4.053
 8183TIP3    H124513   2.230   6.768   3.982
 8183TIP3    H224514   2.236   6.782   4.133
 8184TIP3   OH224515   2.644   2.079   4.216
 8184TIP3    H124516   2.562   2.112   4.252
 8184TIP3    H224517   2.677   2.150   4.161
 8185TIP3   OH224518   0.882   4.003   5.721
 8185TIP3    H124519   0.871   3.927   5.663
 8185TIP3    H224520   0.940   4.062   5.673
 8186TIP3   OH224521   5.321   4.197   0.275
 8186TIP3    H124522   5.336   4.185   0.181
 8186TIP3    H224523   5.228   4.176   0.287
 8187TIP3   OH224524   6.585   4.412   5.424
 8187TIP3    H124525   6.617   4.347   5.361
 8187TIP3    H224526   6.598   4.371   5.509
 8188TIP3   OH224527   2.048   3.922   4.343
 8188TIP3    H124528   2.039   3.959   4.431
 8188TIP3    H224529   2.139   3.940   4.319
 8189TIP3   OH224530   5.892   6.371   4.467
 8189TIP3    H124531   5.909   6.342   4.377
 8189TIP3    H224532   5.826   6.310   4.500
 8190TIP3   OH224533   6.396   3.578   2.527
 8190TIP3    H124534   6.432   3.656   2.486
 8190TIP3    H224535   6.348   3.533   2.458
 8191TIP3   OH224536   1.279   4.730   5.294
 8191TIP3    H124537   1.265   4.736   5.388
 8191TIP3    H224538   1.374   4.721   5.284
 8192TIP3   OH224539   4.538   4.234   3.346
 8192TIP3    H124540   4.479   4.264   3.277
 8192TIP3    H224541   4.501   4.270   3.426
 8193TIP3   OH224542   2.060   6.633   5.050
 8193TIP3    H124543   2.079   6.546   5.014
 8193TIP3    H224544   2.109   6.694   4.995
 8194TIP3   OH224545   5.518   3.169   2.050
 8194TIP3    H124546   5.464   3.132   1.981
 8194TIP3    H224547   5.512   3.264   2.038
 8195TIP3   OH224548   1.292   1.254   0.728
 8195TIP3    H124549   1.345   1.327   0.694
 8195TIP3    H224550   1.307   1.256   0.822
 8196TIP3   OH224551   0.780   0.189   0.905
 8196TIP3    H124552   0.726   0.244   0.848
 8196TIP3    H224553   0.745   0.204   0.993
 8197TIP3   OH224554   2.838   2.608   3.595
 8197TIP3    H124555   2.846   2.516   3.568
 8197TIP3    H224556   2.746   2.618   3.618
 8198TIP3   OH224557   1.884   1.893   3.975
 8198TIP3    H124558   1.960   1.934   3.934
 8198TIP3    H224559   1.813   1.957   3.965
 8199TIP3   OH224560   6.995   2.794   4.292
 8199TIP3    H124561   6.943   2.715   4.281
 8199TIP3    H224562   7.080   2.773   4.252
 8200TIP3   OH224563   4.161   1.145   3.358
 8200TIP3    H124564   4.147   1.190   3.275
 8200TIP3    H224565   4.253   1.161   3.379
 8201TIP3   OH224566   2.511   2.985   5.487
 8201TIP3    H124567   2.518   3.011   5.395
 8201TIP3    H224568   2.489   3.065   5.533
 8202TIP3   OH224569   3.914   5.318   3.268
 8202TIP3    H124570   3.995   5.272   3.243
 8202TIP3    H224571   3.906   5.388   3.204
 8203TIP3   OH224572   2.001   5.290   2.030
 8203TIP3    H124573   1.966   5.264   2.115
 8203TIP3    H224574   2.096   5.282   2.041
 8204TIP3   OH224575   0.349   5.408   0.736
 8204TIP3    H124576   0.303   5.439   0.814
 8204TIP3    H224577   0.363   5.315   0.752
 8205TIP3   OH224578   3.505   0.704   0.157
 8205TIP3    H124579   3.466   0.713   0.070
 8205TIP3    H224580   3.444   0.647   0.205
 8206TIP3   OH224581   2.109   0.594   3.459
 8206TIP3    H124582   2.173   0.643   3.511
 8206TIP3    H224583   2.064   0.659   3.406
 8207TIP3   OH224584   0.261   1.629   2.297
 8207TIP3    H124585   0.297   1.577   2.369
 8207TIP3    H224586   0.200   1.570   2.253
 8208TIP3   OH224587   5.121   0.656   3.985
 8208TIP3    H124588   5.031   0.661   3.955
 8208TIP3    H224589   5.122   0.701   4.069
 8209TIP3   OH224590   6.963   5.150   4.432
 8209TIP3    H124591   7.029   5.200   4.384
 8209TIP3    H224592   6.880   5.188   4.406
 8210TIP3   OH224593   2.248   6.789   4.929
 8210TIP3    H124594   2.226   6.802   4.837
 8210TIP3    H224595   2.325   6.732   4.929
 8211TIP3   OH224596   2.426   6.457   5.306
 8211TIP3    H124597   2.441   6.524   5.372
 8211TIP3    H224598   2.491   6.474   5.238
 8212TIP3   OH224599   4.886   6.210   1.808
 8212TIP3    H124600   4.944   6.274   1.850
 8212TIP3    H224601   4.902   6.221   1.715
 8213TIP3   OH224602   4.231   1.737   0.666
 8213TIP3    H124603   4.155   1.788   0.695
 8213TIP3    H224604   4.198   1.686   0.592
 8214TIP3   OH224605   5.526   6.160   3.856
 8214TIP3    H124606   5.551   6.069   3.874
 8214TIP3    H224607   5.603   6.198   3.814
 8215TIP3   OH224608   1.713   3.694   2.715
 8215TIP3    H124609   1.776   3.693   2.787
 8215TIP3    H224610   1.648   3.628   2.738
 8216TIP3   OH224611   2.579   6.014   1.441
 8216TIP3    H124612   2.593   6.102   1.476
 8216TIP3    H224613   2.664   5.989   1.405
 8217TIP3   OH224614   5.658   1.505   0.355
 8217TIP3    H124615   5.631   1.472   0.441
 8217TIP3    H224616   5.692   1.593   0.373
 8218TIP3   OH224617   1.892   6.497   3.947
 8218TIP3    H124618   1.846   6.575   3.915
 8218TIP3    H224619   1.910   6.515   4.039
 8219TIP3   OH224620   0.000   2.021   2.193
 8219TIP3    H124621   0.019   2.087   2.127
 8219TIP3    H224622   0.085   1.994   2.226
 8220TIP3   OH224623   4.092   2.338   5.477
 8220TIP3    H124624   4.150   2.395   5.526
 8220TIP3    H224625   4.004   2.372   5.494
 8221TIP3   OH224626   3.638   2.377   1.126
 8221TIP3    H124627   3.715   2.408   1.079
 8221TIP3    H224628   3.579   2.345   1.058
 8222TIP3   OH224629   3.768   4.957   5.128
 8222TIP3    H124630   3.701   5.025   5.114
 8222TIP3    H224631   3.817   4.955   5.046
 8223TIP3   OH224632   6.195   3.699   4.175
 8223TIP3    H124633   6.185   3.603   4.171
 8223TIP3    H224634   6.236   3.715   4.260
 8224TIP3   OH224635   3.158   6.427   4.334
 8224TIP3    H124636   3.130   6.402   4.246
 8224TIP3    H224637   3.253   6.428   4.330
 8225TIP3   OH224638   0.867   2.244   5.673
 8225TIP3    H124639   0.854   2.321   5.729
 8225TIP3    H224640   0.804   2.180   5.706
 8226TIP3   OH224641   4.054   5.354   2.868
 8226TIP3    H124642   4.028   5.262   2.869
 8226TIP3    H224643   4.149   5.352   2.859
 8227TIP3   OH224644   4.578   0.335   3.586
 8227TIP3    H124645   4.570   0.355   3.493
 8227TIP3    H224646   4.510   0.388   3.628
 8228TIP3   OH224647   2.523   0.297   0.353
 8228TIP3    H124648   2.532   0.392   0.363
 8228TIP3    H224649   2.559   0.261   0.434
 8229TIP3   OH224650   3.747   4.928   0.444
 8229TIP3    H124651   3.698   4.870   0.503
 8229TIP3    H224652   3.727   4.896   0.357
 8230TIP3   OH224653   0.540   2.583   4.815
 8230TIP3    H124654   0.473   2.642   4.780
 8230TIP3    H224655   0.497   2.498   4.819
 8231TIP3   OH224656   2.347   2.088   4.683
 8231TIP3    H124657   2.409   2.160   4.686
 8231TIP3    H224658   2.334   2.070   4.590
 8232TIP3   OH224659   2.177   6.293   4.414
 8232TIP3    H124660   2.108   6.268   4.353
 8232TIP3    H224661   2.231   6.355   4.365
 8233TIP3   OH224662   4.014   5.786   1.389
 8233TIP3    H124663   3.948   5.724   1.361
 8233TIP3    H224664   3.999   5.797   1.483
 8234TIP3   OH224665   1.146   0.774   4.690
 8234TIP3    H124666   1.210   0.707   4.713
 8234TIP3    H224667   1.094   0.786   4.769
 8235TIP3   OH224668   0.886   6.320   2.679
 8235TIP3    H124669   0.919   6.399   2.636
 8235TIP3    H224670   0.965   6.276   2.711
 8236TIP3   OH224671   1.618   2.850   5.687
 8236TIP3    H124672   1.527   2.867   5.712
 8236TIP3    H224673   1.614   2.767   5.638
 8237TIP3   OH224674   3.756   1.615   0.301
 8237TIP3    H124675   3.762   1.570   0.217
 8237TIP3    H224676   3.835   1.670   0.303
 8238TIP3   OH224677   5.886   2.389   0.119
 8238TIP3    H124678   5.873   2.317   0.180
 8238TIP3    H224679   5.812   2.385   0.059
 8239TIP3   OH224680   2.540   1.245   3.028
 8239TIP3    H124681   2.451   1.232   3.060
 8239TIP3    H224682   2.595   1.203   3.094
 8240TIP3   OH224683   1.312   6.119   4.707
 8240TIP3    H124684   1.351   6.037   4.678
 8240TIP3    H224685   1.242   6.093   4.767
 8241TIP3   OH224686   3.222   4.143   2.703
 8241TIP3    H124687   3.178   4.137   2.618
 8241TIP3    H224688   3.309   4.176   2.683
 8242TIP3   OH224689   0.168   6.150   1.689
 8242TIP3    H124690   0.156   6.243   1.710
 8242TIP3    H224691   0.080   6.113   1.692
 8243TIP3   OH224692   0.041   4.728   2.444
 8243TIP3    H124693   0.087   4.725   2.360
 8243TIP3    H224694   0.079   4.803   2.489
 8244TIP3   OH224695   6.102   2.089   0.749
 8244TIP3    H124696   6.112   2.144   0.672
 8244TIP3    H224697   6.118   2.148   0.823
 8245TIP3   OH224698   6.439   2.393   1.535
 8245TIP3    H124699   6.375   2.327   1.561
 8245TIP3    H224700   6.524   2.353   1.551
 8246TIP3   OH224701   2.735   1.797   1.556
 8246TIP3    H124702   2.719   1.857   1.483
 8246TIP3    H224703   2.666   1.730   1.548
 8247TIP3   OH224704   5.468   1.822   1.100
 8247TIP3    H124705   5.517   1.853   1.177
 8247TIP3    H224706   5.534   1.818   1.030
 8248TIP3   OH224707   2.925   4.937   0.470
 8248TIP3    H124708   2.899   4.980   0.551
 8248TIP3    H224709   2.845   4.896   0.438
 8249TIP3   OH224710   1.007   0.127   3.676
 8249TIP3    H124711   1.056   0.106   3.755
 8249TIP3    H224712   1.061   0.190   3.629
 8250TIP3   OH224713   3.743   5.254   1.463
 8250TIP3    H124714   3.781   5.300   1.537
 8250TIP3    H224715   3.659   5.298   1.448
 8251TIP3   OH224716   0.240   0.306   2.410
 8251TIP3    H124717   0.316   0.347   2.367
 8251TIP3    H224718   0.227   0.357   2.490
 8252TIP3   OH224719   5.763   1.463   4.219
 8252TIP3    H124720   5.731   1.481   4.131
 8252TIP3    H224721   5.831   1.528   4.234
 8253TIP3   OH224722   4.813   3.007   0.472
 8253TIP3    H124723   4.771   3.090   0.498
 8253TIP3    H224724   4.864   3.029   0.394
 8254TIP3   OH224725   3.371   2.294   2.300
 8254TIP3    H124726   3.436   2.357   2.331
 8254TIP3    H224727   3.324   2.342   2.231
 8255TIP3   OH224728   3.157   0.158   0.911
 8255TIP3    H124729   3.199   0.072   0.906
 8255TIP3    H224730   3.203   0.212   0.847
 8256TIP3   OH224731   6.961   3.119   4.598
 8256TIP3    H124732   7.054   3.110   4.616
 8256TIP3    H224733   6.924   3.152   4.679
 8257TIP3   OH224734   3.114   1.868   4.703
 8257TIP3    H124735   3.114   1.922   4.624
 8257TIP3    H224736   3.206   1.866   4.731
 8258TIP3   OH224737   0.260   2.017   5.672
 8258TIP3    H124738   0.214   1.937   5.648
 8258TIP3    H224739   0.238   2.079   5.603
 8259TIP3   OH224740   1.573   4.613   4.597
 8259TIP3    H124741   1.661   4.583   4.619
 8259TIP3    H224742   1.524   4.534   4.578
 8260TIP3   OH224743   2.250   0.355   2.802
 8260TIP3    H124744   2.298   0.292   2.856
 8260TIP3    H224745   2.213   0.303   2.731
 8261TIP3   OH224746   7.205   6.622   0.058
 8261TIP3    H124747   7.192   6.657   0.146
 8261TIP3    H224748   7.165   6.687   0.000
 8262TIP3   OH224749   2.900   3.420   3.254
 8262TIP3    H124750   2.807   3.411   3.232
 8262TIP3    H224751   2.934   3.481   3.189
 8263TIP3   OH224752   4.071   0.877   4.057
 8263TIP3    H124753   3.996   0.936   4.055
 8263TIP3    H224754   4.061   0.828   4.139
 8264TIP3   OH224755   0.727   3.884   0.634
 8264TIP3    H124756   0.691   3.836   0.559
 8264TIP3    H224757   0.692   3.838   0.711
 8265TIP3   OH224758   4.068   0.438   1.652
 8265TIP3    H124759   4.043   0.386   1.576
 8265TIP3    H224760   4.091   0.373   1.718
 8266TIP3   OH224761   0.379   1.165   5.058
 8266TIP3    H124762   0.302   1.216   5.032
 8266TIP3    H224763   0.344   1.078   5.078
 8267TIP3   OH224764   4.608   0.133   1.282
 8267TIP3    H124765   4.660   0.142   1.202
 8267TIP3    H224766   4.538   0.072   1.258
 8268TIP3   OH224767   4.305   1.646   2.063
 8268TIP3    H124768   4.261   1.563   2.046
 8268TIP3    H224769   4.346   1.635   2.148
 8269TIP3   OH224770   2.467   1.978   3.847
 8269TIP3    H124771   2.471   2.073   3.856
 8269TIP3    H224772   2.456   1.945   3.936
 8270TIP3   OH224773   5.890   0.601   0.987
 8270TIP3    H124774   5.954   0.608   1.057
 8270TIP3    H224775   5.929   0.648   0.913
 8271TIP3   OH224776   0.195   3.719   1.007
 8271TIP3    H124777   0.099   3.718   1.008
 8271TIP3    H224778   0.220   3.632   1.036
 8272TIP3   OH224779   3.123   1.119   1.470
 8272TIP3    H124780   3.165   1.122   1.557
 8272TIP3    H224781   3.134   1.208   1.436
 8273TIP3   OH224782   0.468   5.916   0.606
 8273TIP3    H124783   0.376   5.893   0.615
 8273TIP3    H224784   0.512   5.832   0.589
 8274TIP3   OH224785   5.730   2.599   3.189
 8274TIP3    H124786   5.663   2.568   3.128
 8274TIP3    H224787   5.699   2.684   3.219
 8275TIP3   OH224788   5.139   5.295   1.685
 8275TIP3    H124789   5.081   5.219   1.677
 8275TIP3    H224790   5.216   5.272   1.634
 8276TIP3   OH224791   6.590   3.327   3.373
 8276TIP3    H124792   6.650   3.308   3.445
 8276TIP3    H224793   6.626   3.278   3.299
 8277TIP3   OH224794   1.530   5.787   4.059
 8277TIP3    H124795   1.526   5.695   4.034
 8277TIP3    H224796   1.490   5.834   3.985
 8278TIP3   OH224797   6.140   2.602   1.861
 8278TIP3    H124798   6.206   2.615   1.793
 8278TIP3    H224799   6.089   2.683   1.861
 8279TIP3   OH224800   5.510   5.093   4.607
 8279TIP3    H124801   5.495   5.127   4.695
 8279TIP3    H224802   5.454   5.147   4.550
 8280TIP3   OH224803   0.531   5.555   3.960
 8280TIP3    H124804   0.620   5.589   3.954
 8280TIP3    H224805   0.540   5.460   3.951
 8281TIP3   OH224806   5.513   1.275   5.299
 8281TIP3    H124807   5.579   1.343   5.290
 8281TIP3    H224808   5.513   1.253   5.393
 8282TIP3   OH224809   5.463   2.582   2.098
 8282TIP3    H124810   5.411   2.646   2.147
 8282TIP3    H224811   5.553   2.612   2.108
 8283TIP3   OH224812   0.823   4.316   2.004
 8283TIP3    H124813   0.740   4.292   1.961
 8283TIP3    H224814   0.808   4.298   2.096
 8284TIP3   OH224815   5.094   6.636   4.040
 8284TIP3    H124816   5.095   6.547   4.075
 8284TIP3    H224817   5.151   6.632   3.963
 8285TIP3   OH224818   4.579   4.868   4.795
 8285TIP3    H124819   4.501   4.819   4.771
 8285TIP3    H224820   4.585   4.860   4.890
 8286TIP3   OH224821   1.399   3.946   5.867
 8286TIP3    H124822   1.428   3.864   5.826
 8286TIP3    H224823   1.450   4.014   5.823
 8287TIP3   OH224824   4.706   1.524   0.608
 8287TIP3    H124825   4.675   1.569   0.529
 8287TIP3    H224826   4.704   1.431   0.585
 8288TIP3   OH224827   2.840   1.490   5.356
 8288TIP3    H124828   2.915   1.540   5.390
 8288TIP3    H224829   2.775   1.557   5.335
 8289TIP3   OH224830   5.028   0.746   1.942
 8289TIP3    H124831   4.977   0.791   1.875
 8289TIP3    H224832   5.070   0.674   1.895
 8290TIP3   OH224833   3.949   0.342   1.229
 8290TIP3    H124834   3.972   0.325   1.320
 8290TIP3    H224835   3.957   0.437   1.219
 8291TIP3   OH224836   1.799   6.726   5.091
 8291TIP3    H124837   1.892   6.703   5.092
 8291TIP3    H224838   1.754   6.641   5.094
 8292TIP3   OH224839   7.122   6.296   3.733
 8292TIP3    H124840   7.033   6.330   3.748
 8292TIP3    H224841   7.118   6.255   3.646
 8293TIP3   OH224842   1.008   4.136   2.909
 8293TIP3    H124843   0.990   4.100   2.995
 8293TIP3    H224844   0.921   4.146   2.868
 8294TIP3   OH224845   2.758   5.626   3.956
 8294TIP3    H124846   2.829   5.607   3.895
 8294TIP3    H224847   2.777   5.570   4.032
 8295TIP3   OH224848   4.768   0.745   4.551
 8295TIP3    H124849   4.706   0.697   4.495
 8295TIP3    H224850   4.723   0.827   4.571
 8296TIP3   OH224851   5.311   0.885   4.684
 8296TIP3    H124852   5.233   0.888   4.739
 8296TIP3    H224853   5.364   0.815   4.723
 8297TIP3   OH224854   3.527   4.377   3.568
 8297TIP3    H124855   3.557   4.328   3.492
 8297TIP3    H224856   3.438   4.406   3.544
 8298TIP3   OH224857   5.467   2.700   1.516
 8298TIP3    H124858   5.553   2.727   1.486
 8298TIP3    H224859   5.442   2.630   1.457
 8299TIP3   OH224860   4.625   4.985   0.311
 8299TIP3    H124861   4.604   4.892   0.300
 8299TIP3    H224862   4.555   5.019   0.366
 8300TIP3   OH224863   5.703   2.722   2.102
 8300TIP3    H124864   5.782   2.677   2.073
 8300TIP3    H224865   5.710   2.810   2.065
 8301TIP3   OH224866   1.620   5.427   0.593
 8301TIP3    H124867   1.640   5.399   0.682
 8301TIP3    H224868   1.552   5.493   0.602
 8302TIP3   OH224869   2.274   4.543   1.747
 8302TIP3    H124870   2.238   4.455   1.756
 8302TIP3    H224871   2.238   4.575   1.664
 8303TIP3   OH224872   3.373   3.474   3.691
 8303TIP3    H124873   3.377   3.404   3.625
 8303TIP3    H224874   3.298   3.527   3.664
 8304TIP3   OH224875   4.962   1.591   1.445
 8304TIP3    H124876   4.921   1.619   1.363
 8304TIP3    H224877   4.983   1.672   1.490
 8305TIP3   OH224878   4.998   4.301   4.621
 8305TIP3    H124879   4.943   4.301   4.699
 8305TIP3    H224880   5.047   4.382   4.626
 8306TIP3   OH224881   3.187   3.662   2.062
 8306TIP3    H124882   3.124   3.597   2.093
 8306TIP3    H224883   3.138   3.716   2.000
 8307TIP3   OH224884   5.486   5.797   4.596
 8307TIP3    H124885   5.472   5.813   4.503
 8307TIP3    H224886   5.454   5.877   4.639
 8308TIP3   OH224887   1.369   2.527   0.536
 8308TIP3    H124888   1.433   2.551   0.469
 8308TIP3    H224889   1.421   2.507   0.613
 8309TIP3   OH224890   1.942   5.781   0.569
 8309TIP3    H124891   1.940   5.702   0.515
 8309TIP3    H224892   2.033   5.786   0.600
 8310TIP3   OH224893   5.672   4.887   4.606
 8310TIP3    H124894   5.618   4.966   4.602
 8310TIP3    H224895   5.611   4.815   4.591
 8311TIP3   OH224896   3.355   0.730   0.715
 8311TIP3    H124897   3.434   0.720   0.768
 8311TIP3    H224898   3.307   0.648   0.728
 8312TIP3   OH224899   6.434   0.217   2.482
 8312TIP3    H124900   6.453   0.124   2.482
 8312TIP3    H224901   6.338   0.222   2.481
 8313TIP3   OH224902   5.664   0.668   1.144
 8313TIP3    H124903   5.725   0.680   1.217
 8313TIP3    H224904   5.719   0.649   1.069
 8314TIP3   OH224905   0.132   3.992   2.548
 8314TIP3    H124906   0.109   4.060   2.611
 8314TIP3    H224907   0.110   4.029   2.463
 8315TIP3   OH224908   5.393   3.279   5.119
 8315TIP3    H124909   5.300   3.297   5.125
 8315TIP3    H224910   5.427   3.300   5.206
 8316TIP3   OH224911   6.410   4.918   5.189
 8316TIP3    H124912   6.379   4.959   5.108
 8316TIP3    H224913   6.365   4.834   5.192
 8317TIP3   OH224914   6.730   4.372   0.244
 8317TIP3    H124915   6.705   4.290   0.204
 8317TIP3    H224916   6.706   4.362   0.336
 8318TIP3   OH224917   0.099   0.318   1.638
 8318TIP3    H124918   0.074   0.374   1.711
 8318TIP3    H224919   0.076   0.229   1.665
 8319TIP3   OH224920   6.160   3.531   4.993
 8319TIP3    H124921   6.107   3.488   4.926
 8319TIP3    H224922   6.218   3.589   4.944
 8320TIP3   OH224923   3.277   5.046   5.524
 8320TIP3    H124924   3.221   4.969   5.524
 8320TIP3    H224925   3.320   5.045   5.438
 8321TIP3   OH224926   6.603   3.628   2.830
 8321TIP3    H124927   6.677   3.679   2.864
 8321TIP3    H224928   6.640   3.576   2.759
 8322TIP3   OH224929   6.314   6.256   5.153
 8322TIP3    H124930   6.406   6.280   5.137
 8322TIP3    H224931   6.318   6.163   5.178
 8323TIP3   OH224932   5.403   5.334   2.317
 8323TIP3    H124933   5.349   5.384   2.379
 8323TIP3    H224934   5.396   5.383   2.235
 8324TIP3   OH224935   1.189   1.097   2.814
 8324TIP3    H124936   1.254   1.028   2.820
 8324TIP3    H224937   1.239   1.177   2.801
 8325TIP3   OH224938   4.608   4.208   0.257
 8325TIP3    H124939   4.645   4.122   0.274
 8325TIP3    H224940   4.640   4.262   0.330
 8326TIP3   OH224941   4.245   1.007   5.206
 8326TIP3    H124942   4.273   1.011   5.297
 8326TIP3    H224943   4.305   0.944   5.166
 8327TIP3   OH224944   1.295   6.622   0.652
 8327TIP3    H124945   1.229   6.691   0.645
 8327TIP3    H224946   1.375   6.661   0.616
 8328TIP3   OH224947   4.574   1.530   1.489
 8328TIP3    H124948   4.627   1.463   1.446
 8328TIP3    H224949   4.632   1.606   1.495
 8329TIP3   OH224950   1.223   6.481   2.867
 8329TIP3    H124951   1.281   6.540   2.914
 8329TIP3    H224952   1.135   6.505   2.897
 8330TIP3   OH224953   3.502   1.627   0.357
 8330TIP3    H124954   3.586   1.594   0.324
 8330TIP3    H224955   3.526   1.696   0.419
 8331TIP3   OH224956   1.195   1.006   2.527
 8331TIP3    H124957   1.137   1.032   2.599
 8331TIP3    H224958   1.281   1.040   2.553
 8332TIP3   OH224959   4.044   0.687   2.725
 8332TIP3    H124960   4.130   0.708   2.762
 8332TIP3    H224961   4.058   0.605   2.678
 8333TIP3   OH224962   0.186   3.825   2.919
 8333TIP3    H124963   0.180   3.801   2.827
 8333TIP3    H224964   0.214   3.917   2.918
 8334TIP3   OH224965   3.777   2.109   3.424
 8334TIP3    H124966   3.718   2.137   3.355
 8334TIP3    H224967   3.747   2.021   3.448
 8335TIP3   OH224968   5.202   4.384   4.869
 8335TIP3    H124969   5.269   4.404   4.935
 8335TIP3    H224970   5.126   4.436   4.897
 8336TIP3   OH224971   3.074   6.666   3.107
 8336TIP3    H124972   3.089   6.760   3.111
 8336TIP3    H224973   3.114   6.639   3.025
 8337TIP3   OH224974   0.729   6.028   1.166
 8337TIP3    H124975   0.676   5.973   1.224
 8337TIP3    H224976   0.802   6.057   1.220
 8338TIP3   OH224977   5.538   1.727   0.646
 8338TIP3    H124978   5.509   1.790   0.580
 8338TIP3    H224979   5.469   1.727   0.712
 8339TIP3   OH224980   3.173   2.348   0.562
 8339TIP3    H124981   3.202   2.269   0.517
 8339TIP3    H224982   3.090   2.324   0.604
 8340TIP3   OH224983   1.035   3.594   4.134
 8340TIP3    H124984   1.022   3.522   4.072
 8340TIP3    H224985   0.948   3.631   4.147
 8341TIP3   OH224986   3.449   3.422   4.186
 8341TIP3    H124987   3.495   3.355   4.237
 8341TIP3    H224988   3.442   3.497   4.245
 8342TIP3   OH224989   5.039   4.558   4.654
 8342TIP3    H124990   5.060   4.597   4.569
 8342TIP3    H224991   5.113   4.579   4.710
 8343TIP3   OH224992   5.954   5.890   1.703
 8343TIP3    H124993   6.012   5.814   1.694
 8343TIP3    H224994   5.957   5.911   1.797
 8344TIP3   OH224995   2.426   4.138   5.529
 8344TIP3    H124996   2.472   4.216   5.559
 8344TIP3    H224997   2.445   4.072   5.596
 8345TIP3   OH224998   2.765   4.776   4.917
 8345TIP3    H124999   2.682   4.729   4.926
 8345TIP3    H225000   2.820   4.717   4.866
 8346TIP3   OH225001   1.924   3.384   1.203
 8346TIP3    H125002   2.009   3.416   1.175
 8346TIP3    H225003   1.943   3.309   1.259
 8347TIP3   OH225004   6.909   4.471   1.983
 8347TIP3    H125005   6.979   4.485   2.047
 8347TIP3    H225006   6.928   4.534   1.913
 8348TIP3   OH225007   5.770   0.553   3.021
 8348TIP3    H125008   5.854   0.578   2.983
 8348TIP3    H225009   5.791   0.488   3.088
 8349TIP3   OH225010   3.867   1.861   0.437
 8349TIP3    H125011   3.808   1.809   0.493
 8349TIP3    H225012   3.889   1.938   0.490
 8350TIP3   OH225013   4.834   0.197   3.555
 8350TIP3    H125014   4.837   0.111   3.514
 8350TIP3    H225015   4.742   0.221   3.555
 8351TIP3   OH225016   5.268   1.698   1.220
 8351TIP3    H125017   5.341   1.731   1.167
 8351TIP3    H225018   5.311   1.652   1.293
 8352TIP3   OH225019   1.830   0.796   3.482
 8352TIP3    H125020   1.845   0.890   3.492
 8352TIP3    H225021   1.831   0.762   3.572
 8353TIP3   OH225022   4.398   0.772   5.189
 8353TIP3    H125023   4.439   0.780   5.275
 8353TIP3    H225024   4.309   0.740   5.207
 8354TIP3   OH225025   0.224   4.541   0.413
 8354TIP3    H125026   0.307   4.504   0.441
 8354TIP3    H225027   0.179   4.564   0.495
 8355TIP3   OH225028   6.345   3.283   3.277
 8355TIP3    H125029   6.407   3.345   3.315
 8355TIP3    H225030   6.309   3.237   3.352
 8356TIP3   OH225031   1.771   4.033   1.295
 8356TIP3    H125032   1.862   4.002   1.286
 8356TIP3    H225033   1.718   3.959   1.265
 8357TIP3   OH225034   0.207   2.499   1.909
 8357TIP3    H125035   0.269   2.442   1.955
 8357TIP3    H225036   0.193   2.456   1.825
 8358TIP3   OH225037   0.880   4.733   0.939
 8358TIP3    H125038   0.823   4.766   0.869
 8358TIP3    H225039   0.924   4.657   0.901
 8359TIP3   OH225040   0.818   1.794   5.120
 8359TIP3    H125041   0.724   1.773   5.119
 8359TIP3    H225042   0.859   1.722   5.072
 8360TIP3   OH225043   3.868   3.847   0.389
 8360TIP3    H125044   3.911   3.848   0.475
 8360TIP3    H225045   3.881   3.935   0.355
 8361TIP3   OH225046   4.835   4.829   1.080
 8361TIP3    H125047   4.812   4.902   1.138
 8361TIP3    H225048   4.926   4.846   1.056
 8362TIP3   OH225049   1.893   0.404   3.999
 8362TIP3    H125050   1.935   0.325   3.966
 8362TIP3    H225051   1.957   0.443   4.058
 8363TIP3   OH225052   6.588   6.462   1.038
 8363TIP3    H125053   6.535   6.449   1.116
 8363TIP3    H225054   6.603   6.374   1.003
 8364TIP3   OH225055   2.272   0.944   0.964
 8364TIP3    H125056   2.264   0.871   1.026
 8364TIP3    H225057   2.203   0.928   0.900
 8365TIP3   OH225058   3.707   5.414   5.812
 8365TIP3    H125059   3.764   5.445   5.742
 8365TIP3    H225060   3.637   5.367   5.766
 8366TIP3   OH225061   4.717   5.943   2.231
 8366TIP3    H125062   4.659   5.897   2.171
 8366TIP3    H225063   4.771   5.998   2.174
 8367TIP3   OH225064   7.053   5.457   4.558
 8367TIP3    H125065   6.965   5.425   4.580
 8367TIP3    H225066   7.041   5.505   4.476
 8368TIP3   OH225067   3.892   5.299   2.452
 8368TIP3    H125068   3.907   5.255   2.368
 8368TIP3    H225069   3.819   5.252   2.491
 8369TIP3   OH225070   1.852   2.037   0.067
 8369TIP3    H125071   1.802   2.098   0.013
 8369TIP3    H225072   1.919   2.002   0.007
 8370TIP3   OH225073   0.852   2.478   5.837
 8370TIP3    H125074   0.824   2.538   5.768
 8370TIP3    H225075   0.936   2.512   5.866
 8371TIP3   OH225076   3.881   3.995   3.957
 8371TIP3    H125077   3.968   3.975   3.993
 8371TIP3    H225078   3.898   4.053   3.883
 8372TIP3   OH225079   1.556   0.839   4.191
 8372TIP3    H125080   1.542   0.801   4.278
 8372TIP3    H225081   1.631   0.790   4.156
 8373TIP3   OH225082   6.921   3.197   1.954
 8373TIP3    H125083   6.962   3.127   2.005
 8373TIP3    H225084   6.847   3.155   1.910
 8374TIP3   OH225085   5.265   1.667   3.318
 8374TIP3    H125086   5.317   1.739   3.355
 8374TIP3    H225087   5.216   1.632   3.393
 8375TIP3   OH225088   0.705   6.392   0.246
 8375TIP3    H125089   0.737   6.376   0.157
 8375TIP3    H225090   0.717   6.486   0.260
 8376TIP3   OH225091   6.214   1.128   0.573
 8376TIP3    H125092   6.207   1.044   0.618
 8376TIP3    H225093   6.125   1.149   0.546
 8377TIP3   OH225094   1.725   6.086   2.141
 8377TIP3    H125095   1.725   6.026   2.216
 8377TIP3    H225096   1.722   6.029   2.064
 8378TIP3   OH225097   2.392   1.952   3.423
 8378TIP3    H125098   2.391   2.038   3.465
 8378TIP3    H225099   2.398   1.970   3.330
 8379TIP3   OH225100   3.466   0.854   2.474
 8379TIP3    H125101   3.424   0.857   2.560
 8379TIP3    H225102   3.396   0.826   2.414
 8380TIP3   OH225103   0.620   0.310   5.423
 8380TIP3    H125104   0.673   0.369   5.369
 8380TIP3    H225105   0.663   0.311   5.509
 8381TIP3   OH225106   6.052   0.315   1.781
 8381TIP3    H125107   5.956   0.321   1.773
 8381TIP3    H225108   6.074   0.380   1.848
 8382TIP3   OH225109   5.245   1.313   2.563
 8382TIP3    H125110   5.322   1.368   2.576
 8382TIP3    H225111   5.183   1.342   2.630
 8383TIP3   OH225112   3.534   4.695   4.135
 8383TIP3    H125113   3.493   4.769   4.090
 8383TIP3    H225114   3.552   4.632   4.065
 8384TIP3   OH225115   2.490   5.673   3.804
 8384TIP3    H125116   2.438   5.664   3.884
 8384TIP3    H225117   2.580   5.684   3.835
 8385TIP3   OH225118   1.849   0.601   1.364
 8385TIP3    H125119   1.899   0.658   1.306
 8385TIP3    H225120   1.890   0.610   1.450
 8386TIP3   OH225121   5.954   1.712   3.351
 8386TIP3    H125122   5.879   1.658   3.324
 8386TIP3    H225123   5.940   1.795   3.307
 8387TIP3   OH225124   3.650   0.933   1.544
 8387TIP3    H125125   3.605   0.988   1.608
 8387TIP3    H225126   3.626   0.972   1.459
 8388TIP3   OH225127   2.297   3.547   0.211
 8388TIP3    H125128   2.205   3.541   0.187
 8388TIP3    H225129   2.297   3.557   0.306
 8389TIP3   OH225130   1.582   3.765   0.743
 8389TIP3    H125131   1.624   3.826   0.804
 8389TIP3    H225132   1.565   3.687   0.795
 8390TIP3   OH225133   2.981   3.702   3.878
 8390TIP3    H125134   2.929   3.772   3.840
 8390TIP3    H225135   2.934   3.677   3.958
 8391TIP3   OH225136   0.858   0.722   4.693
 8391TIP3    H125137   0.878   0.763   4.777
 8391TIP3    H225138   0.939   0.732   4.642
 8392TIP3   OH225139   6.825   5.022   5.715
 8392TIP3    H125140   6.840   5.037   5.622
 8392TIP3    H225141   6.807   4.928   5.721
 8393TIP3   OH225142   0.790   6.770   1.872
 8393TIP3    H125143   0.721   6.787   1.937
 8393TIP3    H225144   0.742   6.739   1.795
 8394TIP3   OH225145   3.754   5.170   5.579
 8394TIP3    H125146   3.735   5.086   5.620
 8394TIP3    H225147   3.710   5.235   5.635
 8395TIP3   OH225148   5.510   5.448   4.118
 8395TIP3    H125149   5.584   5.508   4.112
 8395TIP3    H225150   5.489   5.426   4.027
 8396TIP3   OH225151   2.902   3.288   4.552
 8396TIP3    H125152   2.912   3.229   4.478
 8396TIP3    H225153   2.833   3.249   4.605
 8397TIP3   OH225154   1.254   3.458   4.241
 8397TIP3    H125155   1.178   3.488   4.190
 8397TIP3    H225156   1.282   3.535   4.289
 8398TIP3   OH225157   6.527   1.425   3.724
 8398TIP3    H125158   6.547   1.517   3.744
 8398TIP3    H225159   6.433   1.424   3.707
 8399TIP3   OH225160   4.223   5.071   4.055
 8399TIP3    H125161   4.249   5.001   3.995
 8399TIP3    H225162   4.127   5.066   4.057
 8400TIP3   OH225163   2.729   1.510   0.401
 8400TIP3    H125164   2.684   1.588   0.433
 8400TIP3    H225165   2.670   1.474   0.335
 8401TIP3   OH225166   5.041   6.226   4.469
 8401TIP3    H125167   4.953   6.191   4.454
 8401TIP3    H225168   5.036   6.269   4.554
 8402TIP3   OH225169   6.588   3.254   4.589
 8402TIP3    H125170   6.628   3.213   4.666
 8402TIP3    H225171   6.494   3.245   4.605
 8403TIP3   OH225172   3.453   4.931   1.484
 8403TIP3    H125173   3.467   4.958   1.575
 8403TIP3    H225174   3.504   4.993   1.432
 8404TIP3   OH225175   6.317   1.191   1.175
 8404TIP3    H125176   6.306   1.125   1.244
 8404TIP3    H225177   6.251   1.169   1.110
 8405TIP3   OH225178   2.698   0.733   3.534
 8405TIP3    H125179   2.697   0.753   3.627
 8405TIP3    H225180   2.703   0.637   3.529
 8406TIP3   OH225181   2.333   6.651   2.632
 8406TIP3    H125182   2.382   6.593   2.690
 8406TIP3    H225183   2.244   6.652   2.669
 8407TIP3   OH225184   5.839   2.476   5.035
 8407TIP3    H125185   5.892   2.539   5.083
 8407TIP3    H225186   5.869   2.391   5.067
 8408TIP3   OH225187   1.371   0.751   5.130
 8408TIP3    H125188   1.279   0.727   5.118
 8408TIP3    H225189   1.417   0.667   5.132
 8409TIP3   OH225190   1.986   0.586   4.782
 8409TIP3    H125191   2.021   0.629   4.860
 8409TIP3    H225192   1.981   0.655   4.716
 8410TIP3   OH225193   3.127   3.194   0.228
 8410TIP3    H125194   3.151   3.235   0.311
 8410TIP3    H225195   3.191   3.124   0.217
 8411TIP3   OH225196   1.720   1.006   2.674
 8411TIP3    H125197   1.787   0.942   2.650
 8411TIP3    H225198   1.721   1.006   2.770
 8412TIP3   OH225199   6.468   5.632   3.237
 8412TIP3    H125200   6.523   5.601   3.309
 8412TIP3    H225201   6.513   5.710   3.204
 8413TIP3   OH225202   4.882   5.506   5.568
 8413TIP3    H125203   4.952   5.539   5.511
 8413TIP3    H225204   4.803   5.511   5.514
 8414TIP3   OH225205   4.222   1.845   2.482
 8414TIP3    H125206   4.237   1.769   2.538
 8414TIP3    H225207   4.164   1.814   2.413
 8415TIP3   OH225208   3.820   1.478   1.147
 8415TIP3    H125209   3.767   1.513   1.076
 8415TIP3    H225210   3.885   1.546   1.164
 8416TIP3   OH225211   3.394   1.656   5.421
 8416TIP3    H125212   3.479   1.624   5.451
 8416TIP3    H225213   3.333   1.586   5.446
 8417TIP3   OH225214   0.425   1.686   0.197
 8417TIP3    H125215   0.467   1.600   0.200
 8417TIP3    H225216   0.343   1.675   0.244
 8418TIP3   OH225217   4.231   4.932   4.635
 8418TIP3    H125218   4.191   4.895   4.714
 8418TIP3    H225219   4.260   5.020   4.661
 8419TIP3   OH225220   5.345   1.192   4.538
 8419TIP3    H125221   5.256   1.221   4.557
 8419TIP3    H225222   5.389   1.190   4.623
 8420TIP3   OH225223   6.445   6.410   3.826
 8420TIP3    H125224   6.424   6.497   3.793
 8420TIP3    H225225   6.417   6.411   3.917
 8421TIP3   OH225226   0.778   1.262   4.439
 8421TIP3    H125227   0.705   1.306   4.396
 8421TIP3    H225228   0.740   1.224   4.518
 8422TIP3   OH225229   1.164   4.239   2.073
 8422TIP3    H125230   1.178   4.326   2.110
 8422TIP3    H225231   1.233   4.228   2.008
 8423TIP3   OH225232   0.705   0.170   0.161
 8423TIP3    H125233   0.752   0.161   0.077
 8423TIP3    H225234   0.666   0.258   0.157
 8424TIP3   OH225235   0.063   2.039   1.221
 8424TIP3    H125236  -0.016   2.072   1.263
 8424TIP3    H225237   0.115   2.117   1.201
 8425TIP3   OH225238   6.285   1.469   1.435
 8425TIP3    H125239   6.270   1.378   1.411
 8425TIP3    H225240   6.298   1.514   1.352
 8426TIP3   OH225241   3.871   2.885   2.083
 8426TIP3    H125242   3.811   2.845   2.145
 8426TIP3    H225243   3.817   2.905   2.007
 8427TIP3   OH225244   1.904   4.967   3.179
 8427TIP3    H125245   1.982   4.950   3.232
 8427TIP3    H225246   1.902   4.894   3.117
 8428TIP3   OH225247   4.028   1.777   0.220
 8428TIP3    H125248   3.991   1.812   0.301
 8428TIP3    H225249   4.004   1.841   0.154
 8429TIP3   OH225250   1.150   0.418   2.061
 8429TIP3    H125251   1.106   0.333   2.068
 8429TIP3    H225252   1.166   0.429   1.967
 8430TIP3   OH225253   2.687   4.004   1.797
 8430TIP3    H125254   2.695   3.935   1.863
 8430TIP3    H225255   2.646   3.960   1.722
 8431TIP3   OH225256   4.337   1.794   5.728
 8431TIP3    H125257   4.334   1.844   5.646
 8431TIP3    H225258   4.381   1.853   5.790
 8432TIP3   OH225259   4.952   5.080   3.563
 8432TIP3    H125260   4.877   5.078   3.503
 8432TIP3    H225261   4.944   5.000   3.614
 8433TIP3   OH225262   5.304   6.698   1.885
 8433TIP3    H125263   5.295   6.772   1.945
 8433TIP3    H225264   5.220   6.693   1.841
 8434TIP3   OH225265   4.953   2.310   2.158
 8434TIP3    H125266   4.926   2.235   2.210
 8434TIP3    H225267   5.048   2.304   2.153
 8435TIP3   OH225268   6.914   1.232   2.401
 8435TIP3    H125269   6.836   1.286   2.403
 8435TIP3    H225270   6.912   1.188   2.316
 8436TIP3   OH225271   3.922   6.609   2.625
 8436TIP3    H125272   3.965   6.692   2.604
 8436TIP3    H225273   3.842   6.635   2.671
 8437TIP3   OH225274   0.254   3.631   0.743
 8437TIP3    H125275   0.247   3.676   0.827
 8437TIP3    H225276   0.318   3.562   0.758
 8438TIP3   OH225277   2.403   5.327   2.365
 8438TIP3    H125278   2.432   5.418   2.362
 8438TIP3    H225279   2.376   5.313   2.456
 8439TIP3   OH225280   5.859   4.585   4.010
 8439TIP3    H125281   5.769   4.588   3.976
 8439TIP3    H225282   5.849   4.602   4.104
 8440TIP3   OH225283   4.161   1.092   4.651
 8440TIP3    H125284   4.093   1.035   4.688
 8440TIP3    H225285   4.241   1.066   4.697
 8441TIP3   OH225286   3.996   4.690   0.974
 8441TIP3    H125287   3.938   4.614   0.978
 8441TIP3    H225288   3.981   4.736   1.056
 8442TIP3   OH225289   2.226   2.980   5.483
 8442TIP3    H125290   2.176   2.952   5.406
 8442TIP3    H225291   2.317   2.965   5.459
 8443TIP3   OH225292   5.791   4.082   5.769
 8443TIP3    H125293   5.700   4.067   5.792
 8443TIP3    H225294   5.793   4.169   5.730
 8444TIP3   OH225295   1.355   3.271   3.648
 8444TIP3    H125296   1.293   3.304   3.583
 8444TIP3    H225297   1.302   3.257   3.726
 8445TIP3   OH225298   5.602   4.597   2.282
 8445TIP3    H125299   5.530   4.537   2.263
 8445TIP3    H225300   5.560   4.680   2.304
 8446TIP3   OH225301   1.472   5.938   4.944
 8446TIP3    H125302   1.389   5.906   4.908
 8446TIP3    H225303   1.500   6.005   4.883
 8447TIP3   OH225304   3.964   1.540   3.792
 8447TIP3    H125305   3.995   1.593   3.719
 8447TIP3    H225306   3.993   1.586   3.870
 8448TIP3   OH225307   1.656   3.394   2.713
 8448TIP3    H125308   1.579   3.430   2.669
 8448TIP3    H225309   1.718   3.376   2.642
 8449TIP3   OH225310   4.005   2.907   3.479
 8449TIP3    H125311   4.050   2.977   3.527
 8449TIP3    H225312   4.060   2.891   3.402
 8450TIP3   OH225313   0.942   1.029   5.081
 8450TIP3    H125314   0.999   1.077   5.141
 8450TIP3    H225315   0.905   0.958   5.133
 8451TIP3   OH225316   4.562   3.437   4.561
 8451TIP3    H125317   4.619   3.381   4.613
 8451TIP3    H225318   4.601   3.437   4.474
 8452TIP3   OH225319   0.689   6.022   2.191
 8452TIP3    H125320   0.705   5.943   2.243
 8452TIP3    H225321   0.716   6.094   2.247
 8453TIP3   OH225322   0.840   3.177   0.369
 8453TIP3    H125323   0.910   3.117   0.393
 8453TIP3    H225324   0.814   3.217   0.453
 8454TIP3   OH225325   1.029   1.880   1.093
 8454TIP3    H125326   1.053   1.787   1.087
 8454TIP3    H225327   0.933   1.880   1.096
 8455TIP3   OH225328   2.502   4.333   2.937
 8455TIP3    H125329   2.432   4.384   2.895
 8455TIP3    H225330   2.527   4.384   3.013
 8456TIP3   OH225331   0.155   4.184   5.458
 8456TIP3    H125332   0.101   4.262   5.471
 8456TIP3    H225333   0.244   4.214   5.476
 8457TIP3   OH225334   5.464   3.024   5.099
 8457TIP3    H125335   5.396   2.957   5.104
 8457TIP3    H225336   5.419   3.106   5.116
 8458TIP3   OH225337   6.496   3.334   2.391
 8458TIP3    H125338   6.589   3.326   2.370
 8458TIP3    H225339   6.451   3.309   2.311
 8459TIP3   OH225340   4.265   1.144   5.469
 8459TIP3    H125341   4.316   1.203   5.523
 8459TIP3    H225342   4.254   1.065   5.522
 8460TIP3   OH225343   5.996   1.729   2.560
 8460TIP3    H125344   6.092   1.728   2.561
 8460TIP3    H225345   5.971   1.743   2.651
 8461TIP3   OH225346   0.659   5.882   3.793
 8461TIP3    H125347   0.644   5.921   3.879
 8461TIP3    H225348   0.707   5.801   3.811
 8462TIP3   OH225349   4.194   5.699   5.625
 8462TIP3    H125350   4.105   5.726   5.604
 8462TIP3    H225351   4.188   5.665   5.714
 8463TIP3   OH225352   1.534   4.652   5.229
 8463TIP3    H125353   1.590   4.723   5.262
 8463TIP3    H225354   1.550   4.651   5.135
 8464TIP3   OH225355   5.962   3.687   1.153
 8464TIP3    H125356   5.986   3.605   1.197
 8464TIP3    H225357   6.037   3.708   1.098
 8465TIP3   OH225358   2.759   2.676   5.707
 8465TIP3    H125359   2.800   2.750   5.662
 8465TIP3    H225360   2.669   2.675   5.675
 8466TIP3   OH225361   2.515   4.426   4.457
 8466TIP3    H125362   2.557   4.511   4.472
 8466TIP3    H225363   2.558   4.393   4.378
 8467TIP3   OH225364   0.591   1.730   2.201
 8467TIP3    H125365   0.532   1.720   2.126
 8467TIP3    H225366   0.622   1.641   2.218
 8468TIP3   OH225367   5.705   6.304   3.479
 8468TIP3    H125368   5.714   6.296   3.574
 8468TIP3    H225369   5.678   6.395   3.466
 8469TIP3   OH225370   0.540   3.841   2.596
 8469TIP3    H125371   0.493   3.906   2.648
 8469TIP3    H225372   0.479   3.816   2.526
 8470TIP3   OH225373   1.369   4.984   2.477
 8470TIP3    H125374   1.382   4.978   2.571
 8470TIP3    H225375   1.449   5.027   2.445
 8471TIP3   OH225376   1.522   0.466   3.614
 8471TIP3    H125377   1.558   0.421   3.690
 8471TIP3    H225378   1.519   0.399   3.546
 8472TIP3   OH225379   6.548   5.668   4.234
 8472TIP3    H125380   6.486   5.733   4.269
 8472TIP3    H225381   6.631   5.689   4.276
 8473TIP3   OH225382   0.621   4.121   5.129
 8473TIP3    H125383   0.705   4.097   5.091
 8473TIP3    H225384   0.632   4.108   5.224
 8474TIP3   OH225385   4.901   3.391   0.527
 8474TIP3    H125386   4.991   3.422   0.516
 8474TIP3    H225387   4.907   3.320   0.592
 8475TIP3   OH225388   3.351   1.537   2.019
 8475TIP3    H125389   3.402   1.465   2.054
 8475TIP3    H225390   3.379   1.613   2.071
 8476TIP3   OH225391   0.151   2.876   0.017
 8476TIP3    H125392   0.137   2.970   0.027
 8476TIP3    H225393   0.242   2.868  -0.011
 8477TIP3   OH225394   5.438   6.616   5.220
 8477TIP3    H125395   5.413   6.645   5.133
 8477TIP3    H225396   5.398   6.679   5.280
 8478TIP3   OH225397   2.155   2.229   3.770
 8478TIP3    H125398   2.245   2.264   3.773
 8478TIP3    H225399   2.107   2.284   3.832
 8479TIP3   OH225400   5.082   4.178   0.822
 8479TIP3    H125401   5.035   4.251   0.861
 8479TIP3    H225402   5.158   4.165   0.879
 8480TIP3   OH225403   1.403   5.507   3.611
 8480TIP3    H125404   1.496   5.527   3.617
 8480TIP3    H225405   1.396   5.444   3.539
 8481TIP3   OH225406   4.247   2.830   3.021
 8481TIP3    H125407   4.166   2.855   2.977
 8481TIP3    H225408   4.279   2.755   2.972
 8482TIP3   OH225409   5.348   1.708   1.651
 8482TIP3    H125410   5.412   1.677   1.587
 8482TIP3    H225411   5.337   1.800   1.630
 8483TIP3   OH225412   0.069   6.318   3.069
 8483TIP3    H125413  -0.026   6.332   3.071
 8483TIP3    H225414   0.089   6.273   3.151
 8484TIP3   OH225415   1.982   6.158   2.819
 8484TIP3    H125416   1.957   6.233   2.765
 8484TIP3    H225417   2.015   6.094   2.756
 8485TIP3   OH225418   4.696   4.835   0.839
 8485TIP3    H125419   4.622   4.777   0.857
 8485TIP3    H225420   4.753   4.825   0.915
 8486TIP3   OH225421   6.978   0.851   5.017
 8486TIP3    H125422   6.926   0.823   4.942
 8486TIP3    H225423   6.923   0.915   5.062
 8487TIP3   OH225424   4.096   4.570   3.558
 8487TIP3    H125425   4.106   4.661   3.587
 8487TIP3    H225426   4.138   4.568   3.472
 8488TIP3   OH225427   3.857   5.919   0.262
 8488TIP3    H125428   3.884   5.982   0.195
 8488TIP3    H225429   3.864   5.834   0.219
 8489TIP3   OH225430   2.764   0.764   0.860
 8489TIP3    H125431   2.752   0.795   0.949
 8489TIP3    H225432   2.753   0.842   0.805
 8490TIP3   OH225433   0.153   1.588   4.235
 8490TIP3    H125434   0.235   1.578   4.187
 8490TIP3    H225435   0.180   1.618   4.322
 8491TIP3   OH225436   1.342   0.951   1.788
 8491TIP3    H125437   1.370   1.042   1.791
 8491TIP3    H225438   1.414   0.905   1.743
 8492TIP3   OH225439   0.371   1.122   4.714
 8492TIP3    H125440   0.396   1.034   4.742
 8492TIP3    H225441   0.292   1.142   4.764
 8493TIP3   OH225442   5.056   0.696   3.314
 8493TIP3    H125443   4.962   0.703   3.326
 8493TIP3    H225444   5.093   0.760   3.374
 8494TIP3   OH225445   7.128   2.694   0.167
 8494TIP3    H125446   7.104   2.725   0.079
 8494TIP3    H225447   7.195   2.756   0.196
 8495TIP3   OH225448   1.350   6.103   4.053
 8495TIP3    H125449   1.371   6.160   3.979
 8495TIP3    H225450   1.286   6.152   4.105
 8496TIP3   OH225451   3.710   3.984   3.443
 8496TIP3    H125452   3.721   3.889   3.433
 8496TIP3    H225453   3.624   4.003   3.405
 8497TIP3   OH225454   2.824   2.117   3.611
 8497TIP3    H125455   2.890   2.119   3.542
 8497TIP3    H225456   2.823   2.025   3.640
 8498TIP3   OH225457   5.219   6.352   1.569
 8498TIP3    H125458   5.273   6.297   1.513
 8498TIP3    H225459   5.280   6.387   1.634
 8499TIP3   OH225460   3.015   0.112   1.498
 8499TIP3    H125461   3.056   0.031   1.529
 8499TIP3    H225462   3.027   0.110   1.403
 8500TIP3   OH225463   5.510   1.651   1.403
 8500TIP3    H125464   5.566   1.665   1.326
 8500TIP3    H225465   5.536   1.564   1.435
 8501TIP3   OH225466   4.306   3.091   5.343
 8501TIP3    H125467   4.248   3.158   5.379
 8501TIP3    H225468   4.280   3.083   5.252
 8502TIP3   OH225469   2.107   2.174   0.354
 8502TIP3    H125470   2.148   2.229   0.421
 8502TIP3    H225471   2.168   2.101   0.343
 8503TIP3   OH225472   5.857   4.027   1.540
 8503TIP3    H125473   5.915   4.000   1.612
 8503TIP3    H225474   5.913   4.028   1.463
 8504TIP3   OH225475   5.578   6.306   0.862
 8504TIP3    H125476   5.550   6.388   0.903
 8504TIP3    H225477   5.674   6.314   0.857
 8505TIP3   OH225478   3.064   1.694   0.110
 8505TIP3    H125479   3.048   1.775   0.158
 8505TIP3    H225480   3.020   1.626   0.160
 8506TIP3   OH225481   3.603   3.080   4.058
 8506TIP3    H125482   3.650   3.116   4.133
 8506TIP3    H225483   3.630   3.134   3.984
 8507TIP3   OH225484   4.009   3.459   4.747
 8507TIP3    H125485   4.086   3.425   4.701
 8507TIP3    H225486   3.968   3.519   4.685
 8508TIP3   OH225487   3.733   3.366   2.721
 8508TIP3    H125488   3.778   3.429   2.664
 8508TIP3    H225489   3.675   3.317   2.661
 8509TIP3   OH225490   3.985   1.341   0.082
 8509TIP3    H125491   4.001   1.266   0.140
 8509TIP3    H225492   4.057   1.401   0.100
 8510TIP3   OH225493   4.135   2.344   1.459
 8510TIP3    H125494   4.052   2.297   1.459
 8510TIP3    H225495   4.140   2.383   1.547
 8511TIP3   OH225496   5.609   6.473   2.444
 8511TIP3    H125497   5.592   6.423   2.523
 8511TIP3    H225498   5.639   6.559   2.475
 8512TIP3   OH225499   0.261   1.838   3.090
 8512TIP3    H125500   0.260   1.847   3.186
 8512TIP3    H225501   0.213   1.756   3.074
 8513TIP3   OH225502   0.484   4.342   3.393
 8513TIP3    H125503   0.476   4.392   3.474
 8513TIP3    H225504   0.395   4.310   3.376
 8514TIP3   OH225505   0.567   0.436   2.032
 8514TIP3    H125506   0.543   0.422   1.940
 8514TIP3    H225507   0.515   0.372   2.080
 8515TIP3   OH225508   4.320   0.317   1.452
 8515TIP3    H125509   4.413   0.304   1.472
 8515TIP3    H225510   4.276   0.244   1.496
 8516TIP3   OH225511   3.301   2.086   0.814
 8516TIP3    H125512   3.237   2.015   0.822
 8516TIP3    H225513   3.303   2.107   0.721
 8517TIP3   OH225514   4.404   6.056   4.207
 8517TIP3    H125515   4.393   5.962   4.224
 8517TIP3    H225516   4.330   6.079   4.152
 8518TIP3   OH225517   5.965   2.245   1.570
 8518TIP3    H125518   6.013   2.284   1.644
 8518TIP3    H225519   5.983   2.152   1.577
 8519TIP3   OH225520   4.374   5.285   3.194
 8519TIP3    H125521   4.299   5.304   3.249
 8519TIP3    H225522   4.362   5.341   3.117
 8520TIP3   OH225523   1.502   4.291   4.652
 8520TIP3    H125524   1.448   4.343   4.592
 8520TIP3    H225525   1.489   4.200   4.625
 8521TIP3   OH225526   5.855   6.128   2.159
 8521TIP3    H125527   5.845   6.219   2.130
 8521TIP3    H225528   5.920   6.132   2.229
 8522TIP3   OH225529   2.233   1.520   4.640
 8522TIP3    H125530   2.200   1.584   4.577
 8522TIP3    H225531   2.272   1.451   4.587
 8523TIP3   OH225532   2.203   4.114   5.323
 8523TIP3    H125533   2.249   4.163   5.391
 8523TIP3    H225534   2.248   4.030   5.318
 8524TIP3   OH225535   3.339   0.350   1.479
 8524TIP3    H125536   3.330   0.316   1.568
 8524TIP3    H225537   3.399   0.289   1.436
 8525TIP3   OH225538   2.544   2.297   4.671
 8525TIP3    H125539   2.549   2.316   4.765
 8525TIP3    H225540   2.629   2.324   4.637
 8526TIP3   OH225541   0.121   2.375   2.689
 8526TIP3    H125542   0.055   2.338   2.747
 8526TIP3    H225543   0.082   2.457   2.659
 8527TIP3   OH225544   6.148   3.171   4.065
 8527TIP3    H125545   6.176   3.143   3.978
 8527TIP3    H225546   6.119   3.091   4.109
 8528TIP3   OH225547   0.083   3.541   3.663
 8528TIP3    H125548   0.132   3.617   3.633
 8528TIP3    H225549   0.087   3.479   3.591
 8529TIP3   OH225550   3.824   0.068   2.753
 8529TIP3    H125551   3.901   0.119   2.781
 8529TIP3    H225552   3.831  -0.014   2.802
 8530TIP3   OH225553   1.874   6.563   2.221
 8530TIP3    H125554   1.829   6.479   2.215
 8530TIP3    H225555   1.959   6.548   2.178
 8531TIP3   OH225556   1.222   0.525   3.211
 8531TIP3    H125557   1.153   0.581   3.177
 8531TIP3    H225558   1.187   0.437   3.205
 8532TIP3   OH225559   1.418   0.990   0.786
 8532TIP3    H125560   1.385   1.064   0.736
 8532TIP3    H225561   1.509   1.013   0.805
 8533TIP3   OH225562   4.984   5.623   5.162
 8533TIP3    H125563   5.025   5.592   5.242
 8533TIP3    H225564   5.054   5.667   5.114
 8534TIP3   OH225565   0.721   0.498   5.231
 8534TIP3    H125566   0.755   0.470   5.147
 8534TIP3    H225567   0.633   0.530   5.212
 8535TIP3   OH225568   1.794   2.885   4.226
 8535TIP3    H125569   1.804   2.953   4.293
 8535TIP3    H225570   1.766   2.933   4.148
 8536TIP3   OH225571   5.526   3.559   0.720
 8536TIP3    H125572   5.534   3.576   0.626
 8536TIP3    H225573   5.463   3.623   0.751
 8537TIP3   OH225574   7.059   3.191   3.608
 8537TIP3    H125575   7.148   3.183   3.643
 8537TIP3    H225576   7.003   3.191   3.686
 8538TIP3   OH225577   0.947   6.168   5.532
 8538TIP3    H125578   0.931   6.226   5.457
 8538TIP3    H225579   0.993   6.092   5.495
 8539TIP3   OH225580   7.022   5.914   4.540
 8539TIP3    H125581   7.076   5.841   4.568
 8539TIP3    H225582   6.936   5.896   4.578
 8540TIP3   OH225583   3.761   6.451   0.292
 8540TIP3    H125584   3.781   6.410   0.376
 8540TIP3    H225585   3.674   6.490   0.304
 8541TIP3   OH225586   7.001   3.789   1.933
 8541TIP3    H125587   6.908   3.767   1.937
 8541TIP3    H225588   7.005   3.869   1.881
 8542TIP3   OH225589   2.615   6.136   0.797
 8542TIP3    H125590   2.709   6.121   0.793
 8542TIP3    H225591   2.605   6.212   0.854
 8543TIP3   OH225592   5.101   0.689   1.393
 8543TIP3    H125593   5.065   0.606   1.426
 8543TIP3    H225594   5.134   0.668   1.306
 8544TIP3   OH225595   1.154   3.879   0.109
 8544TIP3    H125596   1.220   3.945   0.086
 8544TIP3    H225597   1.171   3.807   0.048
 8545TIP3   OH225598   2.999   1.955   5.225
 8545TIP3    H125599   2.997   1.958   5.129
 8545TIP3    H225600   2.914   1.918   5.250
 8546TIP3   OH225601   0.504   4.023   4.415
 8546TIP3    H125602   0.566   3.959   4.381
 8546TIP3    H225603   0.466   4.064   4.337
 8547TIP3   OH225604   4.115   0.206   2.349
 8547TIP3    H125605   4.136   0.286   2.301
 8547TIP3    H225606   4.035   0.228   2.397
 8548TIP3   OH225607   6.017   3.306   3.775
 8548TIP3    H125608   5.957   3.343   3.839
 8548TIP3    H225609   5.985   3.339   3.691
 8549TIP3   OH225610   6.977   3.627   2.375
 8549TIP3    H125611   6.977   3.675   2.458
 8549TIP3    H225612   7.061   3.582   2.373
 8550TIP3   OH225613   2.258   0.200   1.784
 8550TIP3    H125614   2.195   0.130   1.771
 8550TIP3    H225615   2.227   0.247   1.861
 8551TIP3   OH225616   5.233   4.266   4.169
 8551TIP3    H125617   5.220   4.173   4.150
 8551TIP3    H225618   5.322   4.285   4.140
 8552TIP3   OH225619   7.027   6.502   0.895
 8552TIP3    H125620   6.938   6.534   0.881
 8552TIP3    H225621   7.029   6.478   0.988
 8553TIP3   OH225622   4.551   5.803   1.467
 8553TIP3    H125623   4.516   5.748   1.397
 8553TIP3    H225624   4.628   5.756   1.499
 8554TIP3   OH225625   7.154   0.416   0.830
 8554TIP3    H125626   7.068   0.377   0.847
 8554TIP3    H225627   7.174   0.394   0.739
 8555TIP3   OH225628   1.244   3.325   3.408
 8555TIP3    H125629   1.258   3.414   3.443
 8555TIP3    H225630   1.178   3.337   3.340
 8556TIP3   OH225631   2.832   3.913   3.757
 8556TIP3    H125632   2.905   3.916   3.694
 8556TIP3    H225633   2.800   4.003   3.761
 8557TIP3   OH225634   3.830   5.641   0.192
 8557TIP3    H125635   3.776   5.641   0.113
 8557TIP3    H225636   3.770   5.618   0.262
 8558TIP3   OH225637   3.765   3.996   5.091
 8558TIP3    H125638   3.733   3.913   5.124
 8558TIP3    H225639   3.723   4.006   5.005
 8559TIP3   OH225640   5.859   1.215   3.182
 8559TIP3    H125641   5.843   1.154   3.110
 8559TIP3    H225642   5.924   1.171   3.237
 8560TIP3   OH225643   2.164   6.747   0.729
 8560TIP3    H125644   2.248   6.702   0.732
 8560TIP3    H225645   2.144   6.766   0.821
 8561TIP3   OH225646   3.315   2.776   3.157
 8561TIP3    H125647   3.267   2.704   3.198
 8561TIP3    H225648   3.247   2.838   3.130
 8562TIP3   OH225649   5.062   5.817   1.025
 8562TIP3    H125650   5.054   5.840   0.932
 8562TIP3    H225651   5.048   5.723   1.028
 8563TIP3   OH225652   3.501   0.489   4.731
 8563TIP3    H125653   3.563   0.554   4.765
 8563TIP3    H225654   3.437   0.479   4.801
 8564TIP3   OH225655   2.662   3.499   3.741
 8564TIP3    H125656   2.577   3.468   3.709
 8564TIP3    H225657   2.677   3.450   3.821
 8565TIP3   OH225658   1.668   0.742   0.127
 8565TIP3    H125659   1.734   0.776   0.066
 8565TIP3    H225660   1.683   0.791   0.208
 8566TIP3   OH225661   5.340   5.921   5.814
 8566TIP3    H125662   5.368   5.989   5.875
 8566TIP3    H225663   5.246   5.932   5.806
 8567TIP3   OH225664   5.709   0.600   1.848
 8567TIP3    H125665   5.624   0.635   1.878
 8567TIP3    H225666   5.774   0.655   1.893
 8568TIP3   OH225667   6.885   4.810   0.013
 8568TIP3    H125668   6.805   4.784   0.058
 8568TIP3    H225669   6.933   4.861   0.078
 8569TIP3   OH225670   2.925   2.442   5.007
 8569TIP3    H125671   2.923   2.456   5.102
 8569TIP3    H225672   2.977   2.362   4.996
 8570TIP3   OH225673   4.185   0.773   3.149
 8570TIP3    H125674   4.233   0.712   3.206
 8570TIP3    H225675   4.248   0.842   3.130
 8571TIP3   OH225676   1.844   3.555   0.475
 8571TIP3    H125677   1.774   3.559   0.410
 8571TIP3    H225678   1.908   3.619   0.446
 8572TIP3   OH225679   5.257   0.374   4.522
 8572TIP3    H125680   5.204   0.364   4.600
 8572TIP3    H225681   5.246   0.292   4.475
 8573TIP3   OH225682   0.857   1.652   1.251
 8573TIP3    H125683   0.927   1.589   1.232
 8573TIP3    H225684   0.852   1.654   1.346
 8574TIP3   OH225685   1.136   6.334   1.211
 8574TIP3    H125686   1.127   6.403   1.145
 8574TIP3    H225687   1.063   6.349   1.271
 8575TIP3   OH225688   1.168   2.357   3.983
 8575TIP3    H125689   1.095   2.324   4.035
 8575TIP3    H225690   1.169   2.451   3.998
 8576TIP3   OH225691   0.952   3.358   5.287
 8576TIP3    H125692   1.013   3.406   5.343
 8576TIP3    H225693   0.972   3.388   5.198
 8577TIP3   OH225694   6.087   2.971   3.353
 8577TIP3    H125695   6.153   3.003   3.415
 8577TIP3    H225696   6.129   2.980   3.267
 8578TIP3   OH225697   1.276   3.633   2.054
 8578TIP3    H125698   1.246   3.724   2.050
 8578TIP3    H225699   1.210   3.584   2.005
 8579TIP3   OH225700   2.807   6.672   0.213
 8579TIP3    H125701   2.729   6.727   0.205
 8579TIP3    H225702   2.774   6.582   0.208
 8580TIP3   OH225703   5.473   2.539   3.323
 8580TIP3    H125704   5.484   2.632   3.339
 8580TIP3    H225705   5.402   2.534   3.258
 8581TIP3   OH225706   0.740   1.164   3.388
 8581TIP3    H125707   0.740   1.078   3.429
 8581TIP3    H225708   0.754   1.146   3.295
 8582TIP3   OH225709   2.692   1.006   3.593
 8582TIP3    H125710   2.674   1.075   3.657
 8582TIP3    H225711   2.785   1.015   3.573
 8583TIP3   OH225712   0.547   0.222   4.352
 8583TIP3    H125713   0.508   0.256   4.271
 8583TIP3    H225714   0.481   0.163   4.387
 8584TIP3   OH225715   0.926   3.435   2.056
 8584TIP3    H125716   0.867   3.372   2.098
 8584TIP3    H225717   0.885   3.520   2.071
 8585TIP3   OH225718   4.425   2.344   0.709
 8585TIP3    H125719   4.402   2.420   0.762
 8585TIP3    H225720   4.506   2.368   0.665
 8586TIP3   OH225721   2.013   5.577   0.368
 8586TIP3    H125722   1.956   5.513   0.325
 8586TIP3    H225723   2.044   5.633   0.297
 8587TIP3   OH225724   3.504   3.965   4.979
 8587TIP3    H125725   3.458   4.046   5.003
 8587TIP3    H225726   3.467   3.899   5.037
 8588TIP3   OH225727   3.150   3.598   2.383
 8588TIP3    H125728   3.117   3.651   2.455
 8588TIP3    H225729   3.213   3.655   2.338
 8589TIP3   OH225730   1.243   0.124   5.523
 8589TIP3    H125731   1.200   0.188   5.466
 8589TIP3    H225732   1.202   0.137   5.609
 8590TIP3   OH225733   5.502   1.456   2.826
 8590TIP3    H125734   5.465   1.386   2.880
 8590TIP3    H225735   5.556   1.411   2.761
 8591TIP3   OH225736   2.056   3.584   0.718
 8591TIP3    H125737   2.070   3.495   0.750
 8591TIP3    H225738   1.962   3.587   0.697
 8592TIP3   OH225739   7.106   2.380   0.604
 8592TIP3    H125740   7.197   2.397   0.629
 8592TIP3    H225741   7.059   2.374   0.687
 8593TIP3   OH225742   3.992   1.663   3.533
 8593TIP3    H125743   4.065   1.647   3.473
 8593TIP3    H225744   3.927   1.597   3.508
 8594TIP3   OH225745   2.388   1.174   5.200
 8594TIP3    H125746   2.437   1.246   5.161
 8594TIP3    H225747   2.313   1.216   5.243
 8595TIP3   OH225748   5.361   4.369   5.127
 8595TIP3    H125749   5.414   4.448   5.123
 8595TIP3    H225750   5.416   4.301   5.090
 8596TIP3   OH225751   3.878   3.465   0.263
 8596TIP3    H125752   3.882   3.370   0.253
 8596TIP3    H225753   3.812   3.479   0.331
 8597TIP3   OH225754   0.943   3.074   4.861
 8597TIP3    H125755   0.992   3.008   4.813
 8597TIP3    H225756   0.998   3.152   4.858
 8598TIP3   OH225757   0.412  -0.001   1.261
 8598TIP3    H125758   0.430   0.076   1.315
 8598TIP3    H225759   0.320   0.009   1.236
 8599TIP3   OH225760   5.089   1.772   5.137
 8599TIP3    H125761   5.170   1.725   5.117
 8599TIP3    H225762   5.019   1.713   5.110
 8600TIP3   OH225763   0.368   5.215   2.579
 8600TIP3    H125764   0.438   5.151   2.572
 8600TIP3    H225765   0.306   5.189   2.511
 8601TIP3   OH225766   4.285   3.762   3.173
 8601TIP3    H125767   4.191   3.779   3.165
 8601TIP3    H225768   4.291   3.700   3.246
 8602TIP3   OH225769   5.878   3.320   2.884
 8602TIP3    H125770   5.883   3.236   2.929
 8602TIP3    H225771   5.918   3.382   2.945
 8603TIP3   OH225772   2.810   5.333   4.966
 8603TIP3    H125773   2.885   5.321   5.024
 8603TIP3    H225774   2.779   5.244   4.948
 8604TIP3   OH225775   5.592   6.189   0.080
 8604TIP3    H125776   5.537   6.221   0.151
 8604TIP3    H225777   5.539   6.121   0.038
 8605TIP3   OH225778   3.681   0.304   1.589
 8605TIP3    H125779   3.593   0.265   1.587
 8605TIP3    H225780   3.717   0.277   1.674
 8606TIP3   OH225781   2.975   6.208   3.637
 8606TIP3    H125782   2.927   6.214   3.555
 8606TIP3    H225783   2.918   6.249   3.702
 8607TIP3   OH225784   5.976   6.676   3.132
 8607TIP3    H125785   6.069   6.691   3.152
 8607TIP3    H225786   5.928   6.725   3.198
 8608TIP3   OH225787   6.598   6.486   4.684
 8608TIP3    H125788   6.647   6.450   4.611
 8608TIP3    H225789   6.507   6.463   4.665
 8609TIP3   OH225790   6.485   1.999   1.723
 8609TIP3    H125791   6.484   1.994   1.819
 8609TIP3    H225792   6.405   2.047   1.701
 8610TIP3   OH225793   0.934   5.894   1.709
 8610TIP3    H125794   0.841   5.890   1.730
 8610TIP3    H225795   0.978   5.875   1.792
 8611TIP3   OH225796   5.738   0.579   4.448
 8611TIP3    H125797   5.644   0.563   4.438
 8611TIP3    H225798   5.745   0.631   4.527
 8612TIP3   OH225799   5.101   2.575   1.319
 8612TIP3    H125800   5.058   2.499   1.359
 8612TIP3    H225801   5.074   2.572   1.227
 8613TIP3   OH225802   1.254   0.148   0.317
 8613TIP3    H125803   1.307   0.172   0.393
 8613TIP3    H225804   1.178   0.103   0.354
 8614TIP3   OH225805   6.467   4.507   1.562
 8614TIP3    H125806   6.488   4.599   1.547
 8614TIP3    H225807   6.553   4.465   1.573
 8615TIP3   OH225808   7.011   2.450   5.218
 8615TIP3    H125809   6.954   2.527   5.218
 8615TIP3    H225810   6.959   2.381   5.258
 8616TIP3   OH225811   5.772   4.607   5.560
 8616TIP3    H125812   5.760   4.523   5.604
 8616TIP3    H225813   5.790   4.585   5.469
 8617TIP3   OH225814   4.102   1.092   0.671
 8617TIP3    H125815   4.100   0.996   0.672
 8617TIP3    H225816   4.159   1.115   0.598
 8618TIP3   OH225817   3.886   6.136   1.641
 8618TIP3    H125818   3.943   6.132   1.564
 8618TIP3    H225819   3.820   6.201   1.618
 8619TIP3   OH225820   2.629   4.920   1.752
 8619TIP3    H125821   2.593   4.852   1.809
 8619TIP3    H225822   2.568   4.993   1.762
 8620TIP3   OH225823   6.996   3.722   3.943
 8620TIP3    H125824   7.062   3.778   3.901
 8620TIP3    H225825   6.914   3.768   3.928
 8621TIP3   OH225826   2.273   6.058   5.032
 8621TIP3    H125827   2.204   6.002   4.997
 8621TIP3    H225828   2.257   6.144   4.992
 8622TIP3   OH225829   6.223   1.767   3.354
 8622TIP3    H125830   6.143   1.721   3.329
 8622TIP3    H225831   6.204   1.801   3.442
 8623TIP3   OH225832   2.744   1.550   1.771
 8623TIP3    H125833   2.805   1.585   1.836
 8623TIP3    H225834   2.665   1.604   1.782
 8624TIP3   OH225835   5.028   6.201   5.049
 8624TIP3    H125836   4.976   6.235   5.123
 8624TIP3    H225837   5.101   6.263   5.041
 8625TIP3   OH225838   6.853   4.648   0.529
 8625TIP3    H125839   6.944   4.632   0.505
 8625TIP3    H225840   6.834   4.735   0.496
 8626TIP3   OH225841   4.338   3.298   0.725
 8626TIP3    H125842   4.313   3.324   0.636
 8626TIP3    H225843   4.346   3.381   0.773
 8627TIP3   OH225844   5.340   3.716   4.442
 8627TIP3    H125845   5.393   3.643   4.474
 8627TIP3    H225846   5.282   3.737   4.515
 8628TIP3   OH225847   6.755   2.522   4.989
 8628TIP3    H125848   6.783   2.567   4.909
 8628TIP3    H225849   6.805   2.564   5.059
 8629TIP3   OH225850   5.896   2.537   3.676
 8629TIP3    H125851   5.858   2.491   3.601
 8629TIP3    H225852   5.925   2.621   3.640
 8630TIP3   OH225853   2.830   1.035   0.726
 8630TIP3    H125854   2.864   1.122   0.706
 8630TIP3    H225855   2.789   1.005   0.645
 8631TIP3   OH225856   2.640   0.779   2.696
 8631TIP3    H125857   2.649   0.749   2.787
 8631TIP3    H225858   2.637   0.874   2.702
 8632TIP3   OH225859   4.527   2.999   0.438
 8632TIP3    H125860   4.511   3.077   0.492
 8632TIP3    H225861   4.622   2.986   0.444
 8633TIP3   OH225862   1.404   5.230   0.295
 8633TIP3    H125863   1.394   5.323   0.316
 8633TIP3    H225864   1.377   5.185   0.376
 8634TIP3   OH225865   1.007   3.322   2.503
 8634TIP3    H125866   0.977   3.252   2.445
 8634TIP3    H225867   0.929   3.375   2.518
 8635TIP3   OH225868   5.306   2.885   5.634
 8635TIP3    H125869   5.391   2.865   5.673
 8635TIP3    H225870   5.324   2.953   5.570
 8636TIP3   OH225871   2.402   4.589   5.101
 8636TIP3    H125872   2.433   4.593   5.010
 8636TIP3    H225873   2.476   4.555   5.151
 8637TIP3   OH225874   6.499   6.203   0.882
 8637TIP3    H125875   6.529   6.136   0.944
 8637TIP3    H225876   6.405   6.209   0.897
 8638TIP3   OH225877   3.058   6.682   0.292
 8638TIP3    H125878   2.964   6.687   0.274
 8638TIP3    H225879   3.092   6.624   0.224
 8639TIP3   OH225880   0.326   4.126   0.875
 8639TIP3    H125881   0.232   4.108   0.871
 8639TIP3    H225882   0.333   4.220   0.861
 8640TIP3   OH225883   6.622   1.309   1.524
 8640TIP3    H125884   6.535   1.294   1.562
 8640TIP3    H225885   6.662   1.222   1.519
 8641TIP3   OH225886   3.567   1.927   2.685
 8641TIP3    H125887   3.654   1.915   2.722
 8641TIP3    H225888   3.581   1.980   2.607
 8642TIP3   OH225889   6.957   4.408   3.961
 8642TIP3    H125890   6.959   4.315   3.981
 8642TIP3    H225891   7.049   4.435   3.961
 8643TIP3   OH225892   5.515   1.869   5.748
 8643TIP3    H125893   5.558   1.888   5.831
 8643TIP3    H225894   5.422   1.860   5.771
 8644TIP3   OH225895   2.074   2.557   4.507
 8644TIP3    H125896   2.108   2.646   4.517
 8644TIP3    H225897   2.084   2.537   4.414
 8645TIP3   OH225898   4.946   0.473   3.509
 8645TIP3    H125899   4.901   0.394   3.539
 8645TIP3    H225900   4.876   0.538   3.499
 8646TIP3   OH225901   4.100   1.731   3.937
 8646TIP3    H125902   4.174   1.695   3.986
 8646TIP3    H225903   4.138   1.803   3.886
 8647TIP3   OH225904   3.711   1.149   1.254
 8647TIP3    H125905   3.629   1.108   1.281
 8647TIP3    H225906   3.684   1.224   1.201
 8648TIP3   OH225907   4.929   0.915   5.088
 8648TIP3    H125908   4.865   0.969   5.134
 8648TIP3    H225909   4.995   0.893   5.154
 8649TIP3   OH225910   1.926   6.054   4.491
 8649TIP3    H125911   2.020   6.072   4.492
 8649TIP3    H225912   1.920   5.960   4.510
 8650TIP3   OH225913   5.679   6.497   1.328
 8650TIP3    H125914   5.645   6.410   1.306
 8650TIP3    H225915   5.605   6.556   1.313
 8651TIP3   OH225916   1.770   2.518   0.151
 8651TIP3    H125917   1.802   2.573   0.079
 8651TIP3    H225918   1.838   2.524   0.218
 8652TIP3   OH225919   5.048   2.643   0.317
 8652TIP3    H125920   5.011   2.684   0.395
 8652TIP3    H225921   4.988   2.666   0.246
 8653TIP3   OH225922   4.824   1.230   3.951
 8653TIP3    H125923   4.850   1.169   3.881
 8653TIP3    H225924   4.744   1.192   3.988
 8654TIP3   OH225925   4.048   5.831   1.675
 8654TIP3    H125926   4.072   5.859   1.764
 8654TIP3    H225927   4.125   5.849   1.622
 8655TIP3   OH225928   0.304   0.532   4.317
 8655TIP3    H125929   0.243   0.505   4.386
 8655TIP3    H225930   0.305   0.459   4.256
 8656TIP3   OH225931   2.001   0.088   4.481
 8656TIP3    H125932   2.096   0.093   4.495
 8656TIP3    H225933   1.987   0.003   4.440
 8657TIP3   OH225934   5.625   4.622   0.657
 8657TIP3    H125935   5.585   4.553   0.710
 8657TIP3    H225936   5.559   4.645   0.592
 8658TIP3   OH225937   0.378   4.734   5.514
 8658TIP3    H125938   0.301   4.691   5.550
 8658TIP3    H225939   0.396   4.688   5.432
 8659TIP3   OH225940   0.346   5.720   1.588
 8659TIP3    H125941   0.269   5.723   1.530
 8659TIP3    H225942   0.379   5.810   1.586
 8660TIP3   OH225943   0.599   2.018   4.083
 8660TIP3    H125944   0.658   2.089   4.057
 8660TIP3    H225945   0.520   2.063   4.112
 8661TIP3   OH225946   1.265   6.065   2.136
 8661TIP3    H125947   1.230   6.133   2.193
 8661TIP3    H225948   1.228   6.084   2.050
 8662TIP3   OH225949   4.395   1.429   3.233
 8662TIP3    H125950   4.347   1.371   3.173
 8662TIP3    H225951   4.443   1.487   3.175
 8663TIP3   OH225952   3.069   3.154   3.294
 8663TIP3    H125953   3.038   3.228   3.242
 8663TIP3    H225954   3.164   3.157   3.286
 8664TIP3   OH225955   5.785   4.126   0.181
 8664TIP3    H125956   5.871   4.085   0.189
 8664TIP3    H225957   5.765   4.157   0.270
 8665TIP3   OH225958   5.212   6.356   4.943
 8665TIP3    H125959   5.200   6.438   4.895
 8665TIP3    H225960   5.304   6.358   4.970
 8666TIP3   OH225961   5.899   6.750   0.456
 8666TIP3    H125962   5.824   6.792   0.414
 8666TIP3    H225963   5.868   6.730   0.545
 8667TIP3   OH225964   2.432   2.282   1.787
 8667TIP3    H125965   2.422   2.211   1.724
 8667TIP3    H225966   2.360   2.270   1.849
 8668TIP3   OH225967   0.052   2.637   2.636
 8668TIP3    H125968   0.093   2.723   2.645
 8668TIP3    H225969  -0.042   2.655   2.640
 8669TIP3   OH225970   0.587   1.751   5.654
 8669TIP3    H125971   0.668   1.759   5.704
 8669TIP3    H225972   0.521   1.723   5.718
 8670TIP3   OH225973   2.473   3.152   4.000
 8670TIP3    H125974   2.496   3.178   3.910
 8670TIP3    H225975   2.408   3.083   3.989
 8671TIP3   OH225976   4.085   4.883   0.050
 8671TIP3    H125977   4.018   4.821   0.077
 8671TIP3    H225978   4.056   4.967   0.085
 8672TIP3   OH225979   4.334   5.528   1.102
 8672TIP3    H125980   4.430   5.522   1.098
 8672TIP3    H225981   4.317   5.581   1.180
 8673TIP3   OH225982   0.721   3.160   3.728
 8673TIP3    H125983   0.809   3.195   3.712
 8673TIP3    H225984   0.713   3.087   3.667
 8674TIP3   OH225985   0.634   1.726   3.514
 8674TIP3    H125986   0.703   1.660   3.510
 8674TIP3    H225987   0.637   1.769   3.429
 8675TIP3   OH225988   3.553   3.364   4.903
 8675TIP3    H125989   3.464   3.330   4.889
 8675TIP3    H225990   3.593   3.362   4.817
 8676TIP3   OH225991   4.401   3.637   1.008
 8676TIP3    H125992   4.481   3.662   1.053
 8676TIP3    H225993   4.334   3.695   1.044
 8677TIP3   OH225994   0.781   2.733   4.705
 8677TIP3    H125995   0.753   2.717   4.615
 8677TIP3    H225996   0.795   2.646   4.742
 8678TIP3   OH225997   3.108   6.503   3.324
 8678TIP3    H125998   3.109   6.574   3.259
 8678TIP3    H225999   3.079   6.426   3.275
 8679TIP3   OH226000   4.200   2.898   0.154
 8679TIP3    H126001   4.250   2.918   0.074
 8679TIP3    H226002   4.264   2.857   0.212
 8680TIP3   OH226003   5.830   3.398   0.301
 8680TIP3    H126004   5.742   3.381   0.335
 8680TIP3    H226005   5.866   3.463   0.362
 8681TIP3   OH226006   1.481   5.471   0.089
 8681TIP3    H126007   1.544   5.402   0.110
 8681TIP3    H226008   1.447   5.499   0.174
 8682TIP3   OH226009   3.840   3.708   4.175
 8682TIP3    H126010   3.802   3.789   4.211
 8682TIP3    H226011   3.796   3.697   4.091
 8683TIP3   OH226012   3.392   4.763   5.006
 8683TIP3    H126013   3.447   4.712   5.065
 8683TIP3    H226014   3.452   4.800   4.942
 8684TIP3   OH226015   4.951   6.329   1.022
 8684TIP3    H126016   4.904   6.404   0.985
 8684TIP3    H226017   4.896   6.300   1.095
 8685TIP3   OH226018   6.974   2.991   0.799
 8685TIP3    H126019   6.936   2.912   0.836
 8685TIP3    H226020   6.921   3.010   0.722
 8686TIP3   OH226021   2.093   5.363   4.823
 8686TIP3    H126022   2.185   5.373   4.795
 8686TIP3    H226023   2.043   5.399   4.749
 8687TIP3   OH226024   2.510   2.946   0.379
 8687TIP3    H126025   2.543   3.005   0.312
 8687TIP3    H226026   2.470   2.874   0.330
 8688TIP3   OH226027   3.171   3.595   2.797
 8688TIP3    H126028   3.175   3.687   2.823
 8688TIP3    H226029   3.079   3.579   2.778
 8689TIP3   OH226030   5.263   4.664   4.787
 8689TIP3    H126031   5.331   4.623   4.732
 8689TIP3    H226032   5.254   4.752   4.753
 8690TIP3   OH226033   4.133   3.672   0.752
 8690TIP3    H126034   4.200   3.695   0.687
 8690TIP3    H226035   4.069   3.622   0.702
 8691TIP3   OH226036   3.065   3.264   1.797
 8691TIP3    H126037   3.067   3.259   1.893
 8691TIP3    H226038   2.993   3.206   1.772
 8692TIP3   OH226039   0.091   6.438   1.869
 8692TIP3    H126040   0.183   6.414   1.879
 8692TIP3    H226041   0.042   6.367   1.910
 8693TIP3   OH226042   2.762   4.636   1.561
 8693TIP3    H126043   2.760   4.662   1.653
 8693TIP3    H226044   2.823   4.697   1.521
 8694TIP3   OH226045   1.170   3.612   5.842
 8694TIP3    H126046   1.097   3.563   5.805
 8694TIP3    H226047   1.137   3.701   5.851
 8695TIP3   OH226048   1.511   5.193   0.895
 8695TIP3    H126049   1.500   5.125   0.961
 8695TIP3    H226050   1.468   5.157   0.817
 8696TIP3   OH226051   6.602   1.828   0.897
 8696TIP3    H126052   6.623   1.919   0.918
 8696TIP3    H226053   6.568   1.831   0.808
 8697TIP3   OH226054   0.229   3.185   5.866
 8697TIP3    H126055   0.282   3.126   5.813
 8697TIP3    H226056   0.266   3.272   5.849
 8698TIP3   OH226057   3.731   1.520   2.389
 8698TIP3    H126058   3.728   1.459   2.315
 8698TIP3    H226059   3.807   1.493   2.440
 8699TIP3   OH226060   1.643   5.913   0.467
 8699TIP3    H126061   1.665   6.006   0.468
 8699TIP3    H226062   1.638   5.889   0.560
 8700TIP3   OH226063   5.628   3.991   4.401
 8700TIP3    H126064   5.705   4.040   4.371
 8700TIP3    H226065   5.605   3.935   4.327
 8701TIP3   OH226066   6.049   1.591   0.729
 8701TIP3    H126067   5.971   1.626   0.684
 8701TIP3    H226068   6.121   1.647   0.699
 8702TIP3   OH226069   0.262   5.797   3.639
 8702TIP3    H126070   0.318   5.871   3.616
 8702TIP3    H226071   0.174   5.834   3.641
 8703TIP3   OH226072   4.540   6.645   4.488
 8703TIP3    H126073   4.452   6.658   4.524
 8703TIP3    H226074   4.543   6.703   4.412
 8704TIP3   OH226075   1.501   0.825   3.180
 8704TIP3    H126076   1.547   0.873   3.249
 8704TIP3    H226077   1.526   0.734   3.194
 8705TIP3   OH226078   3.572   4.986   3.055
 8705TIP3    H126079   3.635   5.027   3.113
 8705TIP3    H226080   3.558   4.898   3.091
 8706TIP3   OH226081   3.465   2.522   4.193
 8706TIP3    H126082   3.558   2.503   4.182
 8706TIP3    H226083   3.440   2.569   4.114
 8707TIP3   OH226084   3.038   0.196   0.085
 8707TIP3    H126085   3.004   0.116   0.124
 8707TIP3    H226086   3.089   0.237   0.156
 8708TIP3   OH226087   0.415   2.542   1.012
 8708TIP3    H126088   0.434   2.452   0.987
 8708TIP3    H226089   0.380   2.535   1.101
 8709TIP3   OH226090   0.782   5.915   0.496
 8709TIP3    H126091   0.763   6.001   0.536
 8709TIP3    H226092   0.713   5.903   0.432
 8710TIP3   OH226093   2.481   3.322   5.351
 8710TIP3    H126094   2.508   3.239   5.312
 8710TIP3    H226095   2.541   3.387   5.314
 8711TIP3   OH226096   4.550   3.009   2.474
 8711TIP3    H126097   4.522   2.926   2.514
 8711TIP3    H226098   4.593   2.982   2.393
 8712TIP3   OH226099   4.349   0.781   1.063
 8712TIP3    H126100   4.319   0.871   1.077
 8712TIP3    H226101   4.366   0.747   1.151
 8713TIP3   OH226102   4.205  -0.038   0.357
 8713TIP3    H126103   4.173   0.046   0.323
 8713TIP3    H226104   4.262  -0.013   0.430
 8714TIP3   OH226105   5.659   4.308   2.658
 8714TIP3    H126106   5.705   4.359   2.591
 8714TIP3    H226107   5.692   4.219   2.647
 8715TIP3   OH226108   3.430   3.043   0.841
 8715TIP3    H126109   3.489   3.099   0.790
 8715TIP3    H226110   3.476   2.959   0.845
 8716TIP3   OH226111   5.321   3.025   3.217
 8716TIP3    H126112   5.397   3.076   3.191
 8716TIP3    H226113   5.261   3.089   3.256
 8717TIP3   OH226114   4.955   3.073   5.266
 8717TIP3    H126115   4.911   3.030   5.192
 8717TIP3    H226116   4.890   3.135   5.299
 8718TIP3   OH226117   0.126   5.328   1.819
 8718TIP3    H126118   0.124   5.233   1.812
 8718TIP3    H226119   0.140   5.359   1.730
 8719TIP3   OH226120   5.226   2.863   1.492
 8719TIP3    H126121   5.294   2.801   1.517
 8719TIP3    H226122   5.217   2.852   1.397
 8720TIP3   OH226123   3.798   3.697   2.814
 8720TIP3    H126124   3.873   3.638   2.821
 8720TIP3    H226125   3.766   3.684   2.724
 8721TIP3   OH226126   6.174   4.229   0.119
 8721TIP3    H126127   6.155   4.137   0.101
 8721TIP3    H226128   6.102   4.258   0.174
 8722TIP3   OH226129   4.196   1.429   1.964
 8722TIP3    H126130   4.137   1.435   2.038
 8722TIP3    H226131   4.181   1.341   1.928
 8723TIP3   OH226132   0.299   0.819   1.756
 8723TIP3    H126133   0.243   0.860   1.822
 8723TIP3    H226134   0.244   0.816   1.677
 8724TIP3   OH226135   3.406   2.838   5.490
 8724TIP3    H126136   3.478   2.785   5.455
 8724TIP3    H226137   3.448   2.895   5.555
 8725TIP3   OH226138   2.001   1.410   4.502
 8725TIP3    H126139   2.068   1.403   4.434
 8725TIP3    H226140   1.929   1.356   4.470
 8726TIP3   OH226141   5.553   1.416   3.698
 8726TIP3    H126142   5.608   1.444   3.771
 8726TIP3    H226143   5.512   1.496   3.666
 8727TIP3   OH226144   0.918   4.913   1.759
 8727TIP3    H126145   0.903   4.913   1.665
 8727TIP3    H226146   0.965   4.995   1.775
 8728TIP3   OH226147   5.662   1.926   0.061
 8728TIP3    H126148   5.601   1.985   0.016
 8728TIP3    H226149   5.740   1.925   0.005
 8729TIP3   OH226150   5.979   0.761   0.766
 8729TIP3    H126151   5.930   0.842   0.779
 8729TIP3    H226152   6.066   0.791   0.737
 8730TIP3   OH226153   2.113   0.233   2.615
 8730TIP3    H126154   2.079   0.273   2.534
 8730TIP3    H226155   2.040   0.181   2.648
 8731TIP3   OH226156   2.778   2.642   0.357
 8731TIP3    H126157   2.730   2.668   0.435
 8731TIP3    H226158   2.862   2.689   0.364
 8732TIP3   OH226159   2.710   3.444   5.561
 8732TIP3    H126160   2.735   3.536   5.557
 8732TIP3    H226161   2.772   3.405   5.624
 8733TIP3   OH226162   0.188   6.067   5.377
 8733TIP3    H126163   0.144   6.139   5.422
 8733TIP3    H226164   0.119   6.003   5.360
 8734TIP3   OH226165   3.385   6.095   1.229
 8734TIP3    H126166   3.330   6.174   1.229
 8734TIP3    H226167   3.420   6.090   1.318
 8735TIP3   OH226168   6.331   1.526   5.786
 8735TIP3    H126169   6.238   1.521   5.767
 8735TIP3    H226170   6.336   1.537   5.881
 8736TIP3   OH226171   7.009   5.118   2.850
 8736TIP3    H126172   6.953   5.048   2.816
 8736TIP3    H226173   6.950   5.176   2.898
 8737TIP3   OH226174   2.649   2.987   0.102
 8737TIP3    H126175   2.639   2.895   0.076
 8737TIP3    H226176   2.743   2.996   0.122
 8738TIP3   OH226177   4.825   1.205   1.167
 8738TIP3    H126178   4.908   1.181   1.209
 8738TIP3    H226179   4.774   1.124   1.166
 8739TIP3   OH226180   5.231   3.724   2.092
 8739TIP3    H126181   5.243   3.693   2.182
 8739TIP3    H226182   5.316   3.761   2.068
 8740TIP3   OH226183   6.568   5.827   2.015
 8740TIP3    H126184   6.622   5.792   2.087
 8740TIP3    H226185   6.510   5.890   2.058
 8741TIP3   OH226186   1.235   2.758   0.120
 8741TIP3    H126187   1.204   2.712   0.042
 8741TIP3    H226188   1.201   2.707   0.193
 8742TIP3   OH226189   6.100   0.117   4.357
 8742TIP3    H126190   6.152   0.063   4.416
 8742TIP3    H226191   6.027   0.060   4.331
 8743TIP3   OH226192   3.153   2.875   5.368
 8743TIP3    H126193   3.241   2.867   5.406
 8743TIP3    H226194   3.096   2.889   5.444
 8744TIP3   OH226195   6.463   1.409   1.137
 8744TIP3    H126196   6.425   1.322   1.150
 8744TIP3    H226197   6.388   1.469   1.142
 8745TIP3   OH226198   2.986   5.071   2.820
 8745TIP3    H126199   3.015   5.071   2.911
 8745TIP3    H226200   2.960   4.980   2.803
 8746TIP3   OH226201   6.948   1.099   4.188
 8746TIP3    H126202   6.996   1.085   4.107
 8746TIP3    H226203   6.867   1.142   4.160
 8747TIP3   OH226204   0.972   5.952   3.939
 8747TIP3    H126205   1.043   5.932   3.999
 8747TIP3    H226206   1.002   5.919   3.854
 8748TIP3   OH226207   3.970   3.620   3.605
 8748TIP3    H126208   3.936   3.540   3.644
 8748TIP3    H226209   4.009   3.668   3.678
 8749TIP3   OH226210   5.821   1.550   2.442
 8749TIP3    H126211   5.831   1.484   2.511
 8749TIP3    H226212   5.884   1.618   2.465
 8750TIP3   OH226213   4.089   3.774   3.794
 8750TIP3    H126214   4.103   3.867   3.777
 8750TIP3    H226215   4.084   3.768   3.890
 8751TIP3   OH226216   1.296   4.468   3.844
 8751TIP3    H126217   1.344   4.413   3.907
 8751TIP3    H226218   1.314   4.558   3.871
 8752TIP3   OH226219   5.507   5.979   0.515
 8752TIP3    H126220   5.482   5.989   0.607
 8752TIP3    H226221   5.586   5.925   0.517
 8753TIP3   OH226222   5.915   3.999   1.295
 8753TIP3    H126223   5.831   4.012   1.251
 8753TIP3    H226224   5.980   4.018   1.228
 8754TIP3   OH226225   6.820   1.218   0.236
 8754TIP3    H126226   6.851   1.156   0.302
 8754TIP3    H226227   6.734   1.185   0.211
 8755TIP3   OH226228   0.158   4.640   5.684
 8755TIP3    H126229   0.122   4.551   5.682
 8755TIP3    H226230   0.130   4.674   5.770
 8756TIP3   OH226231   2.817   2.722   4.528
 8756TIP3    H126232   2.801   2.811   4.497
 8756TIP3    H226233   2.735   2.696   4.570
 8757TIP3   OH226234   6.895   1.364   0.973
 8757TIP3    H126235   6.819   1.422   0.975
 8757TIP3    H226236   6.869   1.288   1.026
 8758TIP3   OH226237   4.320   4.180   1.577
 8758TIP3    H126238   4.319   4.164   1.483
 8758TIP3    H226239   4.286   4.100   1.616
 8759TIP3   OH226240   2.528   2.711   5.554
 8759TIP3    H126241   2.538   2.807   5.550
 8759TIP3    H226242   2.505   2.686   5.464
 8760TIP3   OH226243   0.637   5.836   1.338
 8760TIP3    H126244   0.544   5.828   1.317
 8760TIP3    H226245   0.658   5.757   1.387
 8761TIP3   OH226246   5.489   6.539   0.119
 8761TIP3    H126247   5.435   6.514   0.194
 8761TIP3    H226248   5.427   6.542   0.045
 8762TIP3   OH226249   4.347   0.041   0.575
 8762TIP3    H126250   4.313   0.130   0.569
 8762TIP3    H226251   4.422   0.047   0.634
 8763TIP3   OH226252   4.613   6.492   1.163
 8763TIP3    H126253   4.537   6.441   1.191
 8763TIP3    H226254   4.688   6.441   1.195
 8764TIP3   OH226255   1.421   4.488   0.626
 8764TIP3    H126256   1.430   4.559   0.689
 8764TIP3    H226257   1.411   4.532   0.542
 8765TIP3   OH226258   5.406   5.443   3.563
 8765TIP3    H126259   5.339   5.442   3.494
 8765TIP3    H226260   5.442   5.354   3.563
 8766TIP3   OH226261   2.394   5.843   0.925
 8766TIP3    H126262   2.325   5.790   0.886
 8766TIP3    H226263   2.464   5.843   0.859
 8767TIP3   OH226264   1.995   1.058   5.197
 8767TIP3    H126265   1.999   0.973   5.152
 8767TIP3    H226266   2.063   1.052   5.265
 8768TIP3   OH226267   0.635   3.360   3.399
 8768TIP3    H126268   0.715   3.318   3.367
 8768TIP3    H226269   0.665   3.445   3.432
 8769TIP3   OH226270   0.898   2.771   0.423
 8769TIP3    H126271   0.987   2.765   0.460
 8769TIP3    H226272   0.855   2.837   0.477
 8770TIP3   OH226273   3.769   0.142   1.277
 8770TIP3    H126274   3.851   0.187   1.297
 8770TIP3    H226275   3.713   0.211   1.241
 8771TIP3   OH226276   6.104   4.422   1.274
 8771TIP3    H126277   6.175   4.372   1.315
 8771TIP3    H226278   6.030   4.360   1.271
 8772TIP3   OH226279   0.743   5.630   3.477
 8772TIP3    H126280   0.763   5.714   3.518
 8772TIP3    H226281   0.759   5.565   3.546
 8773TIP3   OH226282   6.848   6.654   5.890
 8773TIP3    H126283   6.808   6.589   5.832
 8773TIP3    H226284   6.872   6.726   5.833
 8774TIP3   OH226285   0.972   0.806   4.909
 8774TIP3    H126286   0.990   0.745   4.981
 8774TIP3    H226287   0.979   0.893   4.949
 8775TIP3   OH226288   0.763   2.139   0.041
 8775TIP3    H126289   0.696   2.118  -0.025
 8775TIP3    H226290   0.813   2.210   0.001
 8776TIP3   OH226291   1.929   6.193   5.120
 8776TIP3    H126292   1.868   6.266   5.107
 8776TIP3    H226293   1.910   6.162   5.209
 8777TIP3   OH226294   6.677   4.383   1.853
 8777TIP3    H126295   6.765   4.391   1.888
 8777TIP3    H226296   6.621   4.376   1.931
 8778TIP3   OH226297   5.226   4.792   5.368
 8778TIP3    H126298   5.280   4.766   5.293
 8778TIP3    H226299   5.255   4.735   5.439
 8779TIP3   OH226300   5.317   6.452   0.302
 8779TIP3    H126301   5.278   6.365   0.312
 8779TIP3    H226302   5.284   6.501   0.378
 8780TIP3   OH226303   0.851   6.608   3.320
 8780TIP3    H126304   0.814   6.527   3.354
 8780TIP3    H226305   0.928   6.579   3.271
 8781TIP3   OH226306   4.455   0.041   3.048
 8781TIP3    H126307   4.422   0.013   3.134
 8781TIP3    H226308   4.524  -0.022   3.028
 8782TIP3   OH226309   3.738   3.295   3.258
 8782TIP3    H126310   3.821   3.248   3.253
 8782TIP3    H226311   3.750   3.373   3.205
 8783TIP3   OH226312   3.998   6.096   0.093
 8783TIP3    H126313   4.072   6.090   0.033
 8783TIP3    H226314   3.964   6.185   0.080
 8784TIP3   OH226315   4.186   1.467   1.322
 8784TIP3    H126316   4.101   1.512   1.320
 8784TIP3    H226317   4.233   1.510   1.394
 8785TIP3   OH226318   0.905   3.022   1.823
 8785TIP3    H126319   0.831   3.005   1.881
 8785TIP3    H226320   0.866   3.058   1.744
 8786TIP3   OH226321   2.635   3.738   3.365
 8786TIP3    H126322   2.578   3.757   3.439
 8786TIP3    H226323   2.690   3.816   3.355
 8787TIP3   OH226324   1.542   2.716   2.679
 8787TIP3    H126325   1.492   2.747   2.754
 8787TIP3    H226326   1.539   2.789   2.617
 8788TIP3   OH226327   1.536   5.315   1.665
 8788TIP3    H126328   1.578   5.315   1.579
 8788TIP3    H226329   1.566   5.235   1.707
 8789TIP3   OH226330   0.751   4.625   2.639
 8789TIP3    H126331   0.818   4.567   2.605
 8789TIP3    H226332   0.702   4.655   2.562
 8790TIP3   OH226333   0.987   3.383   4.453
 8790TIP3    H126334   1.062   3.332   4.485
 8790TIP3    H226335   0.955   3.334   4.377
 8791TIP3   OH226336   1.026   5.842   4.782
 8791TIP3    H126337   1.041   5.827   4.875
 8791TIP3    H226338   0.932   5.829   4.770
 8792TIP3   OH226339   6.832   6.290   2.647
 8792TIP3    H126340   6.873   6.373   2.672
 8792TIP3    H226341   6.739   6.310   2.641
 8793TIP3   OH226342   2.662   6.766   5.728
 8793TIP3    H126343   2.601   6.735   5.661
 8793TIP3    H226344   2.625   6.849   5.758
 8794TIP3   OH226345   2.541   2.166   2.135
 8794TIP3    H126346   2.526   2.197   2.224
 8794TIP3    H226347   2.464   2.194   2.086
 8795TIP3   OH226348   1.510   1.669   5.783
 8795TIP3    H126349   1.431   1.615   5.786
 8795TIP3    H226350   1.501   1.729   5.857
 8796TIP3   OH226351   6.889   4.908   3.353
 8796TIP3    H126352   6.831   4.940   3.284
 8796TIP3    H226353   6.952   4.980   3.367
 8797TIP3   OH226354   2.369   6.719   1.114
 8797TIP3    H126355   2.296   6.767   1.076
 8797TIP3    H226356   2.336   6.630   1.126
 8798TIP3   OH226357   5.921   1.746   2.225
 8798TIP3    H126358   5.962   1.729   2.140
 8798TIP3    H226359   5.990   1.787   2.276
 8799TIP3   OH226360   2.142   5.293   1.453
 8799TIP3    H126361   2.078   5.359   1.476
 8799TIP3    H226362   2.212   5.304   1.517
 8800TIP3   OH226363   1.724   4.145   2.581
 8800TIP3    H126364   1.706   4.051   2.584
 8800TIP3    H226365   1.724   4.172   2.673
 8801TIP3   OH226366   5.300   3.585   3.974
 8801TIP3    H126367   5.356   3.530   4.029
 8801TIP3    H226368   5.246   3.633   4.036
 8802TIP3   OH226369   2.930   6.783   4.134
 8802TIP3    H126370   2.901   6.811   4.048
 8802TIP3    H226371   2.899   6.693   4.142
 8803TIP3   OH226372   0.471   3.578   4.804
 8803TIP3    H126373   0.562   3.551   4.807
 8803TIP3    H226374   0.473   3.670   4.776
 8804TIP3   OH226375   5.915   6.435   4.922
 8804TIP3    H126376   5.957   6.357   4.958
 8804TIP3    H226377   5.986   6.497   4.907
 8805TIP3   OH226378   3.282   3.600   0.865
 8805TIP3    H126379   3.229   3.594   0.785
 8805TIP3    H226380   3.236   3.664   0.919
 8806TIP3   OH226381   3.802   0.502   2.492
 8806TIP3    H126382   3.851   0.464   2.566
 8806TIP3    H226383   3.836   0.455   2.415
 8807TIP3   OH226384   6.680   1.399   0.556
 8807TIP3    H126385   6.684   1.495   0.555
 8807TIP3    H226386   6.587   1.379   0.570
 8808TIP3   OH226387   2.525   6.711   4.358
 8808TIP3    H126388   2.523   6.626   4.400
 8808TIP3    H226389   2.474   6.768   4.416
 8809TIP3   OH226390   6.582   1.982   3.531
 8809TIP3    H126391   6.518   2.048   3.556
 8809TIP3    H226392   6.562   1.907   3.588
 8810TIP3   OH226393   5.627   2.102   1.950
 8810TIP3    H126394   5.610   2.195   1.935
 8810TIP3    H226395   5.540   2.062   1.953
 8811TIP3   OH226396   5.244   1.998   0.247
 8811TIP3    H126397   5.187   2.005   0.323
 8811TIP3    H226398   5.289   1.914   0.258
 8812TIP3   OH226399   2.873   5.033   4.440
 8812TIP3    H126400   2.833   4.946   4.448
 8812TIP3    H226401   2.852   5.077   4.522
 8813TIP3   OH226402   5.190   1.878   5.406
 8813TIP3    H126403   5.274   1.903   5.369
 8813TIP3    H226404   5.155   1.813   5.345
 8814TIP3   OH226405   5.412   6.548   1.684
 8814TIP3    H126406   5.346   6.601   1.729
 8814TIP3    H226407   5.484   6.609   1.668
 8815TIP3   OH226408   4.515   6.496   3.205
 8815TIP3    H126409   4.440   6.467   3.154
 8815TIP3    H226410   4.551   6.417   3.244
 8816TIP3   OH226411   6.103   2.665   2.642
 8816TIP3    H126412   6.084   2.649   2.735
 8816TIP3    H226413   6.017   2.667   2.601
 8817TIP3   OH226414   5.096   1.951   1.198
 8817TIP3    H126415   5.001   1.941   1.212
 8817TIP3    H226416   5.125   1.864   1.171
 8818TIP3   OH226417   4.256   2.325   5.214
 8818TIP3    H126418   4.183   2.374   5.178
 8818TIP3    H226419   4.216   2.266   5.278
 8819TIP3   OH226420   6.073   3.680   4.524
 8819TIP3    H126421   6.025   3.729   4.457
 8819TIP3    H226422   6.147   3.735   4.545
 8820TIP3   OH226423   0.673   4.333   4.847
 8820TIP3    H126424   0.731   4.385   4.792
 8820TIP3    H226425   0.673   4.246   4.807
 8821TIP3   OH226426   6.573   4.518   0.884
 8821TIP3    H126427   6.541   4.462   0.954
 8821TIP3    H226428   6.514   4.501   0.811
 8822TIP3   OH226429   4.846   2.846   3.514
 8822TIP3    H126430   4.753   2.864   3.506
 8822TIP3    H226431   4.887   2.896   3.443
 8823TIP3   OH226432   4.615   3.658   4.173
 8823TIP3    H126433   4.683   3.604   4.133
 8823TIP3    H226434   4.611   3.627   4.264
 8824TIP3   OH226435   2.519   4.390   3.412
 8824TIP3    H126436   2.464   4.425   3.482
 8824TIP3    H226437   2.509   4.295   3.419
 8825TIP3   OH226438   7.213   0.909   0.531
 8825TIP3    H126439   7.277   0.977   0.553
 8825TIP3    H226440   7.128   0.950   0.549
 8826TIP3   OH226441   1.531   5.681   2.446
 8826TIP3    H126442   1.466   5.655   2.382
 8826TIP3    H226443   1.488   5.750   2.497
 8827TIP3   OH226444   4.378   4.158   1.056
 8827TIP3    H126445   4.426   4.079   1.032
 8827TIP3    H226446   4.288   4.140   1.029
 8828TIP3   OH226447   3.607   1.241   3.008
 8828TIP3    H126448   3.682   1.227   2.951
 8828TIP3    H226449   3.565   1.155   3.015
 8829TIP3   OH226450   0.090   1.673   2.892
 8829TIP3    H126451   0.082   1.583   2.862
 8829TIP3    H226452   0.167   1.707   2.846
 8830TIP3   OH226453   3.011   3.395   3.871
 8830TIP3    H126454   3.060   3.425   3.795
 8830TIP3    H226455   2.919   3.413   3.848
 8831TIP3   OH226456   5.312   3.745   5.771
 8831TIP3    H126457   5.291   3.836   5.794
 8831TIP3    H226458   5.337   3.705   5.854
 8832TIP3   OH226459   0.642   1.064   0.015
 8832TIP3    H126460   0.728   1.026   0.000
 8832TIP3    H226461   0.632   1.064   0.110
 8833TIP3   OH226462   1.934   4.562   3.925
 8833TIP3    H126463   1.886   4.495   3.973
 8833TIP3    H226464   1.868   4.604   3.870
 8834TIP3   OH226465   1.106   3.317   4.818
 8834TIP3    H126466   1.126   3.411   4.819
 8834TIP3    H226467   1.181   3.277   4.774
 8835TIP3   OH226468   6.129   2.310   0.932
 8835TIP3    H126469   6.135   2.279   1.022
 8835TIP3    H226470   6.124   2.406   0.940
 8836TIP3   OH226471   1.049   2.134   1.995
 8836TIP3    H126472   1.127   2.142   1.940
 8836TIP3    H226473   0.979   2.114   1.933
 8837TIP3   OH226474   6.318   1.189   4.641
 8837TIP3    H126475   6.223   1.180   4.629
 8837TIP3    H226476   6.329   1.199   4.736
 8838TIP3   OH226477   5.591   3.302   4.925
 8838TIP3    H126478   5.557   3.277   4.839
 8838TIP3    H226479   5.525   3.273   4.987
 8839TIP3   OH226480   2.025   2.965   1.583
 8839TIP3    H126481   2.055   2.956   1.493
 8839TIP3    H226482   1.953   3.028   1.579
 8840TIP3   OH226483   4.553   3.010   2.169
 8840TIP3    H126484   4.617   2.939   2.174
 8840TIP3    H226485   4.499   2.988   2.094
 8841TIP3   OH226486   6.593   5.302   0.143
 8841TIP3    H126487   6.638   5.338   0.219
 8841TIP3    H226488   6.516   5.258   0.180
 8842TIP3   OH226489   3.392   6.405   2.923
 8842TIP3    H126490   3.335   6.481   2.911
 8842TIP3    H226491   3.392   6.389   3.017
 8843TIP3   OH226492   6.071   3.782   2.375
 8843TIP3    H126493   6.052   3.856   2.317
 8843TIP3    H226494   6.121   3.821   2.447
 8844TIP3   OH226495   0.774   0.674   2.586
 8844TIP3    H126496   0.830   0.713   2.653
 8844TIP3    H226497   0.814   0.589   2.568
 8845TIP3   OH226498   1.503   1.731   3.981
 8845TIP3    H126499   1.515   1.741   3.887
 8845TIP3    H226500   1.550   1.650   4.002
 8846TIP3   OH226501   0.284   3.851   0.050
 8846TIP3    H126502   0.278   3.884  -0.040
 8846TIP3    H226503   0.355   3.903   0.089
 8847TIP3   OH226504   3.329   5.160   1.754
 8847TIP3    H126505   3.303   5.129   1.841
 8847TIP3    H226506   3.424   5.166   1.758
 8848TIP3   OH226507   1.618   1.247   3.766
 8848TIP3    H126508   1.644   1.242   3.674
 8848TIP3    H226509   1.590   1.158   3.787
 8849TIP3   OH226510   3.074   0.863   0.770
 8849TIP3    H126511   2.992   0.911   0.780
 8849TIP3    H226512   3.064   0.816   0.687
 8850TIP3   OH226513   0.132   3.259   5.174
 8850TIP3    H126514   0.203   3.261   5.110
 8850TIP3    H226515   0.171   3.292   5.255
 8851TIP3   OH226516   3.972   2.803   0.317
 8851TIP3    H126517   3.996   2.791   0.409
 8851TIP3    H226518   4.055   2.818   0.272
 8852TIP3   OH226519   3.047   0.775   3.185
 8852TIP3    H126520   3.056   0.809   3.274
 8852TIP3    H226521   2.989   0.838   3.141
 8853TIP3   OH226522   4.822   3.088   3.702
 8853TIP3    H126523   4.753   3.047   3.649
 8853TIP3    H226524   4.861   3.016   3.751
 8854TIP3   OH226525   2.198   2.873   0.149
 8854TIP3    H126526   2.292   2.855   0.153
 8854TIP3    H226527   2.179   2.915   0.234
 8855TIP3   OH226528   6.136   3.086   4.799
 8855TIP3    H126529   6.056   3.139   4.800
 8855TIP3    H226530   6.108   3.000   4.830
 8856TIP3   OH226531   4.811   6.345   5.772
 8856TIP3    H126532   4.744   6.411   5.757
 8856TIP3    H226533   4.818   6.338   5.867
 8857TIP3   OH226534   2.526   4.184   0.660
 8857TIP3    H126535   2.577   4.166   0.581
 8857TIP3    H226536   2.592   4.210   0.725
 8858TIP3   OH226537   3.198   4.033   0.528
 8858TIP3    H126538   3.271   3.999   0.476
 8858TIP3    H226539   3.165   4.107   0.477
 8859TIP3   OH226540   6.430   3.466   5.621
 8859TIP3    H126541   6.361   3.417   5.575
 8859TIP3    H226542   6.394   3.482   5.708
 8860TIP3   OH226543   0.392   0.494   3.412
 8860TIP3    H126544   0.481   0.463   3.431
 8860TIP3    H226545   0.395   0.588   3.433
 8861TIP3   OH226546   1.518   3.909   4.954
 8861TIP3    H126547   1.439   3.907   4.899
 8861TIP3    H226548   1.498   3.974   5.021
 8862TIP3   OH226549   1.979   6.093   1.311
 8862TIP3    H126550   2.041   6.021   1.295
 8862TIP3    H226551   1.968   6.134   1.225
 8863TIP3   OH226552   2.900   4.978   1.825
 8863TIP3    H126553   2.812   4.960   1.795
 8863TIP3    H226554   2.938   5.034   1.757
 8864TIP3   OH226555   7.153   2.795   1.458
 8864TIP3    H126556   7.134   2.829   1.546
 8864TIP3    H226557   7.169   2.702   1.472
 8865TIP3   OH226558   3.879   6.085   1.007
 8865TIP3    H126559   3.941   6.030   1.055
 8865TIP3    H226560   3.824   6.124   1.075
 8866TIP3   OH226561   1.530   6.720   0.559
 8866TIP3    H126562   1.576   6.790   0.513
 8866TIP3    H226563   1.594   6.686   0.621
 8867TIP3   OH226564   5.153   0.145   1.569
 8867TIP3    H126565   5.170   0.154   1.475
 8867TIP3    H226566   5.059   0.126   1.574
 8868TIP3   OH226567   0.156   4.639   0.670
 8868TIP3    H126568   0.147   4.621   0.763
 8868TIP3    H226569   0.185   4.730   0.665
 8869TIP3   OH226570   3.573   6.469   2.095
 8869TIP3    H126571   3.599   6.387   2.138
 8869TIP3    H226572   3.619   6.467   2.010
 8870TIP3   OH226573   3.833   0.464   5.425
 8870TIP3    H126574   3.798   0.517   5.497
 8870TIP3    H226575   3.783   0.382   5.429
 8871TIP3   OH226576   1.335   0.840   2.042
 8871TIP3    H126577   1.274   0.882   2.104
 8871TIP3    H226578   1.319   0.885   1.959
 8872TIP3   OH226579   3.636   2.993   4.817
 8872TIP3    H126580   3.727   3.024   4.824
 8872TIP3    H226581   3.606   3.026   4.733
 8873TIP3   OH226582   0.291   6.259   1.162
 8873TIP3    H126583   0.214   6.290   1.116
 8873TIP3    H226584   0.316   6.179   1.116
 8874TIP3   OH226585   0.669   2.309   1.601
 8874TIP3    H126586   0.754   2.336   1.566
 8874TIP3    H226587   0.650   2.226   1.556
 8875TIP3   OH226588   1.722   3.693   4.525
 8875TIP3    H126589   1.796   3.661   4.474
 8875TIP3    H226590   1.645   3.672   4.472
 8876TIP3   OH226591   6.057   2.274   2.097
 8876TIP3    H126592   6.052   2.369   2.107
 8876TIP3    H226593   6.049   2.239   2.185
 8877TIP3   OH226594   6.237   5.902   5.769
 8877TIP3    H126595   6.240   5.897   5.865
 8877TIP3    H226596   6.188   5.825   5.743
 8878TIP3   OH226597   3.299   0.578   3.760
 8878TIP3    H126598   3.334   0.658   3.799
 8878TIP3    H226599   3.243   0.541   3.828
 8879TIP3   OH226600   6.271   3.312   0.831
 8879TIP3    H126601   6.295   3.290   0.921
 8879TIP3    H226602   6.349   3.291   0.780
 8880TIP3   OH226603   6.492   2.043   0.338
 8880TIP3    H126604   6.475   2.104   0.409
 8880TIP3    H226605   6.436   2.072   0.267
 8881TIP3   OH226606   3.714   5.208   4.518
 8881TIP3    H126607   3.684   5.192   4.607
 8881TIP3    H226608   3.693   5.127   4.471
 8882TIP3   OH226609   4.358   2.288   4.967
 8882TIP3    H126610   4.285   2.309   4.909
 8882TIP3    H226611   4.324   2.301   5.055
 8883TIP3   OH226612   4.352   5.286   2.156
 8883TIP3    H126613   4.325   5.277   2.064
 8883TIP3    H226614   4.413   5.360   2.155
 8884TIP3   OH226615   2.489   4.773   3.052
 8884TIP3    H126616   2.460   4.687   3.022
 8884TIP3    H226617   2.492   4.765   3.148
 8885TIP3   OH226618   5.717   3.686   1.857
 8885TIP3    H126619   5.699   3.718   1.768
 8885TIP3    H226620   5.780   3.749   1.893
 8886TIP3   OH226621   1.207   0.972   4.015
 8886TIP3    H126622   1.188   0.940   3.928
 8886TIP3    H226623   1.130   1.023   4.040
 8887TIP3   OH226624   0.130   1.587   5.441
 8887TIP3    H126625   0.047   1.594   5.394
 8887TIP3    H226626   0.192   1.553   5.377
 8888TIP3   OH226627   3.371   0.147   5.428
 8888TIP3    H126628   3.340   0.233   5.456
 8888TIP3    H226629   3.358   0.090   5.503
 8889TIP3   OH226630   2.252   4.341   2.418
 8889TIP3    H126631   2.260   4.335   2.323
 8889TIP3    H226632   2.234   4.251   2.446
 8890TIP3   OH226633   4.843   1.919   2.830
 8890TIP3    H126634   4.896   1.991   2.797
 8890TIP3    H226635   4.905   1.865   2.880
 8891TIP3   OH226636   1.015   5.566   5.040
 8891TIP3    H126637   1.069   5.611   5.105
 8891TIP3    H226638   0.928   5.563   5.078
 8892TIP3   OH226639   2.052   6.525   4.544
 8892TIP3    H126640   2.121   6.484   4.493
 8892TIP3    H226641   2.012   6.452   4.593
 8893TIP3   OH226642   6.278   3.382   3.569
 8893TIP3    H126643   6.190   3.411   3.543
 8893TIP3    H226644   6.323   3.462   3.595
 8894TIP3   OH226645   1.895   0.069   2.627
 8894TIP3    H126646   1.955   0.013   2.678
 8894TIP3    H226647   1.826   0.093   2.688
 8895TIP3   OH226648   3.953   5.400   5.013
 8895TIP3    H126649   3.924   5.343   4.942
 8895TIP3    H226650   3.874   5.417   5.064
 8896TIP3   OH226651   4.988   0.557   5.700
 8896TIP3    H126652   4.894   0.569   5.714
 8896TIP3    H226653   4.994   0.501   5.623
 8897TIP3   OH226654   4.220   0.537   3.403
 8897TIP3    H126655   4.167   0.491   3.469
 8897TIP3    H226656   4.274   0.598   3.453
 8898TIP3   OH226657   2.702   3.633   1.776
 8898TIP3    H126658   2.696   3.689   1.853
 8898TIP3    H226659   2.616   3.641   1.734
 8899TIP3   OH226660   1.220   2.943   5.534
 8899TIP3    H126661   1.299   2.970   5.486
 8899TIP3    H226662   1.247   2.863   5.580
 8900TIP3   OH226663   7.204   4.101   3.933
 8900TIP3    H126664   7.134   4.088   3.869
 8900TIP3    H226665   7.159   4.118   4.015
 8901TIP3   OH226666   5.933   3.188   2.007
 8901TIP3    H126667   5.906   3.277   2.032
 8901TIP3    H226668   5.959   3.147   2.089
 8902TIP3   OH226669   2.899   6.726   0.550
 8902TIP3    H126670   2.959   6.729   0.474
 8902TIP3    H226671   2.834   6.793   0.531
 8903TIP3   OH226672   4.827   5.155   0.133
 8903TIP3    H126673   4.878   5.175   0.054
 8903TIP3    H226674   4.742   5.128   0.099
 8904TIP3   OH226675   5.283   1.893   4.633
 8904TIP3    H126676   5.320   1.952   4.700
 8904TIP3    H226677   5.287   1.945   4.552
 8905TIP3   OH226678   6.390   0.573   1.813
 8905TIP3    H126679   6.412   0.513   1.884
 8905TIP3    H226680   6.473   0.584   1.765
 8906TIP3   OH226681   3.470   0.630   5.572
 8906TIP3    H126682   3.552   0.601   5.612
 8906TIP3    H226683   3.495   0.705   5.518
 8907TIP3   OH226684   3.714   3.439   5.693
 8907TIP3    H126685   3.697   3.455   5.785
 8907TIP3    H226686   3.664   3.505   5.646
 8908TIP3   OH226687   0.187   2.046   0.950
 8908TIP3    H126688   0.212   2.086   1.034
 8908TIP3    H226689   0.185   2.118   0.888
 8909TIP3   OH226690   0.344   2.759   4.765
 8909TIP3    H126691   0.257   2.739   4.730
 8909TIP3    H226692   0.340   2.852   4.787
 8910TIP3   OH226693   7.101   2.011   3.262
 8910TIP3    H126694   7.142   2.093   3.238
 8910TIP3    H226695   7.134   1.947   3.199
 8911TIP3   OH226696   2.701   5.704   0.928
 8911TIP3    H126697   2.706   5.692   1.023
 8911TIP3    H226698   2.626   5.652   0.900
 8912TIP3   OH226699   4.728   1.764   1.508
 8912TIP3    H126700   4.777   1.778   1.426
 8912TIP3    H226701   4.664   1.835   1.510
 8913TIP3   OH226702   1.274   2.889   3.534
 8913TIP3    H126703   1.370   2.881   3.529
 8913TIP3    H226704   1.250   2.931   3.452
 8914TIP3   OH226705   5.730   0.271   5.276
 8914TIP3    H126706   5.742   0.207   5.205
 8914TIP3    H226707   5.655   0.239   5.325
 8915TIP3   OH226708   5.815   2.661   0.191
 8915TIP3    H126709   5.810   2.714   0.112
 8915TIP3    H226710   5.838   2.573   0.160
 8916TIP3   OH226711   7.000   1.095   0.812
 8916TIP3    H126712   7.071   1.136   0.763
 8916TIP3    H226713   6.920   1.131   0.774
 8917TIP3   OH226714   3.735   1.538   5.104
 8917TIP3    H126715   3.739   1.621   5.152
 8917TIP3    H226716   3.758   1.472   5.169
 8918TIP3   OH226717   0.671   1.977   4.938
 8918TIP3    H126718   0.741   1.935   4.989
 8918TIP3    H226719   0.596   1.977   4.997
 8919TIP3   OH226720   0.671   0.848   5.645
 8919TIP3    H126721   0.707   0.799   5.571
 8919TIP3    H226722   0.651   0.935   5.609
 8920TIP3   OH226723   3.844   3.452   4.283
 8920TIP3    H126724   3.761   3.441   4.330
 8920TIP3    H226725   3.830   3.528   4.226
 8921TIP3   OH226726   5.171   2.960   1.968
 8921TIP3    H126727   5.115   2.885   1.984
 8921TIP3    H226728   5.171   2.971   1.873
 8922TIP3   OH226729   2.840   1.981   5.629
 8922TIP3    H126730   2.922   2.015   5.593
 8922TIP3    H226731   2.773   2.013   5.569
 8923TIP3   OH226732   5.041   5.233   2.681
 8923TIP3    H126733   4.980   5.289   2.633
 8923TIP3    H226734   5.050   5.275   2.766
 8924TIP3   OH226735   3.492   3.591   5.081
 8924TIP3    H126736   3.507   3.520   5.144
 8924TIP3    H226737   3.423   3.557   5.024
 8925TIP3   OH226738   6.058   2.752   3.568
 8925TIP3    H126739   6.069   2.777   3.660
 8925TIP3    H226740   6.145   2.763   3.529
 8926TIP3   OH226741   5.158   0.229   1.833
 8926TIP3    H126742   5.122   0.159   1.887
 8926TIP3    H226743   5.160   0.193   1.744
 8927TIP3   OH226744   3.869   2.279   3.864
 8927TIP3    H126745   3.956   2.308   3.890
 8927TIP3    H226746   3.868   2.289   3.768
 8928TIP3   OH226747   2.773   1.313   3.326
 8928TIP3    H126748   2.781   1.281   3.236
 8928TIP3    H226749   2.776   1.408   3.318
 8929TIP3   OH226750   0.404   4.248   5.543
 8929TIP3    H126751   0.440   4.170   5.584
 8929TIP3    H226752   0.476   4.311   5.541
 8930TIP3   OH226753   4.393   3.412   3.249
 8930TIP3    H126754   4.299   3.409   3.269
 8930TIP3    H226755   4.425   3.485   3.301
 8931TIP3   OH226756   2.243   6.781   5.228
 8931TIP3    H126757   2.207   6.724   5.160
 8931TIP3    H226758   2.184   6.771   5.302
 8932TIP3   OH226759   3.474   5.173   0.897
 8932TIP3    H126760   3.382   5.152   0.880
 8932TIP3    H226761   3.474   5.215   0.983
 8933TIP3   OH226762   4.586   4.274   5.688
 8933TIP3    H126763   4.552   4.204   5.743
 8933TIP3    H226764   4.549   4.258   5.602
 8934TIP3   OH226765   0.265   0.930   5.124
 8934TIP3    H126766   0.200   0.899   5.061
 8934TIP3    H226767   0.214   0.956   5.201
 8935TIP3   OH226768   5.645   2.747   2.814
 8935TIP3    H126769   5.552   2.728   2.800
 8935TIP3    H226770   5.683   2.663   2.841
 8936TIP3   OH226771   0.721   3.110   5.411
 8936TIP3    H126772   0.764   3.097   5.327
 8936TIP3    H226773   0.776   3.175   5.456
 8937TIP3   OH226774   6.638   5.488   1.731
 8937TIP3    H126775   6.586   5.440   1.795
 8937TIP3    H226776   6.725   5.493   1.769
 8938TIP3   OH226777   5.749   2.992   5.537
 8938TIP3    H126778   5.775   3.047   5.464
 8938TIP3    H226779   5.784   3.036   5.614
 8939TIP3   OH226780   0.662   0.271   2.285
 8939TIP3    H126781   0.744   0.305   2.250
 8939TIP3    H226782   0.630   0.341   2.342
 8940TIP3   OH226783   5.035   3.585   0.818
 8940TIP3    H126784   5.094   3.594   0.893
 8940TIP3    H226785   5.091   3.602   0.742
 8941TIP3   OH226786   2.952   1.755   1.880
 8941TIP3    H126787   3.047   1.752   1.868
 8941TIP3    H226788   2.932   1.848   1.894
 8942TIP3   OH226789   2.240   6.431   3.294
 8942TIP3    H126790   2.272   6.427   3.384
 8942TIP3    H226791   2.291   6.501   3.253
 8943TIP3   OH226792   0.880   5.633   2.632
 8943TIP3    H126793   0.916   5.557   2.586
 8943TIP3    H226794   0.790   5.609   2.651
 8944TIP3   OH226795   6.688   2.202   4.536
 8944TIP3    H126796   6.747   2.154   4.478
 8944TIP3    H226797   6.735   2.283   4.557
 8945TIP3   OH226798   0.790   6.476   4.139
 8945TIP3    H126799   0.804   6.463   4.232
 8945TIP3    H226800   0.788   6.572   4.128
 8946TIP3   OH226801   0.604   4.665   4.293
 8946TIP3    H126802   0.531   4.727   4.296
 8946TIP3    H226803   0.655   4.692   4.216
 8947TIP3   OH226804   3.760   2.811   3.561
 8947TIP3    H126805   3.707   2.873   3.611
 8947TIP3    H226806   3.849   2.843   3.571
 8948TIP3   OH226807   5.212   5.029   3.338
 8948TIP3    H126808   5.226   4.943   3.379
 8948TIP3    H226809   5.132   5.062   3.378
 8949TIP3   OH226810   2.222   2.552   0.785
 8949TIP3    H126811   2.277   2.544   0.707
 8949TIP3    H226812   2.270   2.614   0.840
 8950TIP3   OH226813   0.419   3.238   1.030
 8950TIP3    H126814   0.490   3.175   1.027
 8950TIP3    H226815   0.343   3.188   1.059
 8951TIP3   OH226816   6.579   0.901   1.208
 8951TIP3    H126817   6.575   0.870   1.298
 8951TIP3    H226818   6.508   0.855   1.163
 8952TIP3   OH226819   4.675   3.165   4.581
 8952TIP3    H126820   4.746   3.125   4.631
 8952TIP3    H226821   4.619   3.205   4.648
 8953TIP3   OH226822   7.139   3.893   0.693
 8953TIP3    H126823   7.218   3.911   0.642
 8953TIP3    H226824   7.077   3.858   0.630
 8954TIP3   OH226825   6.318   4.195   1.292
 8954TIP3    H126826   6.256   4.139   1.246
 8954TIP3    H226827   6.373   4.134   1.342
 8955TIP3   OH226828   3.631   2.684   0.120
 8955TIP3    H126829   3.554   2.717   0.165
 8955TIP3    H226830   3.634   2.591   0.143
 8956TIP3   OH226831   3.876   3.478   3.109
 8956TIP3    H126832   3.797   3.532   3.108
 8956TIP3    H226833   3.921   3.500   3.027
 8957TIP3   OH226834   6.435   3.986   5.238
 8957TIP3    H126835   6.449   3.978   5.143
 8957TIP3    H226836   6.383   3.909   5.261
 8958TIP3   OH226837   5.572   0.376   4.160
 8958TIP3    H126838   5.633   0.332   4.219
 8958TIP3    H226839   5.586   0.469   4.177
 8959TIP3   OH226840   2.823   3.247   2.875
 8959TIP3    H126841   2.807   3.196   2.955
 8959TIP3    H226842   2.767   3.206   2.809
 8960TIP3   OH226843   2.183   4.564   5.264
 8960TIP3    H126844   2.208   4.513   5.341
 8960TIP3    H226845   2.263   4.568   5.211
 8961TIP3   OH226846   1.354   2.820   1.900
 8961TIP3    H126847   1.279   2.853   1.851
 8961TIP3    H226848   1.318   2.798   1.986
 8962TIP3   OH226849   1.518   4.764   1.226
 8962TIP3    H126850   1.504   4.673   1.203
 8962TIP3    H226851   1.446   4.784   1.287
 8963TIP3   OH226852   3.090   4.432   0.558
 8963TIP3    H126853   3.022   4.398   0.617
 8963TIP3    H226854   3.048   4.504   0.511
 8964TIP3   OH226855   5.410   1.774   2.084
 8964TIP3    H126856   5.498   1.786   2.121
 8964TIP3    H226857   5.422   1.714   2.011
 8965TIP3   OH226858   2.341   0.651   5.241
 8965TIP3    H126859   2.423   0.647   5.290
 8965TIP3    H226860   2.367   0.634   5.150
 8966TIP3   OH226861   2.124   5.504   1.781
 8966TIP3    H126862   2.031   5.485   1.770
 8966TIP3    H226863   2.169   5.425   1.750
 8967TIP3   OH226864   1.453   5.552   1.812
 8967TIP3    H126865   1.502   5.486   1.763
 8967TIP3    H226866   1.405   5.502   1.878
 8968TIP3   OH226867   6.557   3.643   5.887
 8968TIP3    H126868   6.547   3.703   5.813
 8968TIP3    H226869   6.471   3.601   5.896
 8969TIP3   OH226870   6.041   3.982   1.771
 8969TIP3    H126871   6.089   4.047   1.822
 8969TIP3    H226872   6.090   3.901   1.785
 8970TIP3   OH226873   1.824   4.218   1.545
 8970TIP3    H126874   1.737   4.220   1.585
 8970TIP3    H226875   1.817   4.149   1.479
 8971TIP3   OH226876   6.755   2.592   2.346
 8971TIP3    H126877   6.734   2.542   2.425
 8971TIP3    H226878   6.672   2.594   2.297
 8972TIP3   OH226879   6.921   5.819   3.196
 8972TIP3    H126880   7.014   5.814   3.220
 8972TIP3    H226881   6.906   5.912   3.181
 8973TIP3   OH226882   0.031   3.303   2.776
 8973TIP3    H126883   0.006   3.297   2.684
 8973TIP3    H226884   0.125   3.325   2.774
 8974TIP3   OH226885   0.635   2.159   1.886
 8974TIP3    H126886   0.685   2.178   1.807
 8974TIP3    H226887   0.702   2.134   1.951
 8975TIP3   OH226888   6.784   0.399   3.583
 8975TIP3    H126889   6.777   0.458   3.658
 8975TIP3    H226890   6.877   0.379   3.577
 8976TIP3   OH226891   1.354   1.836   4.735
 8976TIP3    H126892   1.379   1.743   4.741
 8976TIP3    H226893   1.290   1.838   4.663
 8977TIP3   OH226894   1.584   0.851   1.389
 8977TIP3    H126895   1.663   0.848   1.335
 8977TIP3    H226896   1.543   0.765   1.378
 8978TIP3   OH226897   4.988   4.961   2.685
 8978TIP3    H126898   5.065   4.913   2.717
 8978TIP3    H226899   5.011   5.053   2.697
 8979TIP3   OH226900   5.691   5.108   3.075
 8979TIP3    H126901   5.736   5.188   3.046
 8979TIP3    H226902   5.599   5.126   3.059
 8980TIP3   OH226903   6.691   6.696   2.399
 8980TIP3    H126904   6.684   6.750   2.477
 8980TIP3    H226905   6.644   6.744   2.331
 8981TIP3   OH226906   2.331   1.755   0.525
 8981TIP3    H126907   2.268   1.692   0.489
 8981TIP3    H226908   2.287   1.790   0.602
 8982TIP3   OH226909   2.517   1.856   3.100
 8982TIP3    H126910   2.590   1.838   3.041
 8982TIP3    H226911   2.549   1.925   3.158
 8983TIP3   OH226912   6.233   0.498   3.928
 8983TIP3    H126913   6.266   0.585   3.907
 8983TIP3    H226914   6.153   0.513   3.978
 8984TIP3   OH226915   3.314   6.325   1.851
 8984TIP3    H126916   3.353   6.412   1.852
 8984TIP3    H226917   3.388   6.265   1.847
 8985TIP3   OH226918   2.175   6.405   3.820
 8985TIP3    H126919   2.093   6.356   3.810
 8985TIP3    H226920   2.195   6.398   3.914
 8986TIP3   OH226921   0.086   0.870   4.927
 8986TIP3    H126922  -0.001   0.906   4.944
 8986TIP3    H226923   0.110   0.905   4.842
 8987TIP3   OH226924   4.624   5.382   3.013
 8987TIP3    H126925   4.716   5.398   2.994
 8987TIP3    H226926   4.592   5.332   2.937
 8988TIP3   OH226927   5.592   4.365   1.147
 8988TIP3    H126928   5.636   4.402   1.224
 8988TIP3    H226929   5.601   4.271   1.158
 8989TIP3   OH226930   5.193   6.465   5.399
 8989TIP3    H126931   5.251   6.395   5.369
 8989TIP3    H226932   5.109   6.421   5.413
 8990TIP3   OH226933   3.667   0.675   4.861
 8990TIP3    H126934   3.630   0.689   4.948
 8990TIP3    H226935   3.761   0.666   4.877
 8991TIP3   OH226936   3.784   4.732   5.299
 8991TIP3    H126937   3.864   4.690   5.269
 8991TIP3    H226938   3.784   4.817   5.256
 8992TIP3   OH226939   4.463   3.264   3.990
 8992TIP3    H126940   4.440   3.307   4.073
 8992TIP3    H226941   4.442   3.172   4.006
 8993TIP3   OH226942   2.119   3.791   2.800
 8993TIP3    H126943   2.087   3.722   2.742
 8993TIP3    H226944   2.097   3.761   2.888
 8994TIP3   OH226945   4.632   2.402   5.528
 8994TIP3    H126946   4.583   2.346   5.588
 8994TIP3    H226947   4.643   2.485   5.575
 8995TIP3   OH226948   0.969   4.463   0.823
 8995TIP3    H126949   1.015   4.507   0.752
 8995TIP3    H226950   0.922   4.392   0.780
 8996TIP3   OH226951   6.669   1.267   4.102
 8996TIP3    H126952   6.602   1.334   4.089
 8996TIP3    H226953   6.749   1.306   4.067
 8997TIP3   OH226954   6.600   0.257   1.009
 8997TIP3    H126955   6.656   0.180   1.014
 8997TIP3    H226956   6.626   0.311   1.083
 8998TIP3   OH226957   2.172   4.639   1.496
 8998TIP3    H126958   2.090   4.687   1.488
 8998TIP3    H226959   2.237   4.697   1.456
 8999TIP3   OH226960   2.825   6.325   1.466
 8999TIP3    H126961   2.802   6.413   1.497
 8999TIP3    H226962   2.920   6.319   1.480
 9000TIP3   OH226963   1.353   0.456   0.820
 9000TIP3    H126964   1.344   0.542   0.780
 9000TIP3    H226965   1.443   0.429   0.801
 9001TIP3   OH226966   1.618   2.661   2.323
 9001TIP3    H126967   1.688   2.696   2.378
 9001TIP3    H226968   1.553   2.628   2.385
 9002TIP3   OH226969   7.183   5.567   1.654
 9002TIP3    H126970   7.239   5.490   1.648
 9002TIP3    H226971   7.225   5.631   1.596
 9003TIP3   OH226972   2.504   4.627   0.332
 9003TIP3    H126973   2.454   4.633   0.413
 9003TIP3    H226974   2.532   4.535   0.328
 9004TIP3   OH226975   4.238   3.986   4.698
 9004TIP3    H126976   4.222   4.027   4.613
 9004TIP3    H226977   4.324   4.018   4.724
 9005TIP3   OH226978   3.981   3.408   3.840
 9005TIP3    H126979   4.063   3.367   3.813
 9005TIP3    H226980   4.007   3.485   3.889
 9006TIP3   OH226981   1.140   4.431   1.330
 9006TIP3    H126982   1.125   4.337   1.334
 9006TIP3    H226983   1.172   4.454   1.417
 9007TIP3   OH226984   5.414   1.156   1.194
 9007TIP3    H126985   5.339   1.123   1.144
 9007TIP3    H226986   5.476   1.083   1.197
 9008TIP3   OH226987   1.253   1.946   0.681
 9008TIP3    H126988   1.276   2.039   0.685
 9008TIP3    H226989   1.165   1.943   0.643
 9009TIP3   OH226990   7.076   3.934   2.150
 9009TIP3    H126991   7.001   3.992   2.141
 9009TIP3    H226992   7.061   3.866   2.084
 9010TIP3   OH226993   1.127   0.226   5.750
 9010TIP3    H126994   1.205   0.216   5.806
 9010TIP3    H226995   1.072   0.151   5.774
 9011TIP3   OH226996   3.284   2.063   5.212
 9011TIP3    H126997   3.367   2.105   5.234
 9011TIP3    H226998   3.307   1.972   5.194
 9012TIP3   OH226999   1.988   6.408   4.220
 9012TIP3    H127000   1.998   6.493   4.264
 9012TIP3    H227001   1.894   6.396   4.213
 9013TIP3   OH227002   7.227  -0.025   3.797
 9013TIP3    H127003   7.241   0.059   3.753
 9013TIP3    H227004   7.133  -0.030   3.810
 9014TIP3   OH227005   6.383   0.289   0.091
 9014TIP3    H127006   6.317   0.239   0.140
 9014TIP3    H227007   6.432   0.336   0.159
 9015TIP3   OH227008   0.155   6.448   3.692
 9015TIP3    H127009   0.196   6.533   3.707
 9015TIP3    H227010   0.177   6.426   3.601
 9016TIP3   OH227011   1.157   2.763   5.329
 9016TIP3    H127012   1.078   2.721   5.295
 9016TIP3    H227013   1.136   2.856   5.330
 9017TIP3   OH227014   7.036   6.384   2.275
 9017TIP3    H127015   6.988   6.308   2.310
 9017TIP3    H227016   6.974   6.456   2.282
 9018TIP3   OH227017   1.703   6.433   4.213
 9018TIP3    H127018   1.655   6.509   4.179
 9018TIP3    H227019   1.663   6.358   4.170
 9019TIP3   OH227020   5.934   2.589   5.307
 9019TIP3    H127021   6.015   2.539   5.311
 9019TIP3    H227022   5.879   2.551   5.376
 9020TIP3   OH227023   2.759   0.945   4.617
 9020TIP3    H127024   2.709   1.012   4.663
 9020TIP3    H227025   2.843   0.942   4.663
 9021TIP3   OH227026   6.577   5.968   2.718
 9021TIP3    H127027   6.541   6.006   2.638
 9021TIP3    H227028   6.630   5.894   2.688
 9022TIP3   OH227029   2.786   2.935   5.280
 9022TIP3    H127030   2.853   2.974   5.225
 9022TIP3    H227031   2.733   2.882   5.220
 9023TIP3   OH227032   3.827   1.892   1.155
 9023TIP3    H127033   3.751   1.857   1.201
 9023TIP3    H227034   3.857   1.965   1.210
 9024TIP3   OH227035   6.005   4.327   1.816
 9024TIP3    H127036   5.995   4.381   1.738
 9024TIP3    H227037   5.932   4.264   1.810
 9025TIP3   OH227038   6.925   4.170   2.139
 9025TIP3    H127039   6.959   4.175   2.229
 9025TIP3    H227040   6.937   4.258   2.104
 9026TIP3   OH227041   5.228   4.709   4.193
 9026TIP3    H127042   5.163   4.695   4.262
 9026TIP3    H227043   5.280   4.783   4.225
 9027TIP3   OH227044   0.346   0.912   4.228
 9027TIP3    H127045   0.431   0.943   4.261
 9027TIP3    H227046   0.367   0.831   4.181
 9028TIP3   OH227047   6.660   0.496   4.056
 9028TIP3    H127048   6.595   0.492   3.986
 9028TIP3    H227049   6.632   0.430   4.119
 9029TIP3   OH227050   0.807   3.570   4.509
 9029TIP3    H127051   0.719   3.538   4.529
 9029TIP3    H227052   0.863   3.493   4.521
 9030TIP3   OH227053   1.186   0.414   1.794
 9030TIP3    H127054   1.225   0.465   1.724
 9030TIP3    H227055   1.123   0.356   1.750
 9031TIP3   OH227056   3.282   5.668   5.084
 9031TIP3    H127057   3.262   5.576   5.070
 9031TIP3    H227058   3.303   5.674   5.178
 9032TIP3   OH227059   3.071   5.523   5.498
 9032TIP3    H127060   3.006   5.592   5.511
 9032TIP3    H227061   3.074   5.477   5.583
 9033TIP3   OH227062   3.920   2.342   4.597
 9033TIP3    H127063   3.842   2.289   4.585
 9033TIP3    H227064   3.888   2.432   4.602
 9034TIP3   OH227065   6.632   3.812   5.456
 9034TIP3    H127066   6.709   3.786   5.506
 9034TIP3    H227067   6.659   3.893   5.412
 9035TIP3   OH227068   3.462   4.818   0.964
 9035TIP3    H127069   3.380   4.789   1.006
 9035TIP3    H227070   3.518   4.843   1.037
 9036TIP3   OH227071  -0.026   5.649   3.043
 9036TIP3    H127072  -0.118   5.623   3.034
 9036TIP3    H227073   0.008   5.595   3.114
 9037TIP3   OH227074   3.916   1.742   5.582
 9037TIP3    H127075   3.929   1.647   5.575
 9037TIP3    H227076   3.949   1.765   5.668
 9038TIP3   OH227077   6.333   3.971   0.805
 9038TIP3    H127078   6.252   3.928   0.780
 9038TIP3    H227079   6.349   3.942   0.895
 9039TIP3   OH227080   3.180   2.645   2.269
 9039TIP3    H127081   3.103   2.614   2.316
 9039TIP3    H227082   3.212   2.568   2.222
 9040TIP3   OH227083   5.663   6.513   0.446
 9040TIP3    H127084   5.712   6.541   0.369
 9040TIP3    H227085   5.664   6.418   0.443
 9041TIP3   OH227086   5.511   3.196   4.686
 9041TIP3    H127087   5.504   3.101   4.698
 9041TIP3    H227088   5.450   3.216   4.615
 9042TIP3   OH227089   5.323   5.071   2.210
 9042TIP3    H127090   5.268   5.034   2.279
 9042TIP3    H227091   5.368   5.145   2.252
 9043TIP3   OH227092   1.681   3.694   5.113
 9043TIP3    H127093   1.646   3.607   5.094
 9043TIP3    H227094   1.604   3.745   5.138
 9044TIP3   OH227095   1.852   1.652   1.488
 9044TIP3    H127096   1.841   1.747   1.489
 9044TIP3    H227097   1.895   1.632   1.571
 9045TIP3   OH227098   6.967   4.494   4.293
 9045TIP3    H127099   6.994   4.568   4.239
 9045TIP3    H227100   6.879   4.472   4.261
 9046TIP3   OH227101   6.123   1.733   5.478
 9046TIP3    H127102   6.195   1.794   5.495
 9046TIP3    H227103   6.083   1.719   5.563
 9047TIP3   OH227104   2.652   2.812   5.092
 9047TIP3    H127105   2.715   2.806   5.019
 9047TIP3    H227106   2.614   2.725   5.098
 9048TIP3   OH227107   6.300   5.605   3.649
 9048TIP3    H127108   6.336   5.520   3.624
 9048TIP3    H227109   6.248   5.633   3.574
 9049TIP3   OH227110   0.045   3.895   0.176
 9049TIP3    H127111   0.113   3.858   0.120
 9049TIP3    H227112  -0.027   3.915   0.117
 9050TIP3   OH227113   1.959   5.918   2.206
 9050TIP3    H127114   1.948   5.953   2.295
 9050TIP3    H227115   1.931   5.827   2.213
 9051TIP3   OH227116   5.726   5.675   3.787
 9051TIP3    H127117   5.799   5.674   3.849
 9051TIP3    H227118   5.683   5.590   3.798
 9052TIP3   OH227119   5.425   2.016   1.715
 9052TIP3    H127120   5.347   2.039   1.766
 9052TIP3    H227121   5.425   2.079   1.643
 9053TIP3   OH227122   2.853   4.553   0.383
 9053TIP3    H127123   2.826   4.486   0.321
 9053TIP3    H227124   2.805   4.632   0.356
 9054TIP3   OH227125   5.958   3.494   0.092
 9054TIP3    H127126   6.050   3.472   0.110
 9054TIP3    H227127   5.909   3.457   0.165
 9055TIP3   OH227128   5.074   2.295   1.329
 9055TIP3    H127129   5.148   2.248   1.289
 9055TIP3    H227130   5.003   2.232   1.329
 9056TIP3   OH227131   6.232   5.349   1.827
 9056TIP3    H127132   6.302   5.390   1.877
 9056TIP3    H227133   6.158   5.347   1.887
 9057TIP3   OH227134   2.859   1.377   1.161
 9057TIP3    H127135   2.953   1.358   1.159
 9057TIP3    H227136   2.833   1.378   1.068
 9058TIP3   OH227137   3.054   0.333   5.216
 9058TIP3    H127138   3.054   0.265   5.284
 9058TIP3    H227139   3.135   0.318   5.167
 9059TIP3   OH227140   2.185   3.256   0.521
 9059TIP3    H127141   2.104   3.226   0.479
 9059TIP3    H227142   2.204   3.340   0.480
 9060TIP3   OH227143   1.123   0.666   5.152
 9060TIP3    H127144   1.084   0.583   5.124
 9060TIP3    H227145   1.178   0.642   5.226
 9061TIP3   OH227146   6.876   5.878   5.735
 9061TIP3    H127147   6.937   5.942   5.771
 9061TIP3    H227148   6.915   5.851   5.652
 9062TIP3   OH227149   7.198   1.565   0.648
 9062TIP3    H127150   7.113   1.530   0.676
 9062TIP3    H227151   7.180   1.656   0.625
 9063TIP3   OH227152   3.281   0.990   0.899
 9063TIP3    H127153   3.268   1.029   0.986
 9063TIP3    H227154   3.198   0.946   0.880
 9064TIP3   OH227155   4.759   0.514   2.586
 9064TIP3    H127156   4.711   0.555   2.658
 9064TIP3    H227157   4.758   0.420   2.607
 9065TIP3   OH227158   4.812   1.614   4.426
 9065TIP3    H127159   4.859   1.535   4.400
 9065TIP3    H227160   4.720   1.590   4.420
 9066TIP3   OH227161   0.534   3.464   5.293
 9066TIP3    H127162   0.552   3.428   5.207
 9066TIP3    H227163   0.453   3.514   5.283
 9067TIP3   OH227164   5.835   4.343   0.790
 9067TIP3    H127165   5.798   4.261   0.823
 9067TIP3    H227166   5.788   4.412   0.837
 9068TIP3   OH227167   2.189   6.082   3.584
 9068TIP3    H127168   2.155   6.020   3.520
 9068TIP3    H227169   2.248   6.138   3.534
 9069TIP3   OH227170   6.821   2.404   4.638
 9069TIP3    H127171   6.841   2.384   4.729
 9069TIP3    H227172   6.876   2.480   4.618
 9070TIP3   OH227173   1.257   5.349   0.612
 9070TIP3    H127174   1.313   5.419   0.646
 9070TIP3    H227175   1.179   5.352   0.668
 9071TIP3   OH227176   6.871   3.639   4.932
 9071TIP3    H127177   6.834   3.579   4.867
 9071TIP3    H227178   6.899   3.715   4.881
 9072TIP3   OH227179   4.532   3.678   0.456
 9072TIP3    H127180   4.493   3.636   0.532
 9072TIP3    H227181   4.466   3.669   0.387
 9073TIP3   OH227182   2.729   5.248   3.328
 9073TIP3    H127183   2.683   5.187   3.385
 9073TIP3    H227184   2.665   5.272   3.261
 9074TIP3   OH227185   4.290   5.237   1.326
 9074TIP3    H127186   4.353   5.206   1.261
 9074TIP3    H227187   4.206   5.237   1.281
 9075TIP3   OH227188   4.894   4.947   5.309
 9075TIP3    H127189   4.848   5.031   5.318
 9075TIP3    H227190   4.961   4.949   5.377
 9076TIP3   OH227191   5.938   4.640   4.484
 9076TIP3    H127192   5.942   4.690   4.565
 9076TIP3    H227193   6.024   4.598   4.477
 9077TIP3   OH227194   5.623   3.951   4.953
 9077TIP3    H127195   5.677   3.924   5.028
 9077TIP3    H227196   5.606   3.870   4.906
 9078TIP3   OH227197   2.649   3.621   0.061
 9078TIP3    H127198   2.699   3.702   0.047
 9078TIP3    H227199   2.711   3.551   0.042
 9079TIP3   OH227200   6.442   4.510   0.260
 9079TIP3    H127201   6.444   4.437   0.322
 9079TIP3    H227202   6.419   4.586   0.313
 9080TIP3   OH227203   2.090   1.581   2.028
 9080TIP3    H127204   2.040   1.648   1.982
 9080TIP3    H227205   2.105   1.513   1.963
 9081TIP3   OH227206   0.151   2.839   5.016
 9081TIP3    H127207   0.075   2.881   5.056
 9081TIP3    H227208   0.217   2.907   5.013
 9082TIP3   OH227209   0.671   2.066   3.446
 9082TIP3    H127210   0.637   2.030   3.528
 9082TIP3    H227211   0.754   2.021   3.432
 9083TIP3   OH227212   6.476   1.041   5.211
 9083TIP3    H127213   6.471   1.131   5.242
 9083TIP3    H227214   6.391   1.025   5.170
 9084TIP3   OH227215   4.123   4.095   4.480
 9084TIP3    H127216   4.089   4.184   4.469
 9084TIP3    H227217   4.049   4.038   4.458
 9085TIP3   OH227218   1.461   4.044   1.125
 9085TIP3    H127219   1.522   4.100   1.172
 9085TIP3    H227220   1.374   4.072   1.156
 9086TIP3   OH227221   1.078   3.115   4.463
 9086TIP3    H127222   1.129   3.037   4.487
 9086TIP3    H227223   1.101   3.131   4.371
 9087TIP3   OH227224   4.476   3.265   3.563
 9087TIP3    H127225   4.528   3.343   3.546
 9087TIP3    H227226   4.410   3.292   3.627
 9088TIP3   OH227227   2.898   2.529   0.710
 9088TIP3    H127228   2.897   2.625   0.706
 9088TIP3    H227229   2.972   2.508   0.767
 9089TIP3   OH227230   7.092   4.514   1.073
 9089TIP3    H127231   7.043   4.499   0.992
 9089TIP3    H227232   7.051   4.592   1.110
 9090TIP3   OH227233   3.341   2.967   0.597
 9090TIP3    H127234   3.407   3.015   0.547
 9090TIP3    H227235   3.356   2.994   0.688
 9091TIP3   OH227236   2.838   5.051   0.716
 9091TIP3    H127237   2.751   5.033   0.752
 9091TIP3    H227238   2.846   5.147   0.721
 9092TIP3   OH227239   1.149   1.528   3.240
 9092TIP3    H127240   1.172   1.442   3.205
 9092TIP3    H227241   1.053   1.532   3.231
 9093TIP3   OH227242  -0.005   3.491   0.669
 9093TIP3    H127243   0.072   3.547   0.656
 9093TIP3    H227244  -0.009   3.478   0.764
 9094TIP3   OH227245   0.362   6.733   1.605
 9094TIP3    H127246   0.417   6.729   1.684
 9094TIP3    H227247   0.420   6.765   1.537
 9095TIP3   OH227248   7.146  -0.018   3.382
 9095TIP3    H127249   7.093   0.051   3.343
 9095TIP3    H227250   7.084  -0.069   3.435
 9096TIP3   OH227251   5.982   5.077   2.547
 9096TIP3    H127252   6.070   5.093   2.513
 9096TIP3    H227253   5.937   5.161   2.539
 9097TIP3   OH227254   6.731   1.062   2.690
 9097TIP3    H127255   6.778   1.089   2.769
 9097TIP3    H227256   6.693   1.143   2.655
 9098TIP3   OH227257   0.920   1.138   4.724
 9098TIP3    H127258   0.843   1.190   4.703
 9098TIP3    H227259   0.952   1.174   4.807
 9099TIP3   OH227260   6.295   0.053   5.101
 9099TIP3    H127261   6.328   0.115   5.166
 9099TIP3    H227262   6.293   0.102   5.019
 9100TIP3   OH227263   4.644   5.488   1.112
 9100TIP3    H127264   4.715   5.548   1.137
 9100TIP3    H227265   4.684   5.402   1.112
 9101TIP3   OH227266   5.809   3.728   0.092
 9101TIP3    H127267   5.723   3.750   0.057
 9101TIP3    H227268   5.807   3.633   0.102
 9102TIP3   OH227269   0.931   6.458   5.436
 9102TIP3    H127270   1.021   6.433   5.458
 9102TIP3    H227271   0.932   6.468   5.341
 9103TIP3   OH227272   0.839   1.773   2.372
 9103TIP3    H127273   0.756   1.802   2.333
 9103TIP3    H227274   0.892   1.746   2.297
 9104TIP3   OH227275   0.243   0.062   4.198
 9104TIP3    H127276   0.283  -0.012   4.152
 9104TIP3    H227277   0.163   0.080   4.149
 9105TIP3   OH227278   3.952   0.916   2.568
 9105TIP3    H127279   4.039   0.936   2.602
 9105TIP3    H227280   3.926   0.835   2.612
 9106TIP3   OH227281   5.407   5.854   2.727
 9106TIP3    H127282   5.355   5.854   2.647
 9106TIP3    H227283   5.397   5.943   2.762
 9107TIP3   OH227284   0.517   6.193   0.265
 9107TIP3    H127285   0.464   6.249   0.208
 9107TIP3    H227286   0.596   6.243   0.281
 9108TIP3   OH227287   3.112   1.067   2.361
 9108TIP3    H127288   3.195   1.113   2.345
 9108TIP3    H227289   3.119   0.986   2.309
 9109TIP3   OH227290   2.980   4.815   4.117
 9109TIP3    H127291   3.051   4.858   4.070
 9109TIP3    H227292   2.919   4.885   4.139
 9110TIP3   OH227293   3.492   2.980   5.704
 9110TIP3    H127294   3.551   3.052   5.683
 9110TIP3    H227295   3.507   2.962   5.797
 9111TIP3   OH227296   2.503   4.071   5.944
 9111TIP3    H127297   2.530   4.151   5.899
 9111TIP3    H227298   2.454   4.021   5.877
 9112TIP3   OH227299   2.822   4.182   1.202
 9112TIP3    H127300   2.815   4.099   1.155
 9112TIP3    H227301   2.794   4.162   1.291
 9113TIP3   OH227302   3.604   3.100   2.271
 9113TIP3    H127303   3.549   3.108   2.193
 9113TIP3    H227304   3.651   3.018   2.259
 9114TIP3   OH227305   4.119   5.613   4.943
 9114TIP3    H127306   4.078   5.531   4.970
 9114TIP3    H227307   4.084   5.678   5.004
 9115TIP3   OH227308   3.294   6.763   4.853
 9115TIP3    H127309   3.232   6.689   4.853
 9115TIP3    H227310   3.374   6.727   4.892
 9116TIP3   OH227311   3.578   5.165   4.776
 9116TIP3    H127312   3.597   5.186   4.868
 9116TIP3    H227313   3.502   5.218   4.754
 9117TIP3   OH227314   4.561   5.711   5.535
 9117TIP3    H127315   4.621   5.697   5.461
 9117TIP3    H227316   4.521   5.625   5.549
 9118TIP3   OH227317   6.273   0.319   4.221
 9118TIP3    H127318   6.368   0.318   4.230
 9118TIP3    H227319   6.243   0.243   4.270
 9119TIP3   OH227320   1.138   2.905   1.745
 9119TIP3    H127321   1.101   2.819   1.720
 9119TIP3    H227322   1.062   2.963   1.749
 9120TIP3   OH227323   5.261   6.650   3.819
 9120TIP3    H127324   5.302   6.564   3.806
 9120TIP3    H227325   5.269   6.693   3.735
 9121TIP3   OH227326   0.730   3.427   0.736
 9121TIP3    H127327   0.756   3.500   0.792
 9121TIP3    H227328   0.798   3.361   0.751
 9122TIP3   OH227329   4.625   4.465   2.998
 9122TIP3    H127330   4.710   4.421   3.003
 9122TIP3    H227331   4.568   4.402   2.954
 9123TIP3   OH227332   6.313   6.489   2.004
 9123TIP3    H127333   6.265   6.528   1.930
 9123TIP3    H227334   6.365   6.419   1.965
 9124TIP3   OH227335   3.426   5.713   3.497
 9124TIP3    H127336   3.408   5.645   3.433
 9124TIP3    H227337   3.413   5.671   3.582
 9125TIP3   OH227338   4.040   3.467   5.143
 9125TIP3    H127339   3.994   3.550   5.161
 9125TIP3    H227340   3.978   3.417   5.090
 9126TIP3   OH227341   5.886   6.328   5.843
 9126TIP3    H127342   5.888   6.331   5.747
 9126TIP3    H227343   5.938   6.250   5.865
 9127TIP3   OH227344   5.614   3.502   1.350
 9127TIP3    H127345   5.547   3.534   1.290
 9127TIP3    H227346   5.646   3.582   1.393
 9128TIP3   OH227347   1.410   6.701   0.907
 9128TIP3    H127348   1.361   6.660   0.836
 9128TIP3    H227349   1.396   6.644   0.982
 9129TIP3   OH227350   0.994   5.467   1.534
 9129TIP3    H127351   0.976   5.534   1.469
 9129TIP3    H227352   1.081   5.434   1.511
 9130TIP3   OH227353   0.803   3.412   1.155
 9130TIP3    H127354   0.784   3.376   1.242
 9130TIP3    H227355   0.799   3.507   1.167
 9131TIP3   OH227356   5.614   0.976   0.135
 9131TIP3    H127357   5.645   1.062   0.165
 9131TIP3    H227358   5.544   0.996   0.073
 9132TIP3   OH227359   6.420   3.129   1.007
 9132TIP3    H127360   6.379   3.105   0.924
 9132TIP3    H227361   6.349   3.127   1.071
 9133TIP3   OH227362   3.066   4.114   5.214
 9133TIP3    H127363   2.983   4.113   5.167
 9133TIP3    H227364   3.122   4.172   5.163
 9134TIP3   OH227365   0.966   3.796   4.674
 9134TIP3    H127366   0.946   3.815   4.583
 9134TIP3    H227367   1.009   3.710   4.672
 9135TIP3   OH227368   5.673   5.237   0.294
 9135TIP3    H127369   5.711   5.320   0.265
 9135TIP3    H227370   5.594   5.227   0.240
 9136TIP3   OH227371   0.835   0.426   2.121
 9136TIP3    H127372   0.750   0.438   2.079
 9136TIP3    H227373   0.892   0.392   2.051
 9137TIP3   OH227374   1.209   5.259   2.753
 9137TIP3    H127375   1.251   5.325   2.696
 9137TIP3    H227376   1.269   5.185   2.752
 9138TIP3   OH227377   2.326   4.360   0.178
 9138TIP3    H127378   2.338   4.424   0.107
 9138TIP3    H227379   2.412   4.357   0.221
 9139TIP3   OH227380   2.897   4.070   4.672
 9139TIP3    H127381   2.809   4.052   4.707
 9139TIP3    H227382   2.956   4.027   4.735
 9140TIP3   OH227383   5.192   3.760   4.656
 9140TIP3    H127384   5.245   3.742   4.734
 9140TIP3    H227385   5.111   3.797   4.691
 9141TIP3   OH227386   4.872   4.301   3.033
 9141TIP3    H127387   4.809   4.232   3.055
 9141TIP3    H227388   4.910   4.273   2.950
 9142TIP3   OH227389   5.058   6.109   5.897
 9142TIP3    H127390   5.098   6.171   5.837
 9142TIP3    H227391   5.006   6.051   5.841
 9143TIP3   OH227392   1.197   1.359   3.005
 9143TIP3    H127393   1.196   1.277   3.055
 9143TIP3    H227394   1.243   1.336   2.924
 9144TIP3   OH227395   7.164   0.658   3.002
 9144TIP3    H127396   7.254   0.688   3.017
 9144TIP3    H227397   7.113   0.702   3.070
 9145TIP3   OH227398   5.796   0.685   3.902
 9145TIP3    H127399   5.761   0.654   3.819
 9145TIP3    H227400   5.719   0.700   3.957
 9146TIP3   OH227401   5.598   4.031   3.033
 9146TIP3    H127402   5.590   4.101   2.968
 9146TIP3    H227403   5.529   3.969   3.011
 9147TIP3   OH227404   0.361   2.584   1.548
 9147TIP3    H127405   0.329   2.502   1.587
 9147TIP3    H227406   0.346   2.650   1.616
 9148TIP3   OH227407   6.599   4.640   3.314
 9148TIP3    H127408   6.690   4.651   3.287
 9148TIP3    H227409   6.559   4.588   3.244
 9149TIP3   OH227410   2.868   3.408   0.071
 9149TIP3    H127411   2.951   3.380   0.032
 9149TIP3    H227412   2.801   3.366   0.017
 9150TIP3   OH227413   4.309   2.106   5.856
 9150TIP3    H127414   4.260   2.063   5.925
 9150TIP3    H227415   4.339   2.189   5.895
 9151TIP3   OH227416   1.849   2.439   5.521
 9151TIP3    H127417   1.915   2.389   5.569
 9151TIP3    H227418   1.776   2.377   5.511
 9152TIP3   OH227419   1.274   6.618   2.039
 9152TIP3    H127420   1.285   6.535   1.992
 9152TIP3    H227421   1.322   6.682   1.987
 9153TIP3   OH227422   1.271   0.560   1.052
 9153TIP3    H127423   1.263   0.650   1.020
 9153TIP3    H227424   1.280   0.507   0.973
 9154TIP3   OH227425   0.004   2.740   0.747
 9154TIP3    H127426   0.001   2.652   0.785
 9154TIP3    H227427  -0.051   2.733   0.669
 9155TIP3   OH227428   0.651   3.474   3.680
 9155TIP3    H127429   0.699   3.490   3.761
 9155TIP3    H227430   0.669   3.383   3.659
 9156TIP3   OH227431   2.358   3.788   5.425
 9156TIP3    H127432   2.299   3.786   5.501
 9156TIP3    H227433   2.299   3.781   5.350
 9157TIP3   OH227434   6.866   6.758   2.837
 9157TIP3    H127435   6.781   6.723   2.863
 9157TIP3    H227436   6.887   6.824   2.903
 9158TIP3   OH227437   4.375   3.774   1.780
 9158TIP3    H127438   4.374   3.700   1.718
 9158TIP3    H227439   4.360   3.733   1.865
 9159TIP3   OH227440   1.200   0.236   3.216
 9159TIP3    H127441   1.138   0.197   3.155
 9159TIP3    H227442   1.170   0.207   3.302
 9160TIP3   OH227443   1.384   1.432   1.673
 9160TIP3    H127444   1.475   1.407   1.661
 9160TIP3    H227445   1.355   1.461   1.586
 9161TIP3   OH227446   6.427   0.773   5.745
 9161TIP3    H127447   6.517   0.748   5.724
 9161TIP3    H227448   6.414   0.855   5.696
 9162TIP3   OH227449   1.971   1.882   3.442
 9162TIP3    H127450   1.876   1.881   3.430
 9162TIP3    H227451   1.987   1.823   3.515
 9163TIP3   OH227452   3.889   4.607   4.247
 9163TIP3    H127453   3.860   4.537   4.305
 9163TIP3    H227454   3.862   4.688   4.291
 9164TIP3   OH227455   3.855   4.377   5.832
 9164TIP3    H127456   3.821   4.300   5.876
 9164TIP3    H227457   3.929   4.405   5.885
 9165TIP3   OH227458   0.906   3.174   2.266
 9165TIP3    H127459   0.973   3.155   2.201
 9165TIP3    H227460   0.844   3.101   2.259
 9166TIP3   OH227461   0.816   6.718   2.295
 9166TIP3    H127462   0.764   6.798   2.291
 9166TIP3    H227463   0.902   6.743   2.261
 9167TIP3   OH227464   5.447   3.997   4.014
 9167TIP3    H127465   5.352   3.990   4.027
 9167TIP3    H227466   5.484   3.951   4.090
 9168TIP3   OH227467   0.893   5.169   2.341
 9168TIP3    H127468   0.867   5.138   2.254
 9168TIP3    H227469   0.875   5.263   2.338
 9169TIP3   OH227470   1.193   2.602   0.327
 9169TIP3    H127471   1.140   2.522   0.339
 9169TIP3    H227472   1.270   2.588   0.382
 9170TIP3   OH227473   2.759   2.175   2.915
 9170TIP3    H127474   2.689   2.209   2.860
 9170TIP3    H227475   2.812   2.121   2.856
 9171TIP3   OH227476   5.204   3.334   1.672
 9171TIP3    H127477   5.200   3.360   1.764
 9171TIP3    H227478   5.184   3.414   1.623
 9172TIP3   OH227479   5.557   1.576   5.762
 9172TIP3    H127480   5.640   1.584   5.714
 9172TIP3    H227481   5.510   1.656   5.740
 9173TIP3   OH227482   3.110   4.506   2.521
 9173TIP3    H127483   3.122   4.446   2.448
 9173TIP3    H227484   3.018   4.531   2.517
 9174TIP3   OH227485   3.390   2.643   3.575
 9174TIP3    H127486   3.327   2.574   3.595
 9174TIP3    H227487   3.391   2.649   3.480
 9175TIP3   OH227488   0.317   3.577   3.842
 9175TIP3    H127489   0.284   3.568   3.753
 9175TIP3    H227490   0.361   3.494   3.860
 9176TIP3   OH227491   5.438   6.366   5.287
 9176TIP3    H127492   5.437   6.462   5.280
 9176TIP3    H227493   5.445   6.336   5.197
 9177TIP3   OH227494   0.339   4.884   2.439
 9177TIP3    H127495   0.379   4.797   2.435
 9177TIP3    H227496   0.308   4.892   2.529
 9178TIP3   OH227497   0.922   4.423   2.649
 9178TIP3    H127498   0.866   4.367   2.703
 9178TIP3    H227499   0.950   4.493   2.708
 9179TIP3   OH227500   1.655   3.072   0.477
 9179TIP3    H127501   1.710   3.034   0.409
 9179TIP3    H227502   1.577   3.103   0.431
 9180TIP3   OH227503   5.730   2.743   1.433
 9180TIP3    H127504   5.820   2.773   1.445
 9180TIP3    H227505   5.739   2.655   1.396
 9181TIP3   OH227506   6.527   1.554   3.179
 9181TIP3    H127507   6.454   1.531   3.236
 9181TIP3    H227508   6.538   1.649   3.192
 9182TIP3   OH227509   0.125   5.095   3.205
 9182TIP3    H127510   0.118   5.095   3.109
 9182TIP3    H227511   0.189   5.163   3.224
 9183TIP3   OH227512   3.875   5.837   3.644
 9183TIP3    H127513   3.804   5.830   3.580
 9183TIP3    H227514   3.924   5.915   3.617
 9184TIP3   OH227515   0.776   4.239   1.114
 9184TIP3    H127516   0.712   4.208   1.050
 9184TIP3    H227517   0.798   4.162   1.167
 9185TIP3   OH227518   4.744   5.994   5.800
 9185TIP3    H127519   4.749   6.032   5.713
 9185TIP3    H227520   4.681   6.049   5.847
 9186TIP3   OH227521   4.617   2.458   2.886
 9186TIP3    H127522   4.583   2.484   2.972
 9186TIP3    H227523   4.712   2.460   2.896
 9187TIP3   OH227524   4.619   3.763   5.269
 9187TIP3    H127525   4.587   3.848   5.237
 9187TIP3    H227526   4.540   3.716   5.293
 9188TIP3   OH227527   5.539   0.121   5.375
 9188TIP3    H127528   5.573   0.034   5.396
 9188TIP3    H227529   5.457   0.104   5.328
 9189TIP3   OH227530   6.746   4.704   2.441
 9189TIP3    H127531   6.746   4.631   2.503
 9189TIP3    H227532   6.704   4.775   2.488
 9190TIP3   OH227533   1.913   6.542   2.503
 9190TIP3    H127534   1.958   6.624   2.523
 9190TIP3    H227535   1.891   6.549   2.410
 9191TIP3   OH227536   5.695   0.118   1.216
 9191TIP3    H127537   5.601   0.117   1.235
 9191TIP3    H227538   5.736   0.098   1.300
 9192TIP3   OH227539   6.153   6.006   2.469
 9192TIP3    H127540   6.151   6.074   2.402
 9192TIP3    H227541   6.101   6.042   2.541
 9193TIP3   OH227542   3.458   3.666   2.901
 9193TIP3    H127543   3.546   3.668   2.862
 9193TIP3    H227544   3.401   3.639   2.829
 9194TIP3   OH227545   0.495   3.665   5.713
 9194TIP3    H127546   0.481   3.724   5.638
 9194TIP3    H227547   0.545   3.718   5.775
 9195TIP3   OH227548   3.514   6.749   3.031
 9195TIP3    H127549   3.439   6.695   3.006
 9195TIP3    H227550   3.500   6.832   2.986
 9196TIP3   OH227551   5.610   5.677   2.172
 9196TIP3    H127552   5.576   5.724   2.095
 9196TIP3    H227553   5.572   5.724   2.247
 9197TIP3   OH227554   3.227   2.262   4.427
 9197TIP3    H127555   3.322   2.264   4.423
 9197TIP3    H227556   3.198   2.302   4.345
 9198TIP3   OH227557   3.571   3.197   2.567
 9198TIP3    H127558   3.562   3.186   2.472
 9198TIP3    H227559   3.655   3.156   2.588
 9199TIP3   OH227560   6.175   4.533   2.966
 9199TIP3    H127561   6.113   4.520   2.894
 9199TIP3    H227562   6.132   4.492   3.042
 9200TIP3   OH227563   6.272   3.210   5.236
 9200TIP3    H127564   6.264   3.216   5.141
 9200TIP3    H227565   6.203   3.149   5.262
 9201TIP3   OH227566   6.351   2.214   1.275
 9201TIP3    H127567   6.417   2.283   1.266
 9201TIP3    H227568   6.392   2.150   1.333
 9202TIP3   OH227569   4.496   4.648   4.151
 9202TIP3    H127570   4.424   4.621   4.095
 9202TIP3    H227571   4.533   4.725   4.106
 9203TIP3   OH227572   4.881   4.433   2.573
 9203TIP3    H127573   4.881   4.526   2.553
 9203TIP3    H227574   4.951   4.396   2.518
 9204TIP3   OH227575   6.827   2.665   5.215
 9204TIP3    H127576   6.867   2.749   5.190
 9204TIP3    H227577   6.746   2.690   5.259
 9205TIP3   OH227578   3.504   6.135   2.433
 9205TIP3    H127579   3.462   6.053   2.408
 9205TIP3    H227580   3.561   6.111   2.507
 9206TIP3   OH227581   3.567   0.784   0.527
 9206TIP3    H127582   3.613   0.828   0.599
 9206TIP3    H227583   3.482   0.759   0.565
 9207TIP3   OH227584   3.156   5.299   3.510
 9207TIP3    H127585   3.191   5.243   3.580
 9207TIP3    H227586   3.106   5.239   3.454
 9208TIP3   OH227587   1.437   2.008   4.081
 9208TIP3    H127588   1.470   1.926   4.044
 9208TIP3    H227589   1.375   2.041   4.016
 9209TIP3   OH227590   1.026   1.192   3.745
 9209TIP3    H127591   0.954   1.231   3.695
 9209TIP3    H227592   1.054   1.262   3.804
 9210TIP3   OH227593   0.073   1.164   4.242
 9210TIP3    H127594   0.141   1.137   4.303
 9210TIP3    H227595   0.038   1.082   4.207
 9211TIP3   OH227596   3.425   0.042   2.122
 9211TIP3    H127597   3.408  -0.042   2.079
 9211TIP3    H227598   3.349   0.096   2.100
 9212TIP3   OH227599   5.273   5.808   5.393
 9212TIP3    H127600   5.258   5.888   5.343
 9212TIP3    H227601   5.328   5.836   5.467
 9213TIP3   OH227602   1.217   0.260   4.139
 9213TIP3    H127603   1.130   0.262   4.098
 9213TIP3    H227604   1.261   0.338   4.105
 9214TIP3   OH227605   2.385   2.493   0.224
 9214TIP3    H127606   2.383   2.425   0.157
 9214TIP3    H227607   2.437   2.454   0.295
 9215TIP3   OH227608   4.372   1.560   2.339
 9215TIP3    H127609   4.357   1.475   2.297
 9215TIP3    H227610   4.463   1.556   2.367
 9216TIP3   OH227611   1.814   2.569   5.794
 9216TIP3    H127612   1.819   2.556   5.699
 9216TIP3    H227613   1.755   2.501   5.825
 9217TIP3   OH227614   7.063   0.411   3.562
 9217TIP3    H127615   7.110   0.400   3.479
 9217TIP3    H227616   7.114   0.477   3.610
 9218TIP3   OH227617   4.817   3.762   3.444
 9218TIP3    H127618   4.897   3.788   3.488
 9218TIP3    H227619   4.747   3.805   3.493
 9219TIP3   OH227620   3.815   3.189   4.228
 9219TIP3    H127621   3.843   3.277   4.253
 9219TIP3    H227622   3.814   3.140   4.310
 9220TIP3   OH227623   5.511   1.409   2.142
 9220TIP3    H127624   5.496   1.315   2.131
 9220TIP3    H227625   5.432   1.450   2.108
 9221TIP3   OH227626   4.120   0.638   0.929
 9221TIP3    H127627   4.202   0.675   0.962
 9221TIP3    H227628   4.138   0.545   0.919
 9222TIP3   OH227629   4.871   2.650   5.157
 9222TIP3    H127630   4.946   2.624   5.210
 9222TIP3    H227631   4.796   2.607   5.199
 9223TIP3   OH227632   4.177   4.739   2.404
 9223TIP3    H127633   4.242   4.696   2.350
 9223TIP3    H227634   4.180   4.831   2.377
 9224TIP3   OH227635   1.867   6.534   1.758
 9224TIP3    H127636   1.895   6.528   1.667
 9224TIP3    H227637   1.945   6.514   1.809
 9225TIP3   OH227638   3.703   6.395   3.955
 9225TIP3    H127639   3.651   6.471   3.981
 9225TIP3    H227640   3.673   6.324   4.012
 9226TIP3   OH227641   4.609   1.912   1.098
 9226TIP3    H127642   4.626   1.866   1.016
 9226TIP3    H227643   4.522   1.882   1.124
 9227TIP3   OH227644   3.973   6.711   3.297
 9227TIP3    H127645   3.913   6.690   3.368
 9227TIP3    H227646   3.920   6.763   3.236
 9228TIP3   OH227647   0.072   1.867   3.719
 9228TIP3    H127648   0.025   1.949   3.731
 9228TIP3    H227649   0.065   1.823   3.803
 9229TIP3   OH227650   3.185   3.657   1.481
 9229TIP3    H127651   3.152   3.567   1.483
 9229TIP3    H227652   3.107   3.711   1.469
 9230TIP3   OH227653   5.393   1.983   5.208
 9230TIP3    H127654   5.465   1.934   5.249
 9230TIP3    H227655   5.419   1.991   5.116
 9231TIP3   OH227656   3.489   0.153   1.382
 9231TIP3    H127657   3.473   0.116   1.296
 9231TIP3    H227658   3.458   0.086   1.443
 9232TIP3   OH227659   0.285   4.325   4.796
 9232TIP3    H127660   0.317   4.272   4.869
 9232TIP3    H227661   0.190   4.319   4.801
 9233TIP3   OH227662   0.776   4.023   2.758
 9233TIP3    H127663   0.746   4.096   2.703
 9233TIP3    H227664   0.704   4.009   2.819
 9234TIP3   OH227665   5.563   6.010   4.343
 9234TIP3    H127666   5.506   5.969   4.278
 9234TIP3    H227667   5.541   6.103   4.339
 9235TIP3   OH227668   0.269   2.385   4.977
 9235TIP3    H127669   0.245   2.445   5.048
 9235TIP3    H227670   0.187   2.343   4.953
 9236TIP3   OH227671   2.435   0.643   0.088
 9236TIP3    H127672   2.349   0.602   0.101
 9236TIP3    H227673   2.487   0.575   0.044
 9237TIP3   OH227674   2.991   5.383   5.714
 9237TIP3    H127675   2.899   5.359   5.727
 9237TIP3    H227676   3.040   5.316   5.762
 9238TIP3   OH227677   0.706   1.535   0.317
 9238TIP3    H127678   0.738   1.559   0.404
 9238TIP3    H227679   0.615   1.509   0.332
 9239TIP3   OH227680   3.531   0.067   0.662
 9239TIP3    H127681   3.580   0.134   0.614
 9239TIP3    H227682   3.504   0.111   0.743
 9240TIP3   OH227683   4.420   1.963   1.747
 9240TIP3    H127684   4.390   2.038   1.694
 9240TIP3    H227685   4.485   2.000   1.806
 9241TIP3   OH227686   5.141   2.030   1.828
 9241TIP3    H127687   5.072   2.087   1.862
 9241TIP3    H227688   5.095   1.953   1.794
 9242TIP3   OH227689   7.137   4.475   5.739
 9242TIP3    H127690   7.090   4.553   5.709
 9242TIP3    H227691   7.076   4.432   5.800
 9243TIP3   OH227692   4.054   2.724   2.648
 9243TIP3    H127693   3.992   2.712   2.577
 9243TIP3    H227694   4.039   2.650   2.707
 9244TIP3   OH227695   0.885   0.043   5.290
 9244TIP3    H127696   0.805   0.079   5.253
 9244TIP3    H227697   0.906  -0.033   5.235
 9245TIP3   OH227698   0.756   0.837   1.013
 9245TIP3    H127699   0.756   0.787   0.931
 9245TIP3    H227700   0.739   0.928   0.986
 9246TIP3   OH227701   5.803   4.385   1.338
 9246TIP3    H127702   5.830   4.306   1.292
 9246TIP3    H227703   5.824   4.456   1.277
 9247TIP3   OH227704   1.005   1.014   3.014
 9247TIP3    H127705   1.075   0.997   2.950
 9247TIP3    H227706   1.047   1.063   3.084
 9248TIP3   OH227707   6.258   4.031   2.099
 9248TIP3    H127708   6.314   4.050   2.024
 9248TIP3    H227709   6.201   4.107   2.107
 9249TIP3   OH227710   1.050   3.831   4.932
 9249TIP3    H127711   1.027   3.825   4.839
 9249TIP3    H227712   1.130   3.781   4.940
 9250TIP3   OH227713   6.268   4.789   3.002
 9250TIP3    H127714   6.278   4.696   2.983
 9250TIP3    H227715   6.277   4.796   3.097
 9251TIP3   OH227716   3.263   1.649   3.855
 9251TIP3    H127717   3.308   1.695   3.784
 9251TIP3    H227718   3.331   1.599   3.899
 9252TIP3   OH227719   2.357   4.517   4.087
 9252TIP3    H127720   2.415   4.562   4.148
 9252TIP3    H227721   2.277   4.569   4.088
 9253TIP3   OH227722   1.662   3.232   2.928
 9253TIP3    H127723   1.574   3.228   2.893
 9253TIP3    H227724   1.712   3.282   2.863
 9254TIP3   OH227725   6.600   4.593   3.857
 9254TIP3    H127726   6.628   4.636   3.777
 9254TIP3    H227727   6.517   4.550   3.835
 9255TIP3   OH227728   4.414   0.482   2.177
 9255TIP3    H127729   4.491   0.448   2.222
 9255TIP3    H227730   4.439   0.571   2.151
 9256TIP3   OH227731   6.735   5.940   4.301
 9256TIP3    H127732   6.641   5.940   4.284
 9256TIP3    H227733   6.755   5.848   4.322
 9257TIP3   OH227734   6.910   2.424   2.170
 9257TIP3    H127735   6.862   2.483   2.228
 9257TIP3    H227736   6.892   2.456   2.082
 9258TIP3   OH227737   4.733   4.552   1.893
 9258TIP3    H127738   4.730   4.647   1.880
 9258TIP3    H227739   4.824   4.528   1.876
 9259TIP3   OH227740   1.223   4.290   0.628
 9259TIP3    H127741   1.279   4.230   0.678
 9259TIP3    H227742   1.284   4.340   0.573
 9260TIP3   OH227743   4.194   2.861   1.739
 9260TIP3    H127744   4.276   2.811   1.727
 9260TIP3    H227745   4.222   2.952   1.737
 9261TIP3   OH227746   5.887   5.082   4.580
 9261TIP3    H127747   5.866   5.133   4.658
 9261TIP3    H227748   5.836   5.002   4.588
 9262TIP3   OH227749   3.778   1.326   0.895
 9262TIP3    H127750   3.834   1.403   0.902
 9262TIP3    H227751   3.781   1.302   0.803
 9263TIP3   OH227752   6.771   1.866   5.785
 9263TIP3    H127753   6.698   1.928   5.772
 9263TIP3    H227754   6.795   1.875   5.877
 9264TIP3   OH227755   2.194   3.329   1.457
 9264TIP3    H127756   2.226   3.242   1.480
 9264TIP3    H227757   2.131   3.314   1.386
 9265TIP3   OH227758   3.582   6.496   2.738
 9265TIP3    H127759   3.630   6.416   2.760
 9265TIP3    H227760   3.499   6.489   2.784
 9266TIP3   OH227761   2.991   3.534   5.079
 9266TIP3    H127762   3.045   3.457   5.098
 9266TIP3    H227763   2.982   3.533   4.984
 9267TIP3   OH227764   6.195   1.834   0.813
 9267TIP3    H127765   6.238   1.851   0.896
 9267TIP3    H227766   6.169   1.921   0.781
 9268TIP3   OH227767   1.850   0.238   3.642
 9268TIP3    H127768   1.944   0.257   3.652
 9268TIP3    H227769   1.822   0.295   3.571
 9269TIP3   OH227770   7.172   3.627   3.208
 9269TIP3    H127771   7.155   3.664   3.121
 9269TIP3    H227772   7.153   3.534   3.199
 9270TIP3   OH227773   4.238   1.322   5.255
 9270TIP3    H127774   4.242   1.260   5.328
 9270TIP3    H227775   4.149   1.312   5.220
 9271TIP3   OH227776   1.163   3.246   2.078
 9271TIP3    H127777   1.108   3.324   2.073
 9271TIP3    H227778   1.252   3.280   2.081
 9272TIP3   OH227779   6.715   0.782   0.973
 9272TIP3    H127780   6.683   0.844   1.038
 9272TIP3    H227781   6.805   0.765   0.998
 9273TIP3   OH227782   2.491   4.115   3.349
 9273TIP3    H127783   2.401   4.118   3.316
 9273TIP3    H227784   2.492   4.037   3.405
 9274TIP3   OH227785   2.047   6.349   5.645
 9274TIP3    H127786   1.953   6.332   5.642
 9274TIP3    H227787   2.074   6.352   5.554
 9275TIP3   OH227788   4.853   4.452   0.283
 9275TIP3    H127789   4.788   4.515   0.312
 9275TIP3    H227790   4.881   4.407   0.363
 9276TIP3   OH227791   4.571   0.548   1.473
 9276TIP3    H127792   4.563   0.453   1.481
 9276TIP3    H227793   4.490   0.583   1.511
 9277TIP3   OH227794   5.071   0.033   5.038
 9277TIP3    H127795   4.997   0.091   5.055
 9277TIP3    H227796   5.101   0.056   4.951
 9278TIP3   OH227797   6.244   3.119   3.791
 9278TIP3    H127798   6.335   3.130   3.764
 9278TIP3    H227799   6.199   3.198   3.760
 9279TIP3   OH227800   6.530   5.302   2.228
 9279TIP3    H127801   6.512   5.247   2.304
 9279TIP3    H227802   6.505   5.390   2.256
 9280TIP3   OH227803   0.384   3.915   3.752
 9280TIP3    H127804   0.324   3.969   3.700
 9280TIP3    H227805   0.398   3.837   3.699
 9281TIP3   OH227806   3.251   2.439   2.095
 9281TIP3    H127807   3.175   2.404   2.049
 9281TIP3    H227808   3.319   2.443   2.028
 9282TIP3   OH227809   3.959   2.091   2.263
 9282TIP3    H127810   3.924   2.021   2.318
 9282TIP3    H227811   3.972   2.164   2.323
 9283TIP3   OH227812   2.122   5.807   0.876
 9283TIP3    H127813   2.039   5.797   0.923
 9283TIP3    H227814   2.105   5.876   0.811
 9284TIP3   OH227815   6.559   4.776   1.483
 9284TIP3    H127816   6.574   4.719   1.408
 9284TIP3    H227817   6.644   4.784   1.525
 9285TIP3   OH227818   0.572   6.470   2.737
 9285TIP3    H127819   0.619   6.441   2.815
 9285TIP3    H227820   0.631   6.533   2.695
 9286TIP3   OH227821   2.519   6.605   2.430
 9286TIP3    H127822   2.439   6.597   2.482
 9286TIP3    H227823   2.501   6.555   2.351
 9287TIP3   OH227824   5.850   4.544   3.646
 9287TIP3    H127825   5.924   4.567   3.702
 9287TIP3    H227826   5.890   4.507   3.567
 9288TIP3   OH227827   6.314   4.476   2.000
 9288TIP3    H127828   6.361   4.559   1.991
 9288TIP3    H227829   6.380   4.414   2.030
 9289TIP3   OH227830   4.583   1.050   3.269
 9289TIP3    H127831   4.546   1.084   3.351
 9289TIP3    H227832   4.674   1.081   3.270
 9290TIP3   OH227833   1.523   6.566   3.322
 9290TIP3    H127834   1.451   6.572   3.260
 9290TIP3    H227835   1.544   6.473   3.325
 9291TIP3   OH227836   3.150   1.645   4.493
 9291TIP3    H127837   3.235   1.649   4.449
 9291TIP3    H227838   3.172   1.646   4.586
 9292TIP3   OH227839   5.821   2.486   2.062
 9292TIP3    H127840   5.903   2.512   2.105
 9292TIP3    H227841   5.779   2.426   2.124
 9293TIP3   OH227842   5.289   2.839   1.228
 9293TIP3    H127843   5.377   2.823   1.194
 9293TIP3    H227844   5.237   2.859   1.150
 9294TIP3   OH227845   7.129   0.882   5.270
 9294TIP3    H127846   7.211   0.920   5.301
 9294TIP3    H227847   7.100   0.941   5.200
 9295TIP3   OH227848   5.965   5.786   5.053
 9295TIP3    H127849   6.019   5.771   5.131
 9295TIP3    H227850   5.912   5.862   5.075
 9296TIP3   OH227851   6.957   6.311   4.798
 9296TIP3    H127852   7.040   6.358   4.800
 9296TIP3    H227853   6.958   6.264   4.715
 9297TIP3   OH227854   2.449   3.389   4.167
 9297TIP3    H127855   2.469   3.314   4.110
 9297TIP3    H227856   2.376   3.433   4.124
 9298TIP3   OH227857   1.331   2.704   5.563
 9298TIP3    H127858   1.406   2.650   5.539
 9298TIP3    H227859   1.267   2.689   5.493
 9299TIP3   OH227860   4.142   4.327   2.631
 9299TIP3    H127861   4.135   4.422   2.617
 9299TIP3    H227862   4.227   4.304   2.593
 9300TIP3   OH227863   5.081   6.636   5.838
 9300TIP3    H127864   5.051   6.554   5.876
 9300TIP3    H227865   5.131   6.610   5.760
 9301TIP3   OH227866   0.788   0.818   3.081
 9301TIP3    H127867   0.739   0.801   3.000
 9301TIP3    H227868   0.863   0.870   3.054
 9302TIP3   OH227869   4.398   5.554   3.062
 9302TIP3    H127870   4.390   5.619   2.992
 9302TIP3    H227871   4.486   5.517   3.049
 9303TIP3   OH227872   0.476   4.467   4.113
 9303TIP3    H127873   0.492   4.546   4.163
 9303TIP3    H227874   0.554   4.456   4.059
 9304TIP3   OH227875   5.888   3.971   0.705
 9304TIP3    H127876   5.801   3.935   0.723
 9304TIP3    H227877   5.896   3.969   0.609
 9305TIP3   OH227878   3.074   0.419   4.236
 9305TIP3    H127879   2.980   0.407   4.249
 9305TIP3    H227880   3.092   0.507   4.269
 9306TIP3   OH227881   4.364   4.513   4.514
 9306TIP3    H127882   4.331   4.601   4.499
 9306TIP3    H227883   4.449   4.525   4.556
 9307TIP3   OH227884   3.702   5.454   5.112
 9307TIP3    H127885   3.635   5.482   5.050
 9307TIP3    H227886   3.653   5.427   5.190
 9308TIP3   OH227887   5.321   1.591   2.466
 9308TIP3    H127888   5.408   1.602   2.426
 9308TIP3    H227889   5.325   1.646   2.545
 9309TIP3   OH227890   7.090   2.072   3.536
 9309TIP3    H127891   7.030   2.027   3.595
 9309TIP3    H227892   7.069   2.037   3.449
 9310TIP3   OH227893   0.855   4.226   1.482
 9310TIP3    H127894   0.781   4.286   1.494
 9310TIP3    H227895   0.889   4.212   1.571
 9311TIP3   OH227896   4.538   6.171   1.534
 9311TIP3    H127897   4.507   6.120   1.459
 9311TIP3    H227898   4.594   6.110   1.582
 9312TIP3   OH227899   1.588   5.058   0.654
 9312TIP3    H127900   1.664   5.042   0.709
 9312TIP3    H227901   1.623   5.098   0.575
 9313TIP3   OH227902   6.621   1.036   4.463
 9313TIP3    H127903   6.647   1.018   4.372
 9313TIP3    H227904   6.590   1.127   4.462
 9314TIP3   OH227905   2.899   5.799   4.814
 9314TIP3    H127906   2.927   5.873   4.867
 9314TIP3    H227907   2.898   5.725   4.875
 9315TIP3   OH227908   6.208   3.999   5.431
 9315TIP3    H127909   6.203   4.087   5.467
 9315TIP3    H227910   6.140   3.997   5.364
 9316TIP3   OH227911   3.378   6.775   1.439
 9316TIP3    H127912   3.443   6.711   1.412
 9316TIP3    H227913   3.341   6.740   1.520
 9317TIP3   OH227914   6.424   4.549   0.602
 9317TIP3    H127915   6.402   4.640   0.582
 9317TIP3    H227916   6.520   4.547   0.599
 9318TIP3   OH227917   2.873   5.401   1.705
 9318TIP3    H127918   2.896   5.383   1.614
 9318TIP3    H227919   2.937   5.467   1.734
 9319TIP3   OH227920   1.137   3.039   5.208
 9319TIP3    H127921   1.195   2.996   5.145
 9319TIP3    H227922   1.155   3.133   5.197
 9320TIP3   OH227923   2.038   0.577   4.176
 9320TIP3    H127924   2.006   0.660   4.212
 9320TIP3    H227925   2.133   0.583   4.183
 9321TIP3   OH227926   1.623   6.286   1.992
 9321TIP3    H127927   1.658   6.254   1.909
 9321TIP3    H227928   1.658   6.226   2.058
 9322TIP3   OH227929   3.269   5.086   2.466
 9322TIP3    H127930   3.338   5.064   2.529
 9322TIP3    H227931   3.201   5.127   2.519
 9323TIP3   OH227932   3.161   6.179   0.577
 9323TIP3    H127933   3.099   6.250   0.593
 9323TIP3    H227934   3.246   6.216   0.601
 9324TIP3   OH227935   5.534   5.363   5.326
 9324TIP3    H127936   5.525   5.342   5.419
 9324TIP3    H227937   5.450   5.340   5.287
 9325TIP3   OH227938   5.313   1.413   0.021
 9325TIP3    H127939   5.385   1.388   0.078
 9325TIP3    H227940   5.339   1.383  -0.066
 9326TIP3   OH227941   4.484   4.034   5.801
 9326TIP3    H127942   4.438   3.969   5.855
 9326TIP3    H227943   4.486   3.995   5.713
 9327TIP3   OH227944   5.089   6.608   1.513
 9327TIP3    H127945   5.116   6.516   1.520
 9327TIP3    H227946   5.148   6.644   1.447
 9328TIP3   OH227947   2.095   5.910   2.765
 9328TIP3    H127948   2.178   5.950   2.792
 9328TIP3    H227949   2.101   5.819   2.796
 9329TIP3   OH227950   3.461   0.854   5.016
 9329TIP3    H127951   3.391   0.894   5.067
 9329TIP3    H227952   3.416   0.815   4.941
 9330TIP3   OH227953   2.497   5.944   1.149
 9330TIP3    H127954   2.463   5.924   1.062
 9330TIP3    H227955   2.567   5.880   1.162
 9331TIP3   OH227956   6.591   0.144   2.157
 9331TIP3    H127957   6.562   0.082   2.091
 9331TIP3    H227958   6.571   0.102   2.241
 9332TIP3   OH227959   1.475   4.345   4.017
 9332TIP3    H127960   1.540   4.279   4.043
 9332TIP3    H227961   1.483   4.414   4.084
 9333TIP3   OH227962   6.865   6.430   4.533
 9333TIP3    H127963   6.949   6.475   4.542
 9333TIP3    H227964   6.886   6.347   4.491
 9334TIP3   OH227965   7.113   3.289   0.458
 9334TIP3    H127966   7.131   3.361   0.518
 9334TIP3    H227967   7.053   3.325   0.393
 9335TIP3   OH227968   0.756   4.170   3.822
 9335TIP3    H127969   0.845   4.188   3.850
 9335TIP3    H227970   0.751   4.208   3.734
 9336TIP3   OH227971   6.108   1.118   5.256
 9336TIP3    H127972   6.159   1.094   5.179
 9336TIP3    H227973   6.152   1.076   5.330
 9337TIP3   OH227974   2.103   3.400   5.835
 9337TIP3    H127975   2.127   3.331   5.773
 9337TIP3    H227976   2.064   3.469   5.781
 9338TIP3   OH227977   7.011   0.527   1.388
 9338TIP3    H127978   6.948   0.546   1.457
 9338TIP3    H227979   7.036   0.435   1.402
 9339TIP3   OH227980   4.771   4.836   5.681
 9339TIP3    H127981   4.851   4.854   5.633
 9339TIP3    H227982   4.710   4.803   5.616
 9340TIP3   OH227983   2.118   3.210   0.201
 9340TIP3    H127984   2.104   3.302   0.180
 9340TIP3    H227985   2.119   3.166   0.116
 9341TIP3   OH227986   1.409   5.972   2.775
 9341TIP3    H127987   1.372   5.923   2.701
 9341TIP3    H227988   1.486   6.016   2.738
 9342TIP3   OH227989   6.439   0.250   3.092
 9342TIP3    H127990   6.387   0.201   3.157
 9342TIP3    H227991   6.408   0.217   3.007
 9343TIP3   OH227992   5.713   2.188   3.455
 9343TIP3    H127993   5.653   2.166   3.526
 9343TIP3    H227994   5.660   2.186   3.376
 9344TIP3   OH227995   1.417   1.153   3.127
 9344TIP3    H127996   1.471   1.130   3.202
 9344TIP3    H227997   1.447   1.240   3.101
 9345TIP3   OH227998   6.516   3.930   3.992
 9345TIP3    H127999   6.457   3.982   3.938
 9345TIP3    H228000   6.493   3.953   4.082
 9346TIP3   OH228001   3.079   2.914   1.058
 9346TIP3    H128002   2.989   2.889   1.035
 9346TIP3    H228003   3.074   2.939   1.150
 9347TIP3   OH228004   4.165   1.310   2.764
 9347TIP3    H128005   4.255   1.337   2.750
 9347TIP3    H228006   4.172   1.227   2.812
 9348TIP3   OH228007   1.594   5.420   4.416
 9348TIP3    H128008   1.647   5.500   4.421
 9348TIP3    H228009   1.654   5.354   4.379
 9349TIP3   OH228010   1.021   4.692   2.490
 9349TIP3    H128011   1.081   4.645   2.548
 9349TIP3    H228012   1.057   4.780   2.484
 9350TIP3   OH228013   1.473   0.990   3.433
 9350TIP3    H128014   1.486   0.922   3.499
 9350TIP3    H228015   1.434   1.063   3.481
 9351TIP3   OH228016   1.659   2.252   5.537
 9351TIP3    H128017   1.681   2.160   5.548
 9351TIP3    H228018   1.608   2.274   5.615
 9352TIP3   OH228019   6.212   5.779   3.178
 9352TIP3    H128020   6.283   5.749   3.235
 9352TIP3    H228021   6.176   5.856   3.224
 9353TIP3   OH228022   3.629   2.722   5.347
 9353TIP3    H128023   3.598   2.660   5.280
 9353TIP3    H228024   3.658   2.666   5.419
 9354TIP3   OH228025   6.638   5.990   0.545
 9354TIP3    H128026   6.589   6.032   0.475
 9354TIP3    H228027   6.689   6.060   0.585
 9355TIP3   OH228028   2.029   5.859   3.121
 9355TIP3    H128029   1.966   5.798   3.082
 9355TIP3    H228030   2.115   5.822   3.100
 9356TIP3   OH228031   5.091   5.710   4.663
 9356TIP3    H128032   5.051   5.789   4.700
 9356TIP3    H228033   5.093   5.647   4.735
 9357TIP3   OH228034   6.942   5.991   5.129
 9357TIP3    H128035   6.956   5.921   5.065
 9357TIP3    H228036   6.941   5.946   5.214
 9358TIP3   OH228037   3.288   4.383   0.151
 9358TIP3    H128038   3.275   4.413   0.241
 9358TIP3    H228039   3.255   4.293   0.151
 9359TIP3   OH228040   6.694   3.465   5.679
 9359TIP3    H128041   6.699   3.488   5.772
 9359TIP3    H228042   6.600   3.461   5.660
 9360TIP3   OH228043   1.687   1.802   3.469
 9360TIP3    H128044   1.623   1.799   3.539
 9360TIP3    H228045   1.636   1.815   3.389
 9361TIP3   OH228046   3.314   0.443   1.190
 9361TIP3    H128047   3.285   0.527   1.224
 9361TIP3    H228048   3.337   0.392   1.267
 9362TIP3   OH228049   6.148   4.036   1.128
 9362TIP3    H128050   6.206   3.975   1.083
 9362TIP3    H228051   6.103   4.082   1.057
 9363TIP3   OH228052   4.238   6.388   2.186
 9363TIP3    H128053   4.307   6.443   2.224
 9363TIP3    H228054   4.198   6.345   2.262
 9364TIP3   OH228055   3.932   3.663   5.743
 9364TIP3    H128056   3.953   3.744   5.790
 9364TIP3    H228057   3.838   3.669   5.727
 9365TIP3   OH228058   6.722   4.248   5.254
 9365TIP3    H128059   6.724   4.152   5.262
 9365TIP3    H228060   6.814   4.272   5.237
 9366TIP3   OH228061   0.937   6.132   2.295
 9366TIP3    H128062   0.909   6.051   2.338
 9366TIP3    H228063   0.973   6.186   2.365
 9367TIP3   OH228064   5.923   2.371   3.894
 9367TIP3    H128065   5.903   2.442   3.832
 9367TIP3    H228066   5.859   2.384   3.964
 9368TIP3   OH228067   3.446   5.879   2.192
 9368TIP3    H128068   3.508   5.816   2.228
 9368TIP3    H228069   3.471   5.888   2.100
 9369TIP3   OH228070   5.019   6.650   0.438
 9369TIP3    H128071   5.033   6.745   0.436
 9369TIP3    H228072   5.097   6.615   0.481
 9370TIP3   OH228073   5.309   6.404   1.986
 9370TIP3    H128074   5.365   6.370   1.916
 9370TIP3    H228075   5.339   6.493   2.000
 9371TIP3   OH228076   0.587   1.256   3.649
 9371TIP3    H128077   0.509   1.208   3.622
 9371TIP3    H228078   0.585   1.255   3.745
 9372TIP3   OH228079   2.475   1.770   5.743
 9372TIP3    H128080   2.566   1.754   5.719
 9372TIP3    H228081   2.424   1.720   5.679
 9373TIP3   OH228082   6.733   5.568   0.922
 9373TIP3    H128083   6.828   5.569   0.908
 9373TIP3    H228084   6.718   5.488   0.974
 9374TIP3   OH228085   5.680   6.300   1.623
 9374TIP3    H128086   5.764   6.320   1.582
 9374TIP3    H228087   5.619   6.288   1.550
 9375TIP3   OH228088   4.127   1.205   1.384
 9375TIP3    H128089   4.136   1.297   1.362
 9375TIP3    H228090   4.187   1.191   1.457
 9376TIP3   OH228091   7.155   4.624   5.376
 9376TIP3    H128092   7.075   4.629   5.324
 9376TIP3    H228093   7.158   4.707   5.424
 9377TIP3   OH228094   6.250   5.763   4.988
 9377TIP3    H128095   6.237   5.729   5.077
 9377TIP3    H228096   6.285   5.689   4.939
 9378TIP3   OH228097   5.763   6.270   1.871
 9378TIP3    H128098   5.715   6.285   1.790
 9378TIP3    H228099   5.706   6.213   1.923
 9379TIP3   OH228100   2.580   1.093   4.066
 9379TIP3    H128101   2.573   1.180   4.028
 9379TIP3    H228102   2.670   1.090   4.101
 9380TIP3   OH228103   6.640   2.786   0.176
 9380TIP3    H128104   6.693   2.865   0.169
 9380TIP3    H228105   6.703   2.714   0.165
 9381TIP3   OH228106   1.479   3.890   4.134
 9381TIP3    H128107   1.412   3.932   4.080
 9381TIP3    H228108   1.472   3.797   4.112
 9382TIP3   OH228109   4.633   1.650   3.389
 9382TIP3    H128110   4.565   1.688   3.444
 9382TIP3    H228111   4.595   1.645   3.302
 9383TIP3   OH228112   4.541   1.635   3.129
 9383TIP3    H128113   4.608   1.628   3.061
 9383TIP3    H228114   4.491   1.714   3.105
 9384TIP3   OH228115   5.145   0.279   4.156
 9384TIP3    H128116   5.189   0.242   4.232
 9384TIP3    H228117   5.052   0.265   4.172
 9385TIP3   OH228118   4.152   4.845   3.914
 9385TIP3    H128119   4.079   4.905   3.932
 9385TIP3    H228120   4.168   4.855   3.820
 9386TIP3   OH228121   1.493   2.385   4.512
 9386TIP3    H128122   1.419   2.444   4.529
 9386TIP3    H228123   1.453   2.298   4.509
 9387TIP3   OH228124   7.112   0.514   2.258
 9387TIP3    H128125   7.127   0.530   2.351
 9387TIP3    H228126   7.193   0.541   2.215
 9388TIP3   OH228127   4.149   2.118   5.339
 9388TIP3    H128128   4.081   2.119   5.271
 9388TIP3    H228129   4.113   2.172   5.409
 9389TIP3   OH228130   3.227   3.567   4.003
 9389TIP3    H128131   3.207   3.570   4.097
 9389TIP3    H228132   3.144   3.590   3.961
 9390TIP3   OH228133   6.751   2.350   3.137
 9390TIP3    H128134   6.711   2.265   3.157
 9390TIP3    H228135   6.844   2.336   3.150
 9391TIP3   OH228136   5.344   3.636   1.623
 9391TIP3    H128137   5.373   3.545   1.626
 9391TIP3    H228138   5.384   3.676   1.701
 9392TIP3   OH228139   0.179   3.860   4.486
 9392TIP3    H128140   0.264   3.827   4.458
 9392TIP3    H228141   0.193   3.890   4.576
 9393TIP3   OH228142   6.639   4.175   1.298
 9393TIP3    H128143   6.698   4.204   1.368
 9393TIP3    H228144   6.576   4.118   1.341
 9394TIP3   OH228145   1.620   2.231   2.460
 9394TIP3    H128146   1.537   2.191   2.484
 9394TIP3    H228147   1.686   2.182   2.510
 9395TIP3   OH228148   3.474   1.333   4.541
 9395TIP3    H128149   3.459   1.364   4.452
 9395TIP3    H228150   3.482   1.238   4.533
 9396TIP3   OH228151   6.772   3.373   2.781
 9396TIP3    H128152   6.717   3.365   2.859
 9396TIP3    H228153   6.720   3.426   2.720
 9397TIP3   OH228154   5.002   5.916   3.731
 9397TIP3    H128155   5.078   5.884   3.683
 9397TIP3    H228156   5.026   6.005   3.758
 9398TIP3   OH228157   2.919   6.298   5.608
 9398TIP3    H128158   2.946   6.390   5.613
 9398TIP3    H228159   2.850   6.297   5.542
 9399TIP3   OH228160   6.061   5.939   3.357
 9399TIP3    H128161   5.992   5.993   3.396
 9399TIP3    H228162   6.077   5.870   3.422
 9400TIP3   OH228163   5.026   3.855   3.649
 9400TIP3    H128164   5.107   3.804   3.651
 9400TIP3    H228165   5.054   3.946   3.647
 9401TIP3   OH228166   5.949   1.291   0.768
 9401TIP3    H128167   5.991   1.377   0.775
 9401TIP3    H228168   5.908   1.278   0.854
 9402TIP3   OH228169   3.859   1.926   4.682
 9402TIP3    H128170   3.832   1.926   4.590
 9402TIP3    H228171   3.777   1.925   4.731
 9403TIP3   OH228172   4.216   0.918   2.622
 9403TIP3    H128173   4.247   1.006   2.599
 9403TIP3    H228174   4.296   0.869   2.642
 9404TIP3   OH228175   6.932   5.542   2.994
 9404TIP3    H128176   6.862   5.513   2.936
 9404TIP3    H228177   6.887   5.589   3.064
 9405TIP3   OH228178   5.155   2.138   2.265
 9405TIP3    H128179   5.177   2.045   2.277
 9405TIP3    H228180   5.199   2.183   2.338
 9406TIP3   OH228181   3.538   1.112   3.375
 9406TIP3    H128182   3.596   1.040   3.398
 9406TIP3    H228183   3.494   1.135   3.457
 9407TIP3   OH228184   1.227   5.745   4.637
 9407TIP3    H128185   1.255   5.683   4.705
 9407TIP3    H228186   1.144   5.780   4.669
 9408TIP3   OH228187   5.249   2.924   0.595
 9408TIP3    H128188   5.285   2.859   0.535
 9408TIP3    H228189   5.156   2.902   0.600
 9409TIP3   OH228190   2.697   0.611   2.499
 9409TIP3    H128191   2.645   0.537   2.530
 9409TIP3    H228192   2.675   0.682   2.559
 9410TIP3   OH228193   1.799   6.237   3.528
 9410TIP3    H128194   1.831   6.149   3.551
 9410TIP3    H228195   1.878   6.291   3.529
 9411TIP3   OH228196   4.836   1.095   1.779
 9411TIP3    H128197   4.848   1.172   1.723
 9411TIP3    H228198   4.741   1.083   1.784
 9412TIP3   OH228199   1.529   2.742   4.635
 9412TIP3    H128200   1.554   2.746   4.543
 9412TIP3    H228201   1.612   2.733   4.682
 9413TIP3   OH228202   1.443   2.256   3.793
 9413TIP3    H128203   1.534   2.230   3.781
 9413TIP3    H228204   1.399   2.176   3.823
 9414TIP3   OH228205   5.168   4.852   0.486
 9414TIP3    H128206   5.175   4.901   0.568
 9414TIP3    H228207   5.077   4.824   0.482
 9415TIP3   OH228208   5.277   1.305   2.959
 9415TIP3    H128209   5.244   1.395   2.957
 9415TIP3    H228210   5.203   1.253   2.992
 9416TIP3   OH228211   2.604   0.859   2.265
 9416TIP3    H128212   2.559   0.790   2.215
 9416TIP3    H228213   2.540   0.885   2.331
 9417TIP3   OH228214   3.043   0.143   3.387
 9417TIP3    H128215   3.114   0.157   3.325
 9417TIP3    H228216   3.084   0.152   3.473
 9418TIP3   OH228217   1.590   3.442   4.226
 9418TIP3    H128218   1.560   3.496   4.153
 9418TIP3    H228219   1.571   3.495   4.304
 9419TIP3   OH228220   3.785   4.681   3.319
 9419TIP3    H128221   3.832   4.599   3.334
 9419TIP3    H228222   3.725   4.661   3.248
 9420TIP3   OH228223   1.619   3.249   3.263
 9420TIP3    H128224   1.649   3.330   3.305
 9420TIP3    H228225   1.693   3.221   3.210
 9421TIP3   OH228226   0.792   0.507   3.780
 9421TIP3    H128227   0.845   0.469   3.850
 9421TIP3    H228228   0.828   0.594   3.766
 9422TIP3   OH228229   5.401   6.034  -0.002
 9422TIP3    H128230   5.409   5.947   0.036
 9422TIP3    H228231   5.308   6.041  -0.025
 9423TIP3   OH228232   3.584   4.039   0.877
 9423TIP3    H128233   3.623   3.978   0.814
 9423TIP3    H228234   3.498   4.061   0.839
 9424TIP3   OH228235   4.519   4.673   0.567
 9424TIP3    H128236   4.430   4.641   0.553
 9424TIP3    H228237   4.518   4.709   0.656
 9425TIP3   OH228238   2.449   5.758   0.318
 9425TIP3    H128239   2.538   5.784   0.343
 9425TIP3    H228240   2.458   5.667   0.291
 9426TIP3   OH228241   1.105   2.973   0.798
 9426TIP3    H128242   1.109   3.060   0.839
 9426TIP3    H228243   1.167   2.921   0.849
 9427TIP3   OH228244   6.354   6.173   2.562
 9427TIP3    H128245   6.323   6.166   2.653
 9427TIP3    H228246   6.321   6.094   2.520
 9428TIP3   OH228247   3.826   6.055   0.503
 9428TIP3    H128248   3.827   6.003   0.422
 9428TIP3    H228249   3.863   6.140   0.478
 9429TIP3   OH228250   0.486   3.637   2.387
 9429TIP3    H128251   0.569   3.649   2.341
 9429TIP3    H228252   0.419   3.640   2.318
 9430TIP3   OH228253   6.463   0.700   2.149
 9430TIP3    H128254   6.492   0.791   2.153
 9430TIP3    H228255   6.542   0.650   2.127
 9431TIP3   OH228256   5.808   5.931   4.246
 9431TIP3    H128257   5.733   5.957   4.299
 9431TIP3    H228258   5.860   6.010   4.238
 9432TIP3   OH228259   4.711   3.415   1.652
 9432TIP3    H128260   4.670   3.361   1.585
 9432TIP3    H228261   4.684   3.504   1.631
 9433TIP3   OH228262   1.284   6.185   5.339
 9433TIP3    H128263   1.366   6.135   5.343
 9433TIP3    H228264   1.263   6.189   5.246
 9434TIP3   OH228265   6.313   4.332   2.840
 9434TIP3    H128266   6.263   4.380   2.906
 9434TIP3    H228267   6.266   4.349   2.758
 9435TIP3   OH228268   1.216   1.583   5.505
 9435TIP3    H128269   1.253   1.658   5.552
 9435TIP3    H228270   1.122   1.600   5.501
 9436TIP3   OH228271   4.337   3.445   0.476
 9436TIP3    H128272   4.311   3.506   0.408
 9436TIP3    H228273   4.391   3.380   0.431
 9437TIP3   OH228274   3.067   5.419   3.023
 9437TIP3    H128275   2.994   5.358   3.017
 9437TIP3    H228276   3.026   5.504   3.039
 9438TIP3   OH228277   3.958   2.096   1.279
 9438TIP3    H128278   3.893   2.159   1.309
 9438TIP3    H228279   4.014   2.081   1.356
 9439TIP3   OH228280   6.864   2.168   2.228
 9439TIP3    H128281   6.877   2.262   2.220
 9439TIP3    H228282   6.864   2.150   2.322
 9440TIP3   OH228283   4.073   2.744   4.121
 9440TIP3    H128284   4.013   2.818   4.113
 9440TIP3    H228285   4.160   2.782   4.109
 9441TIP3   OH228286   4.649   4.207   2.070
 9441TIP3    H128287   4.736   4.246   2.063
 9441TIP3    H228288   4.607   4.253   2.143
 9442TIP3   OH228289   3.074   3.967   4.872
 9442TIP3    H128290   3.152   4.019   4.854
 9442TIP3    H228291   3.106   3.895   4.927
 9443TIP3   OH228292   3.558   5.628   0.749
 9443TIP3    H128293   3.549   5.601   0.658
 9443TIP3    H228294   3.495   5.700   0.759
 9444TIP3   OH228295   5.125   3.263   5.145
 9444TIP3    H128296   5.072   3.322   5.091
 9444TIP3    H228297   5.061   3.209   5.191
 9445TIP3   OH228298   1.303   3.914   4.376
 9445TIP3    H128299   1.262   3.828   4.370
 9445TIP3    H228300   1.370   3.913   4.308
 9446TIP3   OH228301   6.810   1.628   3.254
 9446TIP3    H128302   6.788   1.627   3.161
 9446TIP3    H228303   6.840   1.717   3.271
 9447TIP3   OH228304   6.620   5.820   3.123
 9447TIP3    H128305   6.676   5.773   3.061
 9447TIP3    H228306   6.669   5.900   3.144
 9448TIP3   OH228307   6.173   2.355   3.739
 9448TIP3    H128308   6.243   2.320   3.795
 9448TIP3    H228309   6.094   2.347   3.793
 9449TIP3   OH228310   5.195   2.021   4.910
 9449TIP3    H128311   5.278   2.053   4.875
 9449TIP3    H228312   5.189   2.061   4.997
 9450TIP3   OH228313   3.606   4.628   0.499
 9450TIP3    H128314   3.529   4.577   0.473
 9450TIP3    H228315   3.617   4.609   0.593
 9451TIP3   OH228316   6.963   6.524   2.691
 9451TIP3    H128317   6.980   6.575   2.611
 9451TIP3    H228318   6.947   6.590   2.758
 9452TIP3   OH228319   5.720   4.150   3.484
 9452TIP3    H128320   5.779   4.080   3.456
 9452TIP3    H228321   5.639   4.104   3.509
 9453TIP3   OH228322   6.428   3.325   1.736
 9453TIP3    H128323   6.397   3.329   1.646
 9453TIP3    H228324   6.364   3.270   1.782
 9454TIP3   OH228325   1.012   4.638   4.430
 9454TIP3    H128326   0.952   4.712   4.416
 9454TIP3    H228327   0.955   4.561   4.432
 9455TIP3   OH228328   5.731   1.826   4.774
 9455TIP3    H128329   5.712   1.785   4.859
 9455TIP3    H228330   5.827   1.820   4.766
 9456TIP3   OH228331   5.936   6.607   3.750
 9456TIP3    H128332   5.950   6.540   3.817
 9456TIP3    H228333   5.982   6.684   3.784
 9457TIP3   OH228334   0.478   2.625   3.935
 9457TIP3    H128335   0.398   2.664   3.899
 9457TIP3    H228336   0.546   2.689   3.915
 9458TIP3   OH228337   1.493   4.560   4.180
 9458TIP3    H128338   1.438   4.630   4.216
 9458TIP3    H228339   1.572   4.562   4.234
 9459TIP3   OH228340   5.911   5.168   3.654
 9459TIP3    H128341   5.894   5.190   3.562
 9459TIP3    H228342   5.832   5.121   3.682
 9460TIP3   OH228343   4.582   3.802   3.609
 9460TIP3    H128344   4.515   3.868   3.626
 9460TIP3    H228345   4.616   3.779   3.696
 9461TIP3   OH228346   0.552   0.935   1.679
 9461TIP3    H128347   0.491   0.876   1.722
 9461TIP3    H228348   0.511   1.021   1.686
 9462TIP3   OH228349   1.956   3.173   0.412
 9462TIP3    H128350   1.890   3.225   0.366
 9462TIP3    H228351   2.022   3.152   0.345
 9463TIP3   OH228352   0.384   3.557   4.464
 9463TIP3    H128353   0.295   3.547   4.497
 9463TIP3    H228354   0.438   3.563   4.543
 9464TIP3   OH228355   3.145   0.930   5.581
 9464TIP3    H128356   3.074   0.892   5.530
 9464TIP3    H228357   3.201   0.973   5.516
 9465TIP3   OH228358   7.001   1.865   2.390
 9465TIP3    H128359   7.030   1.956   2.401
 9465TIP3    H228360   6.986   1.834   2.480
 9466TIP3   OH228361   0.951   4.725   3.460
 9466TIP3    H128362   0.952   4.747   3.553
 9466TIP3    H228363   1.003   4.794   3.419
 9467TIP3   OH228364   5.220   4.126   4.773
 9467TIP3    H128365   5.184   4.204   4.731
 9467TIP3    H228366   5.290   4.097   4.713
 9468TIP3   OH228367   0.257   6.697   5.135
 9468TIP3    H128368   0.293   6.772   5.088
 9468TIP3    H228369   0.207   6.649   5.070
 9469TIP3   OH228370   0.845   2.957   3.937
 9469TIP3    H128371   0.819   2.901   3.864
 9469TIP3    H228372   0.785   3.031   3.935
 9470TIP3   OH228373   5.139   3.959   0.672
 9470TIP3    H128374   5.116   4.024   0.738
 9470TIP3    H228375   5.164   4.011   0.595
 9471TIP3   OH228376   1.920   5.474   1.454
 9471TIP3    H128377   1.956   5.562   1.441
 9471TIP3    H228378   1.929   5.432   1.369
 9472TIP3   OH228379   4.702   5.588   0.644
 9472TIP3    H128380   4.610   5.606   0.625
 9472TIP3    H228381   4.750   5.624   0.569
 9473TIP3   OH228382   1.262   2.869   2.444
 9473TIP3    H128383   1.273   2.775   2.431
 9473TIP3    H228384   1.227   2.877   2.533
 9474TIP3   OH228385   6.994   4.774   1.053
 9474TIP3    H128386   7.070   4.801   1.001
 9474TIP3    H228387   7.014   4.803   1.142
 9475TIP3   OH228388   0.160   1.242   4.946
 9475TIP3    H128389   0.119   1.303   4.884
 9475TIP3    H228390   0.088   1.188   4.978
 9476TIP3   OH228391   2.798   6.110   1.274
 9476TIP3    H128392   2.742   6.123   1.197
 9476TIP3    H228393   2.799   6.194   1.318
 9477TIP3   OH228394   4.699   3.969   2.551
 9477TIP3    H128395   4.653   3.943   2.631
 9477TIP3    H228396   4.637   3.951   2.480
 9478TIP3   OH228397   5.824  -0.037   4.618
 9478TIP3    H128398   5.771  -0.022   4.696
 9478TIP3    H228399   5.909  -0.065   4.652
 9479TIP3   OH228400   2.281   5.541   1.079
 9479TIP3    H128401   2.199   5.587   1.101
 9479TIP3    H228402   2.285   5.469   1.142
 9480TIP3   OH228403   0.211   5.051   0.906
 9480TIP3    H128404   0.142   5.116   0.922
 9480TIP3    H228405   0.285   5.102   0.872
 9481TIP3   OH228406   5.835   2.625   0.694
 9481TIP3    H128407   5.840   2.651   0.602
 9481TIP3    H228408   5.743   2.639   0.718
 9482TIP3   OH228409   6.183   2.507   5.646
 9482TIP3    H128410   6.259   2.518   5.703
 9482TIP3    H228411   6.180   2.588   5.595
 9483TIP3   OH228412   5.282   0.387   4.866
 9483TIP3    H128413   5.270   0.400   4.960
 9483TIP3    H228414   5.265   0.473   4.828
 9484TIP3   OH228415   5.972   1.621   1.331
 9484TIP3    H128416   5.887   1.650   1.298
 9484TIP3    H228417   6.014   1.578   1.256
 9485TIP3   OH228418   0.554   3.000   1.770
 9485TIP3    H128419   0.472   3.049   1.760
 9485TIP3    H228420   0.612   3.036   1.703
 9486TIP3   OH228421   3.657   0.968   0.313
 9486TIP3    H128422   3.669   1.032   0.383
 9486TIP3    H228423   3.603   0.900   0.351
 9487TIP3   OH228424   0.858   6.570   4.414
 9487TIP3    H128425   0.902   6.649   4.384
 9487TIP3    H228426   0.923   6.525   4.467
 9488TIP3   OH228427   3.268   1.375   1.495
 9488TIP3    H128428   3.254   1.466   1.469
 9488TIP3    H228429   3.304   1.381   1.584
 9489TIP3   OH228430   6.450   0.721   5.245
 9489TIP3    H128431   6.385   0.731   5.314
 9489TIP3    H228432   6.494   0.806   5.240
 9490TIP3   OH228433   4.551   3.805   2.370
 9490TIP3    H128434   4.612   3.731   2.375
 9490TIP3    H228435   4.476   3.772   2.321
 9491TIP3   OH228436   0.865   6.565   5.177
 9491TIP3    H128437   0.909   6.513   5.110
 9491TIP3    H228438   0.772   6.549   5.162
 9492TIP3   OH228439   6.021   0.888   3.827
 9492TIP3    H128440   6.104   0.857   3.862
 9492TIP3    H228441   5.956   0.826   3.861
 9493TIP3   OH228442   1.040   1.403   1.688
 9493TIP3    H128443   0.958   1.411   1.640
 9493TIP3    H228444   1.062   1.493   1.713
 9494TIP3   OH228445   1.979   2.153   3.553
 9494TIP3    H128446   2.050   2.177   3.611
 9494TIP3    H228447   1.998   2.063   3.526
 9495TIP3   OH228448   3.570   1.230   1.585
 9495TIP3    H128449   3.502   1.280   1.540
 9495TIP3    H228450   3.639   1.295   1.601
 9496TIP3   OH228451   5.612   3.309   0.800
 9496TIP3    H128452   5.674   3.272   0.737
 9496TIP3    H228453   5.580   3.388   0.758
 9497TIP3   OH228454   4.810   6.009   4.988
 9497TIP3    H128455   4.743   6.077   4.993
 9497TIP3    H228456   4.885   6.046   5.035
 9498TIP3   OH228457   2.876   1.423   3.678
 9498TIP3    H128458   2.850   1.489   3.743
 9498TIP3    H228459   2.809   1.429   3.609
 9499TIP3   OH228460   3.760   0.776   3.725
 9499TIP3    H128461   3.734   0.868   3.735
 9499TIP3    H228462   3.721   0.731   3.800
 9500TIP3   OH228463   5.618   0.663   0.448
 9500TIP3    H128464   5.672   0.668   0.369
 9500TIP3    H228465   5.560   0.589   0.433
 9501TIP3   OH228466   4.533   4.348   1.267
 9501TIP3    H128467   4.445   4.311   1.263
 9501TIP3    H228468   4.526   4.432   1.221
 9502TIP3   OH228469   6.260   2.946   1.527
 9502TIP3    H128470   6.309   2.909   1.600
 9502TIP3    H228471   6.291   3.036   1.520
 9503TIP3   OH228472   1.412   3.297   4.035
 9503TIP3    H128473   1.427   3.357   4.108
 9503TIP3    H228474   1.418   3.210   4.074
 9504TIP3   OH228475   3.590   6.278   5.277
 9504TIP3    H128476   3.530   6.220   5.229
 9504TIP3    H228477   3.648   6.313   5.211
 9505TIP3   OH228478   2.338   4.879   0.853
 9505TIP3    H128479   2.339   4.791   0.893
 9505TIP3    H228480   2.339   4.939   0.928
 9506TIP3   OH228481   4.237   5.478   0.592
 9506TIP3    H128482   4.279   5.495   0.507
 9506TIP3    H228483   4.224   5.384   0.594
 9507TIP3   OH228484   2.407   4.152   5.025
 9507TIP3    H128485   2.325   4.105   5.040
 9507TIP3    H228486   2.443   4.168   5.112
 9508TIP3   OH228487   6.427   5.218   1.115
 9508TIP3    H128488   6.386   5.167   1.045
 9508TIP3    H228489   6.399   5.174   1.196
 9509TIP3   OH228490   2.704   1.335   0.678
 9509TIP3    H128491   2.766   1.308   0.610
 9509TIP3    H228492   2.676   1.423   0.651
 9510TIP3   OH228493   7.030   5.487   5.158
 9510TIP3    H128494   6.944   5.507   5.194
 9510TIP3    H228495   7.034   5.536   5.076
 9511TIP3   OH228496   1.653   5.294   1.983
 9511TIP3    H128497   1.645   5.380   2.024
 9511TIP3    H228498   1.668   5.234   2.056
 9512TIP3   OH228499   6.876   1.460   5.657
 9512TIP3    H128500   6.935   1.500   5.721
 9512TIP3    H228501   6.838   1.534   5.609
 9513TIP3   OH228502   4.424   2.105   0.499
 9513TIP3    H128503   4.372   2.084   0.577
 9513TIP3    H228504   4.468   2.187   0.521
 9514TIP3   OH228505   1.128   3.072   3.394
 9514TIP3    H128506   1.083   3.051   3.312
 9514TIP3    H228507   1.184   3.147   3.372
 9515TIP3   OH228508   4.516   2.182   1.928
 9515TIP3    H128509   4.606   2.214   1.933
 9515TIP3    H228510   4.496   2.152   2.017
 9516TIP3   OH228511   3.048   1.310   2.691
 9516TIP3    H128512   3.122   1.333   2.635
 9516TIP3    H228513   3.086   1.303   2.779
 9517TIP3   OH228514   2.046   3.623   2.612
 9517TIP3    H128515   2.134   3.633   2.576
 9517TIP3    H228516   2.018   3.536   2.584
 9518TIP3   OH228517   2.216   1.097   3.626
 9518TIP3    H128518   2.243   1.189   3.626
 9518TIP3    H228519   2.163   1.087   3.547
 9519TIP3   OH228520   2.795   0.618   0.615
 9519TIP3    H128521   2.746   0.643   0.692
 9519TIP3    H228522   2.803   0.698   0.563
 9520TIP3   OH228523   6.422   0.017   2.917
 9520TIP3    H128524   6.340   0.064   2.906
 9520TIP3    H228525   6.397  -0.067   2.955
 9521TIP3   OH228526   6.954   4.609   5.201
 9521TIP3    H128527   6.926   4.656   5.122
 9521TIP3    H228528   7.019   4.546   5.169
 9522TIP3   OH228529   0.896   1.912   5.358
 9522TIP3    H128530   0.980   1.949   5.334
 9522TIP3    H228531   0.864   1.869   5.278
 9523TIP3   OH228532   2.482   0.671   2.090
 9523TIP3    H128533   2.406   0.622   2.121
 9523TIP3    H228534   2.495   0.641   2.000
 9524TIP3   OH228535   1.937   5.175   1.329
 9524TIP3    H128536   1.957   5.091   1.287
 9524TIP3    H228537   2.019   5.200   1.372
 9525TIP3   OH228538   0.364   1.014   1.031
 9525TIP3    H128539   0.300   1.084   1.024
 9525TIP3    H228540   0.343   0.971   1.114
 9526TIP3   OH228541   3.138   4.027   3.120
 9526TIP3    H128542   3.110   4.087   3.050
 9526TIP3    H228543   3.161   4.085   3.193
 9527TIP3   OH228544   0.422   5.544   0.041
 9527TIP3    H128545   0.423   5.500  -0.044
 9527TIP3    H228546   0.342   5.511   0.083
 9528TIP3   OH228547   1.849   0.354   0.051
 9528TIP3    H128548   1.818   0.348   0.141
 9528TIP3    H228549   1.795   0.423   0.012
 9529TIP3   OH228550   0.214   0.959   2.019
 9529TIP3    H128551   0.305   0.962   2.048
 9529TIP3    H228552   0.186   1.050   2.018
 9530TIP3   OH228553   4.092   3.285   3.007
 9530TIP3    H128554   4.112   3.204   3.054
 9530TIP3    H228555   4.016   3.264   2.953
 9531TIP3   OH228556   2.714   5.310   2.794
 9531TIP3    H128557   2.756   5.389   2.762
 9531TIP3    H228558   2.775   5.275   2.859
 9532TIP3   OH228559   2.889   5.123   1.289
 9532TIP3    H128560   2.984   5.127   1.306
 9532TIP3    H228561   2.882   5.106   1.196
 9533TIP3   OH228562   4.660   2.221   0.028
 9533TIP3    H128563   4.568   2.229   0.004
 9533TIP3    H228564   4.668   2.132   0.062
 9534TIP3   OH228565   4.727   1.080   5.726
 9534TIP3    H128566   4.648   1.067   5.779
 9534TIP3    H228567   4.695   1.085   5.636
 9535TIP3   OH228568   1.728   3.503   3.101
 9535TIP3    H128569   1.684   3.460   3.028
 9535TIP3    H228570   1.800   3.444   3.124
 9536TIP3   OH228571   2.250   0.052   5.311
 9536TIP3    H128572   2.323   0.010   5.265
 9536TIP3    H228573   2.194  -0.020   5.339
 9537TIP3   OH228574   2.637   5.925   1.755
 9537TIP3    H128575   2.548   5.957   1.769
 9537TIP3    H228576   2.639   5.839   1.798
 9538TIP3   OH228577   3.540   6.167   1.821
 9538TIP3    H128578   3.566   6.077   1.845
 9538TIP3    H228579   3.526   6.163   1.726
 9539TIP3   OH228580   4.982   0.049   0.222
 9539TIP3    H128581   4.902   0.032   0.172
 9539TIP3    H228582   4.954   0.043   0.314
 9540TIP3   OH228583   2.056   2.726   2.108
 9540TIP3    H128584   1.964   2.754   2.099
 9540TIP3    H228585   2.081   2.700   2.020
 9541TIP3   OH228586   6.695   5.233   5.230
 9541TIP3    H128587   6.638   5.159   5.249
 9541TIP3    H228588   6.668   5.301   5.291
 9542TIP3   OH228589   4.458   4.626   3.157
 9542TIP3    H128590   4.527   4.569   3.123
 9542TIP3    H228591   4.385   4.615   3.096
 9543TIP3   OH228592   2.165   4.650   3.823
 9543TIP3    H128593   2.133   4.663   3.734
 9543TIP3    H228594   2.087   4.626   3.874
 9544TIP3   OH228595   0.674   0.559   0.143
 9544TIP3    H128596   0.689   0.525   0.054
 9544TIP3    H228597   0.591   0.605   0.137
 9545TIP3   OH228598   2.739   2.035   4.846
 9545TIP3    H128599   2.672   1.977   4.880
 9545TIP3    H228600   2.691   2.101   4.796
 9546TIP3   OH228601   3.496   6.722   2.208
 9546TIP3    H128602   3.524   6.724   2.300
 9546TIP3    H228603   3.528   6.637   2.176
 9547TIP3   OH228604   0.657   2.143   1.398
 9547TIP3    H128605   0.640   2.056   1.362
 9547TIP3    H228606   0.705   2.189   1.329
 9548TIP3   OH228607   4.453   0.948   0.620
 9548TIP3    H128608   4.530   1.004   0.609
 9548TIP3    H228609   4.419   0.937   0.531
 9549TIP3   OH228610   0.872   5.076   0.609
 9549TIP3    H128611   0.828   4.992   0.622
 9549TIP3    H228612   0.855   5.125   0.689
 9550TIP3   OH228613   7.105   6.290   2.644
 9550TIP3    H128614   7.033   6.236   2.676
 9550TIP3    H228615   7.072   6.379   2.647
 9551TIP3   OH228616   6.874   0.951   5.789
 9551TIP3    H128617   6.853   1.045   5.789
 9551TIP3    H228618   6.955   0.945   5.738
 9552TIP3   OH228619   1.878   1.181   3.894
 9552TIP3    H128620   1.968   1.167   3.864
 9552TIP3    H228621   1.859   1.272   3.872
 9553TIP3   OH228622   6.074   0.453   2.673
 9553TIP3    H128623   6.023   0.533   2.690
 9553TIP3    H228624   6.134   0.477   2.603
 9554TIP3   OH228625   6.109   1.882   0.453
 9554TIP3    H128626   6.182   1.819   0.458
 9554TIP3    H228627   6.132   1.938   0.379
 9555TIP3   OH228628   1.134   5.844   0.067
 9555TIP3    H128629   1.148   5.904   0.140
 9555TIP3    H228630   1.105   5.762   0.108
 9556TIP3   OH228631   4.346   2.572   5.323
 9556TIP3    H128632   4.298   2.645   5.283
 9556TIP3    H228633   4.306   2.494   5.285
 9557TIP3   OH228634   6.699   6.263   2.256
 9557TIP3    H128635   6.733   6.291   2.170
 9557TIP3    H228636   6.607   6.286   2.253
 9558TIP3   OH228637   1.654   3.284   1.491
 9558TIP3    H128638   1.635   3.365   1.539
 9558TIP3    H228639   1.638   3.308   1.399
 9559TIP3   OH228640   3.451   6.095   3.541
 9559TIP3    H128641   3.444   6.186   3.569
 9559TIP3    H228642   3.361   6.062   3.545
 9560TIP3   OH228643   5.373   0.617   1.741
 9560TIP3    H128644   5.321   0.694   1.718
 9560TIP3    H228645   5.427   0.601   1.663
 9561TIP3   OH228646   0.602   4.911   2.251
 9561TIP3    H128647   0.679   4.862   2.281
 9561TIP3    H228648   0.590   4.884   2.160
 9562TIP3   OH228649   4.214   2.587   3.538
 9562TIP3    H128650   4.273   2.558   3.608
 9562TIP3    H228651   4.126   2.570   3.572
 9563TIP3   OH228652   0.247   5.239   2.884
 9563TIP3    H128653   0.260   5.235   2.789
 9563TIP3    H228654   0.172   5.298   2.895
 9564TIP3   OH228655   4.147   5.206   5.185
 9564TIP3    H128656   4.146   5.289   5.138
 9564TIP3    H228657   4.063   5.204   5.231
 9565TIP3   OH228658   7.221   6.102   0.221
 9565TIP3    H128659   7.169   6.099   0.302
 9565TIP3    H228660   7.162   6.140   0.156
 9566TIP3   OH228661   2.504   3.219   5.620
 9566TIP3    H128662   2.446   3.262   5.557
 9566TIP3    H228663   2.587   3.268   5.614
 9567TIP3   OH228664   4.301   6.560   4.638
 9567TIP3    H128665   4.304   6.466   4.656
 9567TIP3    H228666   4.295   6.601   4.725
 9568TIP3   OH228667   3.241   5.035   0.897
 9568TIP3    H128668   3.255   4.957   0.950
 9568TIP3    H228669   3.227   5.002   0.808
 9569TIP3   OH228670   2.881   6.609   3.643
 9569TIP3    H128671   2.947   6.657   3.693
 9569TIP3    H228672   2.834   6.557   3.709
 9570TIP3   OH228673   5.971   2.617   2.898
 9570TIP3    H128674   6.003   2.594   2.985
 9570TIP3    H228675   5.889   2.569   2.889
 9571TIP3   OH228676   6.262   4.415   2.301
 9571TIP3    H128677   6.279   4.446   2.212
 9571TIP3    H228678   6.341   4.440   2.351
 9572TIP3   OH228679   2.397   3.441   0.895
 9572TIP3    H128680   2.331   3.401   0.839
 9572TIP3    H228681   2.383   3.535   0.885
 9573TIP3   OH228682   1.908   2.225   1.588
 9573TIP3    H128683   1.958   2.306   1.595
 9573TIP3    H228684   1.849   2.227   1.664
 9574TIP3   OH228685   5.752   5.470   2.092
 9574TIP3    H128686   5.705   5.538   2.140
 9574TIP3    H228687   5.719   5.387   2.128
 9575TIP3   OH228688   6.915   1.376   4.057
 9575TIP3    H128689   6.990   1.374   4.116
 9575TIP3    H228690   6.946   1.425   3.980
 9576TIP3   OH228691   0.778   1.112   4.093
 9576TIP3    H128692   0.721   1.188   4.105
 9576TIP3    H228693   0.865   1.148   4.081
 9577TIP3   OH228694   3.618   5.449   2.340
 9577TIP3    H128695   3.531   5.430   2.374
 9577TIP3    H228696   3.676   5.445   2.416
 9578TIP3   OH228697   1.159   6.178   1.889
 9578TIP3    H128698   1.082   6.121   1.888
 9578TIP3    H228699   1.227   6.126   1.847
 9579TIP3   OH228700   7.209   5.329   3.202
 9579TIP3    H128701   7.188   5.394   3.269
 9579TIP3    H228702   7.215   5.247   3.250
 9580TIP3   OH228703   2.144   3.679   1.933
 9580TIP3    H128704   2.230   3.653   1.969
 9580TIP3    H228705   2.155   3.672   1.839
 9581TIP3   OH228706   2.480   3.246   3.724
 9581TIP3    H128707   2.514   3.180   3.664
 9581TIP3    H228708   2.395   3.270   3.688
 9582TIP3   OH228709   4.033   0.232   4.432
 9582TIP3    H128710   3.955   0.286   4.423
 9582TIP3    H228711   4.032   0.203   4.523
 9583TIP3   OH228712   2.323   2.061   5.489
 9583TIP3    H128713   2.330   2.037   5.581
 9583TIP3    H228714   2.234   2.096   5.480
 9584TIP3   OH228715   5.578   6.073   4.933
 9584TIP3    H128716   5.546   6.053   4.845
 9584TIP3    H228717   5.518   6.027   4.991
 9585TIP3   OH228718   3.421   2.032   2.210
 9585TIP3    H128719   3.480   2.025   2.135
 9585TIP3    H228720   3.398   2.125   2.213
 9586TIP3   OH228721   5.336   3.778   2.379
 9586TIP3    H128722   5.429   3.799   2.370
 9586TIP3    H228723   5.333   3.708   2.443
 9587TIP3   OH228724   4.535   2.431   0.364
 9587TIP3    H128725   4.578   2.358   0.408
 9587TIP3    H228726   4.537   2.408   0.271
 9588TIP3   OH228727   5.796   6.305   2.892
 9588TIP3    H128728   5.849   6.343   2.963
 9588TIP3    H228729   5.713   6.353   2.895
 9589TIP3   OH228730   3.327   2.241   3.207
 9589TIP3    H128731   3.391   2.305   3.238
 9589TIP3    H228732   3.319   2.179   3.279
 9590TIP3   OH228733   6.765   0.698   4.222
 9590TIP3    H128734   6.716   0.775   4.193
 9590TIP3    H228735   6.741   0.630   4.159
 9591TIP3   OH228736   0.451   5.218   0.291
 9591TIP3    H128737   0.420   5.135   0.253
 9591TIP3    H228738   0.531   5.195   0.338
 9592TIP3   OH228739   3.596   1.645   3.599
 9592TIP3    H128740   3.642   1.646   3.515
 9592TIP3    H228741   3.508   1.677   3.579
 9593TIP3   OH228742   5.842   0.568   3.395
 9593TIP3    H128743   5.821   0.661   3.402
 9593TIP3    H228744   5.928   0.566   3.354
 9594TIP3   OH228745   3.005   1.664   4.988
 9594TIP3    H128746   3.020   1.750   4.950
 9594TIP3    H228747   3.035   1.673   5.079
 9595TIP3   OH228748   3.854   3.633   1.538
 9595TIP3    H128749   3.849   3.539   1.522
 9595TIP3    H228750   3.943   3.647   1.571
 9596TIP3   OH228751   5.593   4.426   1.524
 9596TIP3    H128752   5.658   4.413   1.454
 9596TIP3    H228753   5.644   4.420   1.605
 9597TIP3   OH228754   4.049   5.789   5.234
 9597TIP3    H128755   3.968   5.739   5.247
 9597TIP3    H228756   4.119   5.728   5.257
 9598TIP3   OH228757   1.697   0.552   5.313
 9598TIP3    H128758   1.762   0.510   5.369
 9598TIP3    H228759   1.619   0.558   5.368
 9599TIP3   OH228760   0.271   4.870   3.332
 9599TIP3    H128761   0.364   4.889   3.341
 9599TIP3    H228762   0.234   4.949   3.293
 9600TIP3   OH228763   1.911   5.449   0.681
 9600TIP3    H128764   1.866   5.436   0.597
 9600TIP3    H228765   1.849   5.417   0.746
 9601TIP3   OH228766   4.401   2.651   2.862
 9601TIP3    H128767   4.408   2.589   2.934
 9601TIP3    H228768   4.468   2.623   2.799
 9602TIP3   OH228769   3.022   4.587   2.772
 9602TIP3    H128770   3.085   4.575   2.842
 9602TIP3    H228771   3.068   4.559   2.693
 9603TIP3   OH228772   6.818   4.723   5.869
 9603TIP3    H128773   6.804   4.746   5.961
 9603TIP3    H228774   6.913   4.732   5.857
 9604TIP3   OH228775   5.660   1.872   4.349
 9604TIP3    H128776   5.600   1.801   4.327
 9604TIP3    H228777   5.650   1.884   4.444
 9605TIP3   OH228778   1.783   6.547   3.439
 9605TIP3    H128779   1.767   6.453   3.449
 9605TIP3    H228780   1.695   6.586   3.431
 9606TIP3   OH228781   0.367   3.077   4.788
 9606TIP3    H128782   0.295   3.136   4.811
 9606TIP3    H228783   0.421   3.074   4.867
 9607TIP3   OH228784   3.976   6.290   0.446
 9607TIP3    H128785   4.022   6.342   0.381
 9607TIP3    H228786   4.006   6.324   0.530
 9608TIP3   OH228787   2.782   4.605   3.950
 9608TIP3    H128788   2.751   4.678   4.004
 9608TIP3    H228789   2.757   4.526   3.998
 9609TIP3   OH228790   6.447   3.786   5.677
 9609TIP3    H128791   6.499   3.742   5.610
 9609TIP3    H228792   6.394   3.849   5.628
 9610TIP3   OH228793   0.816   6.386   1.592
 9610TIP3    H128794   0.865   6.343   1.522
 9610TIP3    H228795   0.724   6.367   1.572
 9611TIP3   OH228796   3.694   2.814   0.483
 9611TIP3    H128797   3.765   2.785   0.425
 9611TIP3    H228798   3.614   2.800   0.432
 9612TIP3   OH228799   4.017   2.649   3.851
 9612TIP3    H128800   3.962   2.726   3.866
 9612TIP3    H228801   4.023   2.607   3.937
 9613TIP3   OH228802   4.469   1.106   1.233
 9613TIP3    H128803   4.383   1.075   1.206
 9613TIP3    H228804   4.494   1.048   1.304
 9614TIP3   OH228805   4.063   1.814   5.800
 9614TIP3    H128806   4.090   1.873   5.871
 9614TIP3    H228807   4.145   1.784   5.762
 9615TIP3   OH228808   6.696   5.048   3.186
 9615TIP3    H128809   6.738   5.115   3.133
 9615TIP3    H228810   6.613   5.031   3.142
 9616TIP3   OH228811   1.132   0.342   1.174
 9616TIP3    H128812   1.050   0.344   1.125
 9616TIP3    H228813   1.174   0.426   1.154
 9617TIP3   OH228814   1.314   4.842   2.746
 9617TIP3    H128815   1.222   4.869   2.758
 9617TIP3    H228816   1.313   4.785   2.669
 9618TIP3   OH228817   5.872   0.447   0.020
 9618TIP3    H128818   5.891   0.476   0.110
 9618TIP3    H228819   5.799   0.502  -0.008
 9619TIP3   OH228820   1.318   5.323   3.414
 9619TIP3    H128821   1.264   5.330   3.335
 9619TIP3    H228822   1.370   5.244   3.401
 9620TIP3   OH228823   6.459   6.058   5.852
 9620TIP3    H128824   6.470   6.153   5.857
 9620TIP3    H228825   6.433   6.041   5.762
 9621TIP3   OH228826   6.058   4.033   2.975
 9621TIP3    H128827   6.075   3.967   3.042
 9621TIP3    H228828   6.014   4.104   3.022
 9622TIP3   OH228829   6.106   0.058   3.685
 9622TIP3    H128830   6.017   0.022   3.683
 9622TIP3    H228831   6.116   0.090   3.775
 9623TIP3   OH228832   6.517   4.020   3.271
 9623TIP3    H128833   6.439   4.015   3.216
 9623TIP3    H228834   6.575   3.952   3.236
 9624TIP3   OH228835   6.179   5.633   1.338
 9624TIP3    H128836   6.186   5.620   1.244
 9624TIP3    H228837   6.270   5.636   1.368
 9625TIP3   OH228838   1.978   1.378   4.797
 9625TIP3    H128839   1.980   1.376   4.701
 9625TIP3    H228840   2.066   1.405   4.822
 9626TIP3   OH228841   6.357   3.328   4.232
 9626TIP3    H128842   6.286   3.368   4.182
 9626TIP3    H228843   6.414   3.289   4.166
 9627TIP3   OH228844   0.553   6.378   3.560
 9627TIP3    H128845   0.589   6.466   3.565
 9627TIP3    H228846   0.611   6.331   3.499
 9628TIP3   OH228847   1.197   4.267   4.120
 9628TIP3    H128848   1.159   4.343   4.164
 9628TIP3    H228849   1.282   4.298   4.088
 9629TIP3   OH228850   6.429   0.370   0.396
 9629TIP3    H128851   6.418   0.409   0.483
 9629TIP3    H228852   6.398   0.280   0.405
 9630TIP3   OH228853   4.707   6.280   3.825
 9630TIP3    H128854   4.753   6.241   3.900
 9630TIP3    H228855   4.755   6.361   3.807
 9631TIP3   OH228856   0.810   5.576   1.145
 9631TIP3    H128857   0.896   5.602   1.181
 9631TIP3    H228858   0.778   5.655   1.103
 9632TIP3   OH228859   5.702   0.369   1.082
 9632TIP3    H128860   5.769   0.437   1.086
 9632TIP3    H228861   5.731   0.303   1.146
 9633TIP3   OH228862   2.556   3.052   0.688
 9633TIP3    H128863   2.480   3.026   0.637
 9633TIP3    H228864   2.598   3.120   0.636
 9634TIP3   OH228865   3.861   1.370   1.435
 9634TIP3    H128866   3.819   1.424   1.368
 9634TIP3    H228867   3.896   1.294   1.387
 9635TIP3   OH228868   3.075   2.868   3.666
 9635TIP3    H128869   3.085   2.774   3.675
 9635TIP3    H228870   3.029   2.880   3.583
 9636TIP3   OH228871   3.849   5.510   2.018
 9636TIP3    H128872   3.790   5.435   2.014
 9636TIP3    H228873   3.907   5.491   2.091
 9637TIP3   OH228874   0.979   3.481   5.055
 9637TIP3    H128875   1.061   3.523   5.027
 9637TIP3    H228876   0.915   3.551   5.055
 9638TIP3   OH228877   1.944   1.661   1.108
 9638TIP3    H128878   1.913   1.632   1.193
 9638TIP3    H228879   2.040   1.659   1.115
 9639TIP3   OH228880   2.987   0.363   1.616
 9639TIP3    H128881   2.953   0.425   1.552
 9639TIP3    H228882   2.973   0.277   1.577
 9640TIP3   OH228883   0.496   2.305   4.870
 9640TIP3    H128884   0.415   2.340   4.906
 9640TIP3    H228885   0.556   2.301   4.945
 9641TIP3   OH228886   4.835   6.694   4.062
 9641TIP3    H128887   4.846   6.741   3.980
 9641TIP3    H228888   4.919   6.648   4.075
 9642TIP3   OH228889   5.643   6.540   5.664
 9642TIP3    H128890   5.641   6.583   5.578
 9642TIP3    H228891   5.710   6.472   5.655
 9643TIP3   OH228892   6.032   3.152   0.929
 9643TIP3    H128893   5.959   3.194   0.883
 9643TIP3    H228894   6.019   3.058   0.914
 9644TIP3   OH228895   3.533   6.462   0.740
 9644TIP3    H128896   3.620   6.446   0.777
 9644TIP3    H228897   3.543   6.542   0.689
 9645TIP3   OH228898   3.220   2.406   0.277
 9645TIP3    H128899   3.229   2.420   0.183
 9645TIP3    H228900   3.128   2.384   0.290
 9646TIP3   OH228901   3.313   5.753   4.135
 9646TIP3    H128902   3.253   5.770   4.208
 9646TIP3    H228903   3.266   5.691   4.079
 9647TIP3   OH228904   4.265   2.278   4.479
 9647TIP3    H128905   4.212   2.201   4.497
 9647TIP3    H228906   4.354   2.254   4.505
 9648TIP3   OH228907   0.038   2.670   4.818
 9648TIP3    H128908   0.097   2.715   4.878
 9648TIP3    H228909   0.010   2.737   4.756
 9649TIP3   OH228910   5.956   2.268   5.156
 9649TIP3    H128911   5.915   2.194   5.113
 9649TIP3    H228912   6.050   2.256   5.141
 9650TIP3   OH228913   2.060   4.497   2.573
 9650TIP3    H128914   1.996   4.477   2.506
 9650TIP3    H228915   2.143   4.464   2.538
 9651TIP3   OH228916   3.352   4.261   1.600
 9651TIP3    H128917   3.376   4.176   1.636
 9651TIP3    H228918   3.265   4.248   1.564
 9652TIP3   OH228919   3.344   2.455   0.803
 9652TIP3    H128920   3.329   2.549   0.819
 9652TIP3    H228921   3.314   2.442   0.713
 9653TIP3   OH228922   1.945   2.543   1.390
 9653TIP3    H128923   1.923   2.630   1.357
 9653TIP3    H228924   2.034   2.527   1.358
 9654TIP3   OH228925   5.739   6.711   1.905
 9654TIP3    H128926   5.666   6.768   1.931
 9654TIP3    H228927   5.738   6.713   1.810
 9655TIP3   OH228928   3.692   2.554   3.443
 9655TIP3    H128929   3.782   2.543   3.475
 9655TIP3    H228930   3.670   2.645   3.467
 9656TIP3   OH228931   1.888   1.013   3.177
 9656TIP3    H128932   1.822   1.057   3.229
 9656TIP3    H228933   1.914   1.077   3.111
 9657TIP3   OH228934   2.602   5.944   3.651
 9657TIP3    H128935   2.675   5.883   3.665
 9657TIP3    H228936   2.567   5.958   3.739
 9658TIP3   OH228937   0.200   4.967   4.031
 9658TIP3    H128938   0.113   4.939   4.061
 9658TIP3    H228939   0.261   4.914   4.082
 9659TIP3   OH228940   1.266   6.578   3.246
 9659TIP3    H128941   1.179   6.561   3.210
 9659TIP3    H228942   1.287   6.666   3.214
 9660TIP3   OH228943   5.145   3.562   0.504
 9660TIP3    H128944   5.239   3.568   0.492
 9660TIP3    H228945   5.110   3.642   0.463
 9661TIP3   OH228946   6.145   2.239   4.250
 9661TIP3    H128947   6.168   2.322   4.208
 9661TIP3    H228948   6.225   2.212   4.295
 9662TIP3   OH228949   2.590   0.566   0.324
 9662TIP3    H128950   2.674   0.603   0.353
 9662TIP3    H228951   2.567   0.618   0.247
 9663TIP3   OH228952   6.919   1.216  -0.015
 9663TIP3    H128953   7.009   1.185  -0.008
 9663TIP3    H228954   6.895   1.242   0.074
 9664TIP3   OH228955   6.068   2.613   0.847
 9664TIP3    H128956   5.992   2.611   0.789
 9664TIP3    H228957   6.143   2.603   0.788
 9665TIP3   OH228958   3.520   2.694   0.992
 9665TIP3    H128959   3.504   2.685   0.898
 9665TIP3    H228960   3.466   2.627   1.032
 9666TIP3   OH228961   4.742   4.981   3.400
 9666TIP3    H128962   4.756   4.906   3.344
 9666TIP3    H228963   4.689   5.041   3.347
 9667TIP3   OH228964   5.447   5.244   2.974
 9667TIP3    H128965   5.440   5.319   3.032
 9667TIP3    H228966   5.358   5.211   2.965
 9668TIP3   OH228967   2.287   6.269   2.071
 9668TIP3    H128968   2.282   6.223   2.155
 9668TIP3    H228969   2.341   6.346   2.089
 9669TIP3   OH228970   2.040   5.851   4.736
 9669TIP3    H128971   2.024   5.898   4.818
 9669TIP3    H228972   2.054   5.921   4.672
 9670TIP3   OH228973   3.695   0.712   5.188
 9670TIP3    H128974   3.661   0.651   5.253
 9670TIP3    H228975   3.647   0.793   5.204
 9671TIP3   OH228976   5.574   4.551   4.848
 9671TIP3    H128977   5.667   4.542   4.825
 9671TIP3    H228978   5.531   4.478   4.803
 9672TIP3   OH228979   2.263   0.040   0.002
 9672TIP3    H128980   2.277   0.134   0.011
 9672TIP3    H228981   2.181   0.022   0.048
 9673TIP3   OH228982   3.098   3.844   1.862
 9673TIP3    H128983   3.046   3.907   1.911
 9673TIP3    H228984   3.182   3.888   1.847
 9674TIP3   OH228985   5.026   4.610   0.136
 9674TIP3    H128986   5.010   4.688   0.188
 9674TIP3    H228987   4.963   4.546   0.168
 9675TIP3   OH228988   3.837   1.471   0.582
 9675TIP3    H128989   3.891   1.476   0.661
 9675TIP3    H228990   3.811   1.379   0.577
 9676TIP3   OH228991   1.603   5.307   1.160
 9676TIP3    H128992   1.674   5.371   1.160
 9676TIP3    H228993   1.623   5.249   1.086
 9677TIP3   OH228994   5.154   0.671   0.342
 9677TIP3    H128995   5.106   0.711   0.415
 9677TIP3    H228996   5.176   0.583   0.373
 9678TIP3   OH228997   5.825   2.076   1.174
 9678TIP3    H128998   5.786   2.093   1.087
 9678TIP3    H228999   5.910   2.036   1.155
 9679TIP3   OH229000   3.924   0.296   0.703
 9679TIP3    H129001   3.926   0.391   0.688
 9679TIP3    H229002   3.892   0.287   0.793
 9680TIP3   OH229003   6.894   2.120   4.009
 9680TIP3    H129004   6.819   2.168   3.975
 9680TIP3    H229005   6.856   2.044   4.053
 9681TIP3   OH229006   3.819   1.974   2.453
 9681TIP3    H129007   3.815   1.967   2.549
 9681TIP3    H229008   3.773   1.897   2.421
 9682TIP3   OH229009   4.583   3.101   5.336
 9682TIP3    H129010   4.605   3.014   5.370
 9682TIP3    H229011   4.491   3.113   5.358
 9683TIP3   OH229012   5.139   2.680   5.478
 9683TIP3    H129013   5.057   2.646   5.514
 9683TIP3    H229014   5.177   2.732   5.548
 9684TIP3   OH229015   0.882   3.673   1.189
 9684TIP3    H129016   0.843   3.740   1.132
 9684TIP3    H229017   0.929   3.722   1.256
 9685TIP3   OH229018   2.889   4.297   5.736
 9685TIP3    H129019   2.807   4.257   5.766
 9685TIP3    H229020   2.914   4.356   5.807
 9686TIP3   OH229021   3.772   1.408   1.693
 9686TIP3    H129022   3.826   1.337   1.728
 9686TIP3    H229023   3.805   1.421   1.604
 9687TIP3   OH229024   6.112   1.058   4.310
 9687TIP3    H129025   6.085   0.975   4.271
 9687TIP3    H229026   6.092   1.050   4.403
 9688TIP3   OH229027   6.232   0.876   0.683
 9688TIP3    H129028   6.314   0.865   0.732
 9688TIP3    H229029   6.238   0.812   0.612
 9689TIP3   OH229030   1.709   4.139   2.090
 9689TIP3    H129031   1.735   4.062   2.141
 9689TIP3    H229032   1.719   4.110   1.999
 9690TIP3   OH229033   1.456   1.749   1.146
 9690TIP3    H129034   1.451   1.680   1.079
 9690TIP3    H229035   1.535   1.729   1.195
 9691TIP3   OH229036   2.058   4.775   0.122
 9691TIP3    H129037   2.049   4.842   0.190
 9691TIP3    H229038   2.034   4.694   0.165
 9692TIP3   OH229039   2.895   1.173   3.787
 9692TIP3    H129040   2.960   1.209   3.847
 9692TIP3    H229041   2.858   1.249   3.742
 9693TIP3   OH229042   5.108   1.739   4.821
 9693TIP3    H129043   5.115   1.830   4.848
 9693TIP3    H229044   5.030   1.706   4.867
 9694TIP3   OH229045   4.409   3.336   4.255
 9694TIP3    H129046   4.344   3.311   4.322
 9694TIP3    H229047   4.484   3.280   4.272
 9695TIP3   OH229048   4.206   0.371   4.668
 9695TIP3    H129049   4.113   0.387   4.650
 9695TIP3    H229050   4.206   0.304   4.736
 9696TIP3   OH229051   0.819   0.372   4.968
 9696TIP3    H129052   0.784   0.415   4.889
 9696TIP3    H229053   0.766   0.293   4.977
 9697TIP3   OH229054   1.643   5.584   1.019
 9697TIP3    H129055   1.662   5.593   1.113
 9697TIP3    H229056   1.570   5.644   1.004
 9698TIP3   OH229057   2.328   5.363   4.651
 9698TIP3    H129058   2.399   5.305   4.624
 9698TIP3    H229059   2.290   5.395   4.569
 9699TIP3   OH229060   1.550   1.963   0.912
 9699TIP3    H129061   1.560   1.879   0.958
 9699TIP3    H229062   1.462   1.991   0.935
 9700TIP3   OH229063   2.569   4.238   4.135
 9700TIP3    H129064   2.607   4.150   4.140
 9700TIP3    H229065   2.475   4.223   4.124
 9701TIP3   OH229066   6.882   1.127   4.873
 9701TIP3    H129067   6.850   1.063   4.809
 9701TIP3    H229068   6.892   1.077   4.954
 9702TIP3   OH229069   3.684   0.857   4.126
 9702TIP3    H129070   3.610   0.804   4.096
 9702TIP3    H229071   3.710   0.907   4.048
 9703TIP3   OH229072   5.590   6.544   4.868
 9703TIP3    H129073   5.516   6.579   4.818
 9703TIP3    H229074   5.660   6.610   4.857
 9704TIP3   OH229075   1.427   6.112   0.823
 9704TIP3    H129076   1.374   6.189   0.844
 9704TIP3    H229077   1.516   6.137   0.847
 9705TIP3   OH229078   2.523   1.426   2.059
 9705TIP3    H129079   2.562   1.386   2.137
 9705TIP3    H229080   2.524   1.520   2.077
 9706TIP3   OH229081   5.614   1.923   3.311
 9706TIP3    H129082   5.633   1.875   3.391
 9706TIP3    H229083   5.524   1.955   3.323
 9707TIP3   OH229084   5.996   3.528   1.429
 9707TIP3    H129085   6.090   3.522   1.449
 9707TIP3    H229086   5.970   3.613   1.463
 9708TIP3   OH229087   1.844   5.652   2.260
 9708TIP3    H129088   1.927   5.612   2.285
 9708TIP3    H229089   1.778   5.598   2.303
 9709TIP3   OH229090   7.010   5.551   4.189
 9709TIP3    H129091   7.052   5.473   4.153
 9709TIP3    H229092   6.940   5.571   4.126
 9710TIP3   OH229093   6.214   5.155   2.395
 9710TIP3    H129094   6.218   5.091   2.324
 9710TIP3    H229095   6.161   5.227   2.359
 9711TIP3   OH229096   3.020   5.032   4.903
 9711TIP3    H129097   3.056   4.945   4.921
 9711TIP3    H229098   2.937   5.034   4.951
 9712TIP3   OH229099   7.007   1.881   4.682
 9712TIP3    H129100   6.932   1.933   4.712
 9712TIP3    H229101   6.971   1.823   4.615
 9713TIP3   OH229102   5.840   6.288   0.720
 9713TIP3    H129103   5.843   6.193   0.706
 9713TIP3    H229104   5.877   6.325   0.640
 9714TIP3   OH229105   6.253   5.413   4.023
 9714TIP3    H129106   6.212   5.414   4.110
 9714TIP3    H229107   6.183   5.386   3.964
 9715TIP3   OH229108   2.441   5.066   4.935
 9715TIP3    H129109   2.438   5.158   4.962
 9715TIP3    H229110   2.441   5.017   5.017
 9716TIP3   OH229111   2.662   4.649   5.868
 9716TIP3    H129112   2.712   4.730   5.864
 9716TIP3    H229113   2.585   4.666   5.814
 9717TIP3   OH229114   4.533   6.623   3.478
 9717TIP3    H129115   4.501   6.608   3.389
 9717TIP3    H229116   4.572   6.540   3.504
 9718TIP3   OH229117   2.589   4.647   5.418
 9718TIP3    H129118   2.542   4.661   5.500
 9718TIP3    H229119   2.586   4.732   5.374
 9719TIP3   OH229120   2.443   4.636   0.592
 9719TIP3    H129121   2.441   4.560   0.650
 9719TIP3    H229122   2.530   4.673   0.605
 9720TIP3   OH229123   6.423   5.104   5.379
 9720TIP3    H129124   6.447   5.057   5.458
 9720TIP3    H229125   6.430   5.039   5.309
 9721TIP3   OH229126   0.309   6.664   4.721
 9721TIP3    H129127   0.269   6.610   4.654
 9721TIP3    H229128   0.321   6.750   4.680
 9722TIP3   OH229129   3.822   2.124   0.574
 9722TIP3    H129130   3.769   2.163   0.504
 9722TIP3    H229131   3.759   2.106   0.643
 9723TIP3   OH229132   1.828   4.368   5.815
 9723TIP3    H129133   1.812   4.351   5.723
 9723TIP3    H229134   1.819   4.283   5.858
 9724TIP3   OH229135   6.806   2.113   2.488
 9724TIP3    H129136   6.786   2.184   2.550
 9724TIP3    H229137   6.777   2.034   2.533
 9725TIP3   OH229138   4.269   2.674   5.570
 9725TIP3    H129139   4.258   2.602   5.632
 9725TIP3    H229140   4.316   2.636   5.497
 9726TIP3   OH229141   5.030   1.193   3.004
 9726TIP3    H129142   5.054   1.113   2.957
 9726TIP3    H229143   4.941   1.177   3.036
 9727TIP3   OH229144   2.369   3.596   5.103
 9727TIP3    H129145   2.449   3.570   5.150
 9727TIP3    H229146   2.368   3.540   5.025
 9728TIP3   OH229147   4.034   1.630   5.193
 9728TIP3    H129148   3.999   1.541   5.183
 9728TIP3    H229149   3.956   1.685   5.200
 9729TIP3   OH229150   4.773   5.150   5.455
 9729TIP3    H129151   4.758   5.244   5.449
 9729TIP3    H229152   4.685   5.112   5.460
 9730TIP3   OH229153   2.391   3.119   1.447
 9730TIP3    H129154   2.394   3.054   1.377
 9730TIP3    H229155   2.466   3.176   1.431
 9731TIP3   OH229156   1.980   2.789   3.653
 9731TIP3    H129157   2.038   2.786   3.577
 9731TIP3    H229158   1.942   2.701   3.657
 9732TIP3   OH229159   6.703   5.982   3.681
 9732TIP3    H129160   6.745   5.931   3.750
 9732TIP3    H229161   6.707   5.925   3.604
 9733TIP3   OH229162   5.642   6.765   2.473
 9733TIP3    H129163   5.713   6.815   2.432
 9733TIP3    H229164   5.673   6.751   2.563
 9734TIP3   OH229165   0.066   3.370   3.874
 9734TIP3    H129166   0.101   3.295   3.825
 9734TIP3    H229167   0.062   3.441   3.809
 9735TIP3   OH229168   4.494   1.933   4.871
 9735TIP3    H129169   4.523   2.019   4.840
 9735TIP3    H229170   4.532   1.924   4.958
 9736TIP3   OH229171   4.668   2.255   5.873
 9736TIP3    H129172   4.675   2.228   5.782
 9736TIP3    H229173   4.699   2.179   5.923
 9737TIP3   OH229174   1.010   4.849   0.426
 9737TIP3    H129175   1.061   4.856   0.345
 9737TIP3    H229176   0.969   4.935   0.436
 9738TIP3   OH229177   1.359   3.258   5.364
 9738TIP3    H129178   1.323   3.288   5.280
 9738TIP3    H229179   1.406   3.177   5.343
 9739TIP3   OH229180   3.098   5.181   4.125
 9739TIP3    H129181   3.007   5.179   4.155
 9739TIP3    H229182   3.094   5.218   4.037
 9740TIP3   OH229183   3.921   0.628   0.233
 9740TIP3    H129184   3.905   0.653   0.324
 9740TIP3    H229185   3.893   0.703   0.182
 9741TIP3   OH229186   1.745   3.092   4.034
 9741TIP3    H129187   1.689   3.161   3.999
 9741TIP3    H229188   1.824   3.137   4.062
 9742TIP3   OH229189   2.925   2.026   1.896
 9742TIP3    H129190   2.956   2.054   1.982
 9742TIP3    H229191   2.844   2.075   1.883
 9743TIP3   OH229192   2.338   0.626   4.397
 9743TIP3    H129193   2.248   0.592   4.397
 9743TIP3    H229194   2.335   0.705   4.450
 9744TIP3   OH229195   2.525   0.783   4.263
 9744TIP3    H129196   2.467   0.710   4.284
 9744TIP3    H229197   2.473   0.861   4.282
 9745TIP3   OH229198   2.147   6.602   5.678
 9745TIP3    H129199   2.134   6.508   5.667
 9745TIP3    H229200   2.180   6.612   5.767
 9746TIP3   OH229201   4.265   6.765   1.033
 9746TIP3    H129202   4.183   6.728   1.065
 9746TIP3    H229203   4.325   6.758   1.107
 9747TIP3   OH229204   7.162   3.910   4.334
 9747TIP3    H129205   7.251   3.887   4.361
 9747TIP3    H229206   7.122   3.827   4.308
 9748TIP3   OH229207   2.329   1.256   1.893
 9748TIP3    H129208   2.343   1.315   1.967
 9748TIP3    H229209   2.263   1.300   1.840
 9749TIP3   OH229210   4.762   1.413   1.908
 9749TIP3    H129211   4.822   1.488   1.909
 9749TIP3    H229212   4.718   1.419   1.823
   7.20323   6.79128   5.88141   0.00000   0.00000  -2.40108   0.00000  -2.40108  -3.39563
