;;
;; LiLC-1 NaCl — peptide from LiCl LiLC-1 PROA; ions NaCl; counts from eq.gro
;;
#include "toppar/forcefield.itp"
#include "toppar/PROA.itp"
#include "toppar/SOD.itp"
#include "toppar/CLA.itp"
#include "toppar/TIP3.itp"

[ system ]
; Name
LiLC-1 NaCl

[ molecules ]
; Compound        #mols
PROA                1
SOD                44
CLA                42
TIP3            14714
