Title t= 350.00000 step= 175000
19942
    1ASP      N    1   0.960   1.932   3.588
    1ASP    HT1    2   0.937   1.840   3.631
    1ASP    HT2    3   0.925   1.922   3.490
    1ASP    HT3    4   0.909   2.007   3.637
    1ASP     CA    5   1.110   1.926   3.576
    1ASP     HA    6   1.131   2.018   3.524
    1ASP     CB    7   1.181   1.943   3.717
    1ASP    HB1    8   1.152   1.858   3.782
    1ASP    HB2    9   1.140   2.035   3.764
    1ASP     CG   10   1.333   1.961   3.713
    1ASP    OD1   11   1.396   1.931   3.816
    1ASP    OD2   12   1.386   2.022   3.614
    1ASP      C   13   1.163   1.801   3.507
    1ASP      O   14   1.214   1.810   3.395
    2ALA      N   15   1.130   1.682   3.564
    2ALA     HN   16   1.098   1.676   3.658
    2ALA     CA   17   1.130   1.552   3.499
    2ALA     HA   18   1.229   1.512   3.484
    2ALA     CB   19   1.060   1.429   3.577
    2ALA    HB1   20   1.108   1.406   3.675
    2ALA    HB2   21   1.052   1.333   3.522
    2ALA    HB3   22   0.955   1.458   3.599
    2ALA      C   23   1.055   1.551   3.361
    2ALA      O   24   0.957   1.621   3.338
    3ASP      N   25   1.101   1.470   3.265
    3ASP     HN   26   1.177   1.408   3.283
    3ASP     CA   27   1.062   1.467   3.122
    3ASP     HA   28   1.057   1.571   3.096
    3ASP     CB   29   1.165   1.381   3.043
    3ASP    HB1   30   1.140   1.384   2.935
    3ASP    HB2   31   1.149   1.277   3.078
    3ASP     CG   32   1.308   1.423   3.052
    3ASP    OD1   33   1.401   1.338   3.071
    3ASP    OD2   34   1.340   1.542   3.033
    3ASP      C   35   0.917   1.424   3.097
    3ASP      O   36   0.866   1.329   3.159
    4GLY      N   37   0.848   1.482   2.997
    4GLY     HN   38   0.892   1.558   2.949
    4GLY     CA   39   0.722   1.450   2.938
    4GLY    HA1   40   0.705   1.522   2.860
    4GLY    HA2   41   0.646   1.446   3.016
    4GLY      C   42   0.720   1.319   2.867
    4GLY      O   43   0.812   1.242   2.888
    5PRO      N   44   0.612   1.283   2.795
    5PRO     CD   45   0.481   1.352   2.784
    5PRO    HD1   46   0.482   1.441   2.717
    5PRO    HD2   47   0.453   1.392   2.884
    5PRO     CA   48   0.613   1.157   2.710
    5PRO     HA   49   0.624   1.081   2.787
    5PRO     CB   50   0.478   1.163   2.639
    5PRO    HB1   51   0.441   1.060   2.620
    5PRO    HB2   52   0.484   1.225   2.547
    5PRO     CG   53   0.384   1.250   2.729
    5PRO    HG1   54   0.299   1.304   2.681
    5PRO    HG2   55   0.336   1.186   2.806
    5PRO      C   56   0.732   1.148   2.614
    5PRO      O   57   0.774   1.253   2.575
    6GLY      N   58   0.778   1.029   2.574
    6GLY     HN   59   0.742   0.942   2.607
    6GLY     CA   60   0.891   1.011   2.484
    6GLY    HA1   61   0.895   0.903   2.474
    6GLY    HA2   62   0.977   1.058   2.528
    6GLY      C   63   0.874   1.059   2.342
    6GLY      O   64   0.761   1.104   2.302
    7ASP      N   65   0.976   1.040   2.250
    7ASP     HN   66   1.064   1.012   2.288
    7ASP     CA   67   0.969   1.073   2.109
    7ASP     HA   68   0.938   1.176   2.116
    7ASP     CB   69   1.109   1.064   2.036
    7ASP    HB1   70   1.097   1.088   1.928
    7ASP    HB2   71   1.164   0.968   2.051
    7ASP     CG   72   1.200   1.171   2.093
    7ASP    OD1   73   1.311   1.175   2.041
    7ASP    OD2   74   1.158   1.255   2.177
    7ASP      C   75   0.857   0.984   2.044
    7ASP      O   76   0.842   0.867   2.090
    8PRO      N   77   0.773   1.031   1.950
    8PRO     CD   78   0.775   1.174   1.908
    8PRO    HD1   79   0.853   1.190   1.830
    8PRO    HD2   80   0.791   1.243   1.993
    8PRO     CA   81   0.646   0.965   1.914
    8PRO     HA   82   0.593   0.942   2.006
    8PRO     CB   83   0.568   1.071   1.830
    8PRO    HB1   84   0.458   1.061   1.831
    8PRO    HB2   85   0.588   1.044   1.723
    8PRO     CG   86   0.629   1.206   1.873
    8PRO    HG1   87   0.610   1.278   1.790
    8PRO    HG2   88   0.577   1.241   1.965
    8PRO      C   89   0.659   0.835   1.844
    8PRO      O   90   0.569   0.759   1.875
    9ASP      N   91   0.760   0.814   1.756
    9ASP     HN   92   0.820   0.891   1.737
    9ASP     CA   93   0.782   0.700   1.671
    9ASP     HA   94   0.694   0.639   1.687
    9ASP     CB   95   0.789   0.752   1.528
    9ASP    HB1   96   0.816   0.667   1.463
    9ASP    HB2   97   0.861   0.837   1.520
    9ASP     CG   98   0.650   0.799   1.481
    9ASP    OD1   99   0.648   0.908   1.411
    9ASP    OD2  100   0.546   0.735   1.500
    9ASP      C  101   0.907   0.627   1.719
    9ASP      O  102   0.951   0.534   1.659
   10ALA      N  103   0.961   0.658   1.838
   10ALA     HN  104   0.915   0.715   1.905
   10ALA     CA  105   1.069   0.575   1.885
   10ALA     HA  106   1.150   0.573   1.813
   10ALA     CB  107   1.136   0.647   2.004
   10ALA    HB1  108   1.209   0.588   2.064
   10ALA    HB2  109   1.062   0.678   2.080
   10ALA    HB3  110   1.187   0.739   1.969
   10ALA      C  111   1.017   0.440   1.938
   10ALA      O  112   0.917   0.437   2.015
   11GLY      N  113   1.083   0.325   1.903
   11GLY     HN  114   1.174   0.323   1.862
   11GLY     CA  115   1.032   0.194   1.933
   11GLY    HA1  116   1.000   0.149   1.840
   11GLY    HA2  117   0.951   0.203   2.003
   11GLY      C  118   1.133   0.107   2.014
   11GLY    OT1  119   1.205   0.152   2.105
   11GLY    OT2  120   1.137  -0.017   1.984
   12LIT    LIT  121   1.827   1.897   0.341
   13LIT    LIT  122   1.371   3.126   0.942
   14LIT    LIT  123   2.086   0.008   3.480
   15LIT    LIT  124   2.281   1.957   1.703
   16LIT    LIT  125   4.409   5.586   2.327
   17LIT    LIT  126   2.512   4.278   2.835
   18LIT    LIT  127   6.205   5.358   1.675
   19LIT    LIT  128   0.097   0.593   0.517
   20LIT    LIT  129   2.439   0.970   5.113
   21LIT    LIT  130   2.590   5.162   3.237
   22LIT    LIT  131   3.127   3.032   0.803
   23LIT    LIT  132   1.916   2.459   3.548
   24LIT    LIT  133   1.830   5.759   3.823
   25LIT    LIT  134   4.459   0.940   0.975
   26LIT    LIT  135   5.018   3.788   0.664
   27LIT    LIT  136   1.272   0.268   2.458
   28LIT    LIT  137   1.410   1.993   4.006
   29LIT    LIT  138   2.632   3.603   4.005
   30LIT    LIT  139   1.655   2.452   2.421
   31LIT    LIT  140   4.841   1.335   4.407
   32LIT    LIT  141   3.735   3.822   1.972
   33LIT    LIT  142   5.289   1.706   2.830
   34CLA    CLA  143   5.600   2.664   2.395
   35CLA    CLA  144   5.356   0.194   3.741
   36CLA    CLA  145   3.678   1.456   5.130
   37CLA    CLA  146   0.023   5.667   3.863
   38CLA    CLA  147   1.395   3.841   4.870
   39CLA    CLA  148   2.036   3.229   1.502
   40CLA    CLA  149   2.049   1.082   4.162
   41CLA    CLA  150   1.386   2.614   1.316
   42CLA    CLA  151   2.733   3.974   1.927
   43CLA    CLA  152   1.997   2.951   2.583
   44CLA    CLA  153   4.666   4.417   3.912
   45CLA    CLA  154   0.081   5.447   2.474
   46CLA    CLA  155   3.621   5.621   3.224
   47CLA    CLA  156   4.786   3.788   0.702
   48CLA    CLA  157   2.856   3.945   3.926
   49CLA    CLA  158  -0.015   5.440   1.042
   50CLA    CLA  159   2.957   1.852   3.718
   51CLA    CLA  160   1.802   0.461   1.868
   52TIP3   OH2  161   5.021   1.880   2.749
   52TIP3    H1  162   4.983   1.867   2.836
   52TIP3    H2  163   4.963   1.942   2.706
   53TIP3   OH2  164   3.398   4.516   0.513
   53TIP3    H1  165   3.432   4.601   0.484
   53TIP3    H2  166   3.406   4.519   0.609
   54TIP3   OH2  167   2.105   4.465   0.004
   54TIP3    H1  168   2.018   4.503   0.015
   54TIP3    H2  169   2.096   4.374   0.030
   55TIP3   OH2  170   2.854   2.618   0.451
   55TIP3    H1  171   2.764   2.650   0.461
   55TIP3    H2  172   2.845   2.522   0.457
   56TIP3   OH2  173   5.107   0.701   0.948
   56TIP3    H1  174   5.124   0.750   1.028
   56TIP3    H2  175   5.173   0.733   0.886
   57TIP3   OH2  176   1.058   3.782   1.085
   57TIP3    H1  177   0.992   3.763   1.152
   57TIP3    H2  178   1.111   3.702   1.080
   58TIP3   OH2  179   0.504   2.801   2.549
   58TIP3    H1  180   0.514   2.807   2.644
   58TIP3    H2  181   0.415   2.769   2.537
   59TIP3   OH2  182   1.793   5.770   1.370
   59TIP3    H1  183   1.708   5.757   1.412
   59TIP3    H2  184   1.774   5.827   1.295
   60TIP3   OH2  185   1.854   0.076   2.309
   60TIP3    H1  186   1.856   0.133   2.232
   60TIP3    H2  187   1.863   0.137   2.383
   61TIP3   OH2  188   4.368   3.747   1.776
   61TIP3    H1  189   4.443   3.803   1.798
   61TIP3    H2  190   4.402   3.657   1.785
   62TIP3   OH2  191   5.186   3.930   4.187
   62TIP3    H1  192   5.164   3.922   4.094
   62TIP3    H2  193   5.276   3.898   4.193
   63TIP3   OH2  194   3.807   0.509   4.952
   63TIP3    H1  195   3.796   0.418   4.924
   63TIP3    H2  196   3.831   0.556   4.872
   64TIP3   OH2  197   3.831   4.872   1.153
   64TIP3    H1  198   3.790   4.786   1.159
   64TIP3    H2  199   3.773   4.929   1.205
   65TIP3   OH2  200   4.775   4.057   4.562
   65TIP3    H1  201   4.797   4.025   4.650
   65TIP3    H2  202   4.857   4.050   4.513
   66TIP3   OH2  203   3.005   1.444   3.419
   66TIP3    H1  204   2.923   1.471   3.461
   66TIP3    H2  205   2.981   1.370   3.364
   67TIP3   OH2  206   1.522   4.781   0.601
   67TIP3    H1  207   1.474   4.820   0.528
   67TIP3    H2  208   1.494   4.689   0.601
   68TIP3   OH2  209   2.599   1.257   0.665
   68TIP3    H1  210   2.691   1.279   0.649
   68TIP3    H2  211   2.561   1.250   0.577
   69TIP3   OH2  212   1.561   5.011   3.613
   69TIP3    H1  213   1.577   5.080   3.548
   69TIP3    H2  214   1.468   4.991   3.604
   70TIP3   OH2  215   2.850   5.834   1.697
   70TIP3    H1  216   2.841   5.916   1.746
   70TIP3    H2  217   2.932   5.796   1.729
   71TIP3   OH2  218   5.270   4.220   3.057
   71TIP3    H1  219   5.241   4.250   3.143
   71TIP3    H2  220   5.351   4.269   3.041
   72TIP3   OH2  221   3.787   0.328   4.602
   72TIP3    H1  222   3.876   0.362   4.607
   72TIP3    H2  223   3.767   0.300   4.691
   73TIP3   OH2  224   1.452   5.582   1.968
   73TIP3    H1  225   1.422   5.492   1.954
   73TIP3    H2  226   1.537   5.572   2.011
   74TIP3   OH2  227   4.084   1.523   4.285
   74TIP3    H1  228   4.034   1.602   4.270
   74TIP3    H2  229   4.019   1.454   4.296
   75TIP3   OH2  230   4.859   0.207   3.950
   75TIP3    H1  231   4.846   0.228   4.042
   75TIP3    H2  232   4.867   0.112   3.947
   76TIP3   OH2  233   0.091   1.311   0.184
   76TIP3    H1  234   0.133   1.225   0.191
   76TIP3    H2  235   0.104   1.351   0.270
   77TIP3   OH2  236   0.971   0.902   4.385
   77TIP3    H1  237   0.994   0.905   4.478
   77TIP3    H2  238   0.884   0.940   4.381
   78TIP3   OH2  239   6.246   1.653   0.241
   78TIP3    H1  240   6.315   1.592   0.270
   78TIP3    H2  241   6.164   1.606   0.259
   79TIP3   OH2  242   5.677   1.366   1.835
   79TIP3    H1  243   5.612   1.299   1.815
   79TIP3    H2  244   5.710   1.342   1.921
   80TIP3   OH2  245   4.183   1.841   4.492
   80TIP3    H1  246   4.102   1.892   4.498
   80TIP3    H2  247   4.156   1.752   4.514
   81TIP3   OH2  248   5.504   3.056   3.612
   81TIP3    H1  249   5.567   2.985   3.628
   81TIP3    H2  250   5.433   3.039   3.674
   82TIP3   OH2  251   1.435   1.826   2.139
   82TIP3    H1  252   1.368   1.761   2.120
   82TIP3    H2  253   1.396   1.910   2.115
   83TIP3   OH2  254   0.152   1.995   3.754
   83TIP3    H1  255   0.166   1.918   3.809
   83TIP3    H2  256   0.064   1.984   3.719
   84TIP3   OH2  257   3.217   0.458   5.104
   84TIP3    H1  258   3.128   0.456   5.139
   84TIP3    H2  259   3.267   0.401   5.163
   85TIP3   OH2  260   1.205   3.925   4.196
   85TIP3    H1  261   1.151   3.947   4.272
   85TIP3    H2  262   1.262   4.001   4.185
   86TIP3   OH2  263   0.265   2.004   2.566
   86TIP3    H1  264   0.247   2.097   2.585
   86TIP3    H2  265   0.198   1.956   2.614
   87TIP3   OH2  266   3.232   5.176   0.421
   87TIP3    H1  267   3.221   5.087   0.452
   87TIP3    H2  268   3.144   5.203   0.393
   88TIP3   OH2  269   5.614   1.408   1.013
   88TIP3    H1  270   5.537   1.459   1.039
   88TIP3    H2  271   5.635   1.440   0.925
   89TIP3   OH2  272   0.013   1.699   3.467
   89TIP3    H1  273   0.046   1.630   3.524
   89TIP3    H2  274  -0.040   1.755   3.524
   90TIP3   OH2  275   4.540   5.448   1.948
   90TIP3    H1  276   4.599   5.426   1.876
   90TIP3    H2  277   4.476   5.508   1.910
   91TIP3   OH2  278   3.732   4.532   3.505
   91TIP3    H1  279   3.638   4.551   3.509
   91TIP3    H2  280   3.766   4.562   3.589
   92TIP3   OH2  281   1.512   4.749   4.676
   92TIP3    H1  282   1.593   4.729   4.629
   92TIP3    H2  283   1.442   4.714   4.620
   93TIP3   OH2  284   4.248   3.474   1.012
   93TIP3    H1  285   4.329   3.516   0.982
   93TIP3    H2  286   4.245   3.391   0.965
   94TIP3   OH2  287   4.172   5.796   2.120
   94TIP3    H1  288   4.133   5.829   2.039
   94TIP3    H2  289   4.217   5.872   2.158
   95TIP3   OH2  290   3.982   1.163   4.727
   95TIP3    H1  291   3.934   1.222   4.785
   95TIP3    H2  292   4.071   1.162   4.762
   96TIP3   OH2  293   6.166   3.776   0.135
   96TIP3    H1  294   6.074   3.796   0.113
   96TIP3    H2  295   6.215   3.849   0.098
   97TIP3   OH2  296   5.003   2.723   4.092
   97TIP3    H1  297   4.994   2.711   4.186
   97TIP3    H2  298   5.002   2.634   4.056
   98TIP3   OH2  299   2.311   1.383   5.040
   98TIP3    H1  300   2.297   1.416   4.951
   98TIP3    H2  301   2.401   1.408   5.060
   99TIP3   OH2  302   3.661   1.710   3.580
   99TIP3    H1  303   3.703   1.732   3.663
   99TIP3    H2  304   3.597   1.779   3.565
  100TIP3   OH2  305   5.008   1.303   3.029
  100TIP3    H1  306   4.921   1.266   3.011
  100TIP3    H2  307   4.990   1.386   3.074
  101TIP3   OH2  308   5.126   4.913   4.162
  101TIP3    H1  309   5.105   4.840   4.104
  101TIP3    H2  310   5.123   4.990   4.105
  102TIP3   OH2  311   5.787   2.690   4.836
  102TIP3    H1  312   5.831   2.605   4.837
  102TIP3    H2  313   5.836   2.744   4.897
  103TIP3   OH2  314   3.780   2.596   3.312
  103TIP3    H1  315   3.816   2.510   3.332
  103TIP3    H2  316   3.852   2.643   3.270
  104TIP3   OH2  317   4.585   2.012   2.411
  104TIP3    H1  318   4.583   2.005   2.507
  104TIP3    H2  319   4.641   2.087   2.394
  105TIP3   OH2  320   5.596   0.375   5.181
  105TIP3    H1  321   5.530   0.393   5.248
  105TIP3    H2  322   5.548   0.378   5.098
  106TIP3   OH2  323   0.542   3.071   1.702
  106TIP3    H1  324   0.592   2.994   1.674
  106TIP3    H2  325   0.453   3.056   1.669
  107TIP3   OH2  326   4.961   0.531   0.139
  107TIP3    H1  327   5.014   0.609   0.159
  107TIP3    H2  328   4.937   0.542   0.047
  108TIP3   OH2  329   5.975   2.401   2.955
  108TIP3    H1  330   5.884   2.374   2.969
  108TIP3    H2  331   6.021   2.375   3.034
  109TIP3   OH2  332   1.614   5.119   4.980
  109TIP3    H1  333   1.536   5.081   4.940
  109TIP3    H2  334   1.686   5.089   4.925
  110TIP3   OH2  335   3.713   4.148   4.998
  110TIP3    H1  336   3.708   4.081   4.930
  110TIP3    H2  337   3.622   4.167   5.020
  111TIP3   OH2  338   2.057   3.164   0.644
  111TIP3    H1  339   2.117   3.175   0.717
  111TIP3    H2  340   2.025   3.074   0.651
  112TIP3   OH2  341   0.925   2.313   2.314
  112TIP3    H1  342   0.982   2.285   2.386
  112TIP3    H2  343   0.956   2.263   2.239
  113TIP3   OH2  344   4.633   0.451   5.124
  113TIP3    H1  345   4.606   0.466   5.215
  113TIP3    H2  346   4.595   0.366   5.101
  114TIP3   OH2  347   1.483   3.862   2.261
  114TIP3    H1  348   1.468   3.946   2.304
  114TIP3    H2  349   1.429   3.865   2.182
  115TIP3   OH2  350   0.369   1.090   4.371
  115TIP3    H1  351   0.285   1.097   4.326
  115TIP3    H2  352   0.417   1.168   4.343
  116TIP3   OH2  353   1.868   0.535   1.083
  116TIP3    H1  354   1.915   0.462   1.124
  116TIP3    H2  355   1.903   0.613   1.125
  117TIP3   OH2  356   1.306   4.669   1.710
  117TIP3    H1  357   1.213   4.688   1.718
  117TIP3    H2  358   1.310   4.592   1.653
  118TIP3   OH2  359   2.845   3.628   2.100
  118TIP3    H1  360   2.772   3.666   2.148
  118TIP3    H2  361   2.898   3.703   2.072
  119TIP3   OH2  362   3.559   5.146   3.025
  119TIP3    H1  363   3.509   5.207   3.080
  119TIP3    H2  364   3.492   5.092   2.983
  120TIP3   OH2  365   6.028   3.132   1.176
  120TIP3    H1  366   6.083   3.209   1.193
  120TIP3    H2  367   6.064   3.095   1.096
  121TIP3   OH2  368   4.671   0.399   1.833
  121TIP3    H1  369   4.676   0.494   1.848
  121TIP3    H2  370   4.669   0.391   1.737
  122TIP3   OH2  371   5.729   5.585   2.235
  122TIP3    H1  372   5.709   5.603   2.143
  122TIP3    H2  373   5.644   5.584   2.278
  123TIP3   OH2  374   1.821   5.406   1.861
  123TIP3    H1  375   1.758   5.432   1.794
  123TIP3    H2  376   1.798   5.457   1.938
  124TIP3   OH2  377   2.080   5.009   1.221
  124TIP3    H1  378   2.011   4.976   1.163
  124TIP3    H2  379   2.159   5.005   1.167
  125TIP3   OH2  380   3.760   4.910   0.514
  125TIP3    H1  381   3.707   4.987   0.533
  125TIP3    H2  382   3.826   4.909   0.583
  126TIP3   OH2  383   0.434   3.075   0.321
  126TIP3    H1  384   0.447   3.137   0.250
  126TIP3    H2  385   0.393   3.127   0.391
  127TIP3   OH2  386   1.926   3.763   4.084
  127TIP3    H1  387   1.923   3.791   3.992
  127TIP3    H2  388   1.984   3.826   4.126
  128TIP3   OH2  389   2.480   0.306   4.944
  128TIP3    H1  390   2.466   0.293   4.850
  128TIP3    H2  391   2.397   0.280   4.984
  129TIP3   OH2  392   1.028   1.866   2.185
  129TIP3    H1  393   1.090   1.919   2.235
  129TIP3    H2  394   1.079   1.788   2.159
  130TIP3   OH2  395   3.738   0.429   0.439
  130TIP3    H1  396   3.674   0.439   0.369
  130TIP3    H2  397   3.723   0.341   0.474
  131TIP3   OH2  398   2.108   5.282   3.474
  131TIP3    H1  399   2.065   5.338   3.539
  131TIP3    H2  400   2.116   5.336   3.396
  132TIP3   OH2  401   2.108   4.835   0.896
  132TIP3    H1  402   2.054   4.781   0.839
  132TIP3    H2  403   2.064   4.921   0.895
  133TIP3   OH2  404   1.469   1.477   4.275
  133TIP3    H1  405   1.489   1.483   4.368
  133TIP3    H2  406   1.554   1.465   4.233
  134TIP3   OH2  407   3.866   3.055   0.678
  134TIP3    H1  408   3.907   3.110   0.745
  134TIP3    H2  409   3.817   2.990   0.727
  135TIP3   OH2  410   0.868   3.026   3.141
  135TIP3    H1  411   0.947   3.038   3.089
  135TIP3    H2  412   0.832   2.942   3.111
  136TIP3   OH2  413   5.785   3.111   2.483
  136TIP3    H1  414   5.769   3.197   2.521
  136TIP3    H2  415   5.764   3.122   2.390
  137TIP3   OH2  416   4.031   0.743   0.414
  137TIP3    H1  417   3.976   0.810   0.454
  137TIP3    H2  418   4.102   0.792   0.373
  138TIP3   OH2  419   0.398   1.494   4.541
  138TIP3    H1  420   0.416   1.587   4.532
  138TIP3    H2  421   0.476   1.451   4.507
  139TIP3   OH2  422   0.562   3.841   3.338
  139TIP3    H1  423   0.592   3.751   3.325
  139TIP3    H2  424   0.631   3.896   3.301
  140TIP3   OH2  425   0.938   3.904   3.358
  140TIP3    H1  426   0.917   3.812   3.344
  140TIP3    H2  427   0.870   3.953   3.312
  141TIP3   OH2  428   5.933   3.555   1.526
  141TIP3    H1  429   6.014   3.540   1.576
  141TIP3    H2  430   5.865   3.511   1.576
  142TIP3   OH2  431   6.326   5.711   0.757
  142TIP3    H1  432   6.255   5.648   0.769
  142TIP3    H2  433   6.395   5.681   0.817
  143TIP3   OH2  434   0.435   0.657   2.065
  143TIP3    H1  435   0.497   0.662   1.992
  143TIP3    H2  436   0.367   0.596   2.036
  144TIP3   OH2  437   1.410   2.196   0.162
  144TIP3    H1  438   1.335   2.142   0.186
  144TIP3    H2  439   1.424   2.252   0.238
  145TIP3   OH2  440   1.000   4.638   2.732
  145TIP3    H1  441   1.019   4.711   2.673
  145TIP3    H2  442   0.996   4.679   2.819
  146TIP3   OH2  443   2.236   4.680   3.846
  146TIP3    H1  444   2.256   4.596   3.805
  146TIP3    H2  445   2.242   4.663   3.940
  147TIP3   OH2  446   2.720   2.751   0.949
  147TIP3    H1  447   2.625   2.756   0.959
  147TIP3    H2  448   2.739   2.799   0.869
  148TIP3   OH2  449   5.157   3.665   2.373
  148TIP3    H1  450   5.133   3.711   2.453
  148TIP3    H2  451   5.253   3.669   2.370
  149TIP3   OH2  452   6.006   5.676   2.846
  149TIP3    H1  453   6.079   5.619   2.821
  149TIP3    H2  454   6.038   5.723   2.923
  150TIP3   OH2  455   4.024  -0.001   3.341
  150TIP3    H1  456   4.110  -0.007   3.383
  150TIP3    H2  457   4.040   0.050   3.261
  151TIP3   OH2  458   4.787   1.912   2.085
  151TIP3    H1  459   4.828   1.851   2.024
  151TIP3    H2  460   4.746   1.856   2.151
  152TIP3   OH2  461   2.776   0.829   1.611
  152TIP3    H1  462   2.803   0.915   1.642
  152TIP3    H2  463   2.782   0.773   1.689
  153TIP3   OH2  464   5.436   4.840   3.455
  153TIP3    H1  465   5.443   4.745   3.453
  153TIP3    H2  466   5.524   4.871   3.476
  154TIP3   OH2  467   0.304   3.046   4.953
  154TIP3    H1  468   0.392   3.083   4.967
  154TIP3    H2  469   0.257   3.115   4.906
  155TIP3   OH2  470   6.244   4.131   3.116
  155TIP3    H1  471   6.292   4.212   3.134
  155TIP3    H2  472   6.159   4.143   3.159
  156TIP3   OH2  473   1.934   4.523   1.024
  156TIP3    H1  474   1.932   4.585   0.951
  156TIP3    H2  475   1.843   4.493   1.032
  157TIP3   OH2  476   5.152   0.092   1.541
  157TIP3    H1  477   5.225   0.039   1.574
  157TIP3    H2  478   5.101   0.031   1.487
  158TIP3   OH2  479   2.956   5.989   3.347
  158TIP3    H1  480   3.002   5.909   3.322
  158TIP3    H2  481   3.024   6.045   3.385
  159TIP3   OH2  482   2.703   5.361   1.570
  159TIP3    H1  483   2.641   5.356   1.498
  159TIP3    H2  484   2.715   5.454   1.586
  160TIP3   OH2  485   1.183   3.718   0.208
  160TIP3    H1  486   1.219   3.745   0.292
  160TIP3    H2  487   1.200   3.792   0.149
  161TIP3   OH2  488   2.413   4.770   1.427
  161TIP3    H1  489   2.394   4.677   1.412
  161TIP3    H2  490   2.365   4.792   1.507
  162TIP3   OH2  491   5.018   5.330   0.162
  162TIP3    H1  492   5.095   5.290   0.120
  162TIP3    H2  493   4.963   5.256   0.187
  163TIP3   OH2  494   3.290   5.490   2.894
  163TIP3    H1  495   3.216   5.434   2.869
  163TIP3    H2  496   3.341   5.436   2.955
  164TIP3   OH2  497   5.319   0.749   4.305
  164TIP3    H1  498   5.399   0.697   4.306
  164TIP3    H2  499   5.349   0.840   4.299
  165TIP3   OH2  500   1.763   2.571   2.774
  165TIP3    H1  501   1.778   2.488   2.819
  165TIP3    H2  502   1.772   2.637   2.842
  166TIP3   OH2  503   0.602   2.607   5.139
  166TIP3    H1  504   0.666   2.544   5.173
  166TIP3    H2  505   0.577   2.659   5.216
  167TIP3   OH2  506   6.161   2.180   1.753
  167TIP3    H1  507   6.085   2.134   1.717
  167TIP3    H2  508   6.207   2.113   1.804
  168TIP3   OH2  509   4.284   0.387   5.083
  168TIP3    H1  510   4.300   0.387   4.989
  168TIP3    H2  511   4.334   0.312   5.116
  169TIP3   OH2  512   2.557   5.698   3.619
  169TIP3    H1  513   2.504   5.668   3.546
  169TIP3    H2  514   2.577   5.790   3.599
  170TIP3   OH2  515   5.155   0.014   2.382
  170TIP3    H1  516   5.121  -0.052   2.322
  170TIP3    H2  517   5.109   0.095   2.357
  171TIP3   OH2  518   2.938   3.296   0.576
  171TIP3    H1  519   2.931   3.388   0.600
  171TIP3    H2  520   2.993   3.296   0.497
  172TIP3   OH2  521   4.686   1.734   0.031
  172TIP3    H1  522   4.781   1.721   0.027
  172TIP3    H2  523   4.675   1.805   0.093
  173TIP3   OH2  524   3.774   3.149   3.560
  173TIP3    H1  525   3.776   3.056   3.583
  173TIP3    H2  526   3.847   3.187   3.608
  174TIP3   OH2  527   4.412   1.609   5.122
  174TIP3    H1  528   4.424   1.690   5.172
  174TIP3    H2  529   4.501   1.585   5.095
  175TIP3   OH2  530   3.257   3.110   1.465
  175TIP3    H1  531   3.291   3.184   1.414
  175TIP3    H2  532   3.253   3.038   1.401
  176TIP3   OH2  533   1.565   1.468   2.604
  176TIP3    H1  534   1.576   1.424   2.519
  176TIP3    H2  535   1.480   1.511   2.597
  177TIP3   OH2  536   1.165   5.038   0.098
  177TIP3    H1  537   1.231   5.071   0.038
  177TIP3    H2  538   1.207   4.964   0.142
  178TIP3   OH2  539   5.849   2.146   1.346
  178TIP3    H1  540   5.864   2.067   1.295
  178TIP3    H2  541   5.802   2.205   1.286
  179TIP3   OH2  542   3.017   3.049   0.967
  179TIP3    H1  543   3.012   2.964   1.012
  179TIP3    H2  544   2.942   3.098   0.999
  180TIP3   OH2  545   6.028   4.600   0.585
  180TIP3    H1  546   6.077   4.680   0.568
  180TIP3    H2  547   6.024   4.556   0.501
  181TIP3   OH2  548   2.413   0.152   2.238
  181TIP3    H1  549   2.393   0.246   2.238
  181TIP3    H2  550   2.359   0.116   2.309
  182TIP3   OH2  551   2.838   0.189   2.049
  182TIP3    H1  552   2.806   0.103   2.074
  182TIP3    H2  553   2.770   0.250   2.078
  183TIP3   OH2  554   2.621   5.973   0.739
  183TIP3    H1  555   2.584   5.987   0.826
  183TIP3    H2  556   2.665   5.888   0.745
  184TIP3   OH2  557   1.712   0.900   1.116
  184TIP3    H1  558   1.752   0.819   1.149
  184TIP3    H2  559   1.717   0.960   1.190
  185TIP3   OH2  560   1.981   4.320   2.546
  185TIP3    H1  561   2.014   4.403   2.510
  185TIP3    H2  562   1.893   4.341   2.578
  186TIP3   OH2  563   2.221   4.723   1.886
  186TIP3    H1  564   2.168   4.760   1.815
  186TIP3    H2  565   2.306   4.706   1.846
  187TIP3   OH2  566   1.662   2.867   4.445
  187TIP3    H1  567   1.583   2.898   4.401
  187TIP3    H2  568   1.729   2.863   4.376
  188TIP3   OH2  569   4.963   5.921   2.071
  188TIP3    H1  570   4.959   5.980   1.996
  188TIP3    H2  571   5.047   5.940   2.112
  189TIP3   OH2  572   5.393   1.926   1.098
  189TIP3    H1  573   5.355   2.012   1.112
  189TIP3    H2  574   5.352   1.894   1.017
  190TIP3   OH2  575   0.481   1.773   4.568
  190TIP3    H1  576   0.480   1.776   4.472
  190TIP3    H2  577   0.567   1.807   4.593
  191TIP3   OH2  578   1.850   5.373   2.404
  191TIP3    H1  579   1.897   5.418   2.475
  191TIP3    H2  580   1.913   5.369   2.332
  192TIP3   OH2  581   5.561   4.789   3.816
  192TIP3    H1  582   5.653   4.813   3.803
  192TIP3    H2  583   5.512   4.862   3.778
  193TIP3   OH2  584   3.286   0.310   0.133
  193TIP3    H1  585   3.224   0.381   0.152
  193TIP3    H2  586   3.237   0.250   0.077
  194TIP3   OH2  587   5.694   0.935   0.418
  194TIP3    H1  588   5.779   0.967   0.387
  194TIP3    H2  589   5.678   0.983   0.499
  195TIP3   OH2  590   3.743   1.285   2.350
  195TIP3    H1  591   3.767   1.305   2.441
  195TIP3    H2  592   3.811   1.327   2.298
  196TIP3   OH2  593   3.017   5.921   0.996
  196TIP3    H1  594   3.099   5.906   1.043
  196TIP3    H2  595   2.973   5.989   1.047
  197TIP3   OH2  596   3.171   2.338   4.646
  197TIP3    H1  597   3.183   2.410   4.584
  197TIP3    H2  598   3.088   2.297   4.621
  198TIP3   OH2  599   5.214   5.084   3.848
  198TIP3    H1  600   5.191   5.159   3.902
  198TIP3    H2  601   5.309   5.091   3.836
  199TIP3   OH2  602   1.848   0.179   3.145
  199TIP3    H1  603   1.756   0.153   3.137
  199TIP3    H2  604   1.862   0.241   3.073
  200TIP3   OH2  605   4.730   0.427   0.756
  200TIP3    H1  606   4.678   0.393   0.829
  200TIP3    H2  607   4.817   0.441   0.793
  201TIP3   OH2  608   5.811   3.292   3.286
  201TIP3    H1  609   5.865   3.285   3.207
  201TIP3    H2  610   5.787   3.385   3.290
  202TIP3   OH2  611   1.048   3.751   1.973
  202TIP3    H1  612   1.098   3.682   2.016
  202TIP3    H2  613   0.993   3.704   1.910
  203TIP3   OH2  614   3.386   3.329   1.373
  203TIP3    H1  615   3.455   3.337   1.306
  203TIP3    H2  616   3.333   3.407   1.362
  204TIP3   OH2  617   4.133   3.916   1.060
  204TIP3    H1  618   4.175   3.893   0.977
  204TIP3    H2  619   4.078   3.841   1.081
  205TIP3   OH2  620   2.446   1.502   4.283
  205TIP3    H1  621   2.454   1.414   4.245
  205TIP3    H2  622   2.353   1.523   4.274
  206TIP3   OH2  623   2.238   5.567   2.079
  206TIP3    H1  624   2.326   5.559   2.042
  206TIP3    H2  625   2.185   5.605   2.008
  207TIP3   OH2  626   2.279   0.781   1.084
  207TIP3    H1  627   2.206   0.840   1.101
  207TIP3    H2  628   2.357   0.833   1.100
  208TIP3   OH2  629   4.591   1.902   0.229
  208TIP3    H1  630   4.570   1.987   0.267
  208TIP3    H2  631   4.520   1.844   0.257
  209TIP3   OH2  632   0.817   4.225   0.835
  209TIP3    H1  633   0.906   4.223   0.869
  209TIP3    H2  634   0.782   4.138   0.854
  210TIP3   OH2  635   1.916   1.060   4.975
  210TIP3    H1  636   1.993   1.045   4.920
  210TIP3    H2  637   1.842   1.041   4.918
  211TIP3   OH2  638   3.192   5.423   0.748
  211TIP3    H1  639   3.161   5.418   0.839
  211TIP3    H2  640   3.277   5.380   0.749
  212TIP3   OH2  641   5.656   0.130   3.235
  212TIP3    H1  642   5.618   0.164   3.154
  212TIP3    H2  643   5.731   0.187   3.252
  213TIP3   OH2  644   6.069   1.704   4.744
  213TIP3    H1  645   6.082   1.626   4.689
  213TIP3    H2  646   6.050   1.774   4.682
  214TIP3   OH2  647   3.250   5.374   1.553
  214TIP3    H1  648   3.218   5.361   1.464
  214TIP3    H2  649   3.201   5.450   1.586
  215TIP3   OH2  650   3.432   3.636   0.954
  215TIP3    H1  651   3.468   3.705   0.899
  215TIP3    H2  652   3.373   3.587   0.895
  216TIP3   OH2  653   2.468   0.976   0.408
  216TIP3    H1  654   2.540   1.014   0.358
  216TIP3    H2  655   2.443   0.898   0.359
  217TIP3   OH2  656   0.038   3.031   3.425
  217TIP3    H1  657   0.119   3.052   3.470
  217TIP3    H2  658   0.060   3.035   3.332
  218TIP3   OH2  659   3.355   0.578   0.981
  218TIP3    H1  660   3.318   0.628   1.054
  218TIP3    H2  661   3.449   0.596   0.985
  219TIP3   OH2  662   1.225   5.793   1.632
  219TIP3    H1  663   1.250   5.863   1.572
  219TIP3    H2  664   1.234   5.831   1.719
  220TIP3   OH2  665   5.276   2.094   3.443
  220TIP3    H1  666   5.369   2.117   3.439
  220TIP3    H2  667   5.273   2.018   3.502
  221TIP3   OH2  668   5.365   3.969   3.732
  221TIP3    H1  669   5.393   4.053   3.696
  221TIP3    H2  670   5.447   3.925   3.757
  222TIP3   OH2  671   5.511   1.523   4.216
  222TIP3    H1  672   5.473   1.444   4.255
  222TIP3    H2  673   5.584   1.546   4.274
  223TIP3   OH2  674   2.713   5.627   1.616
  223TIP3    H1  675   2.763   5.696   1.658
  223TIP3    H2  676   2.750   5.621   1.527
  224TIP3   OH2  677   3.820   2.557   1.578
  224TIP3    H1  678   3.835   2.467   1.550
  224TIP3    H2  679   3.728   2.574   1.554
  225TIP3   OH2  680   6.002   3.959   4.218
  225TIP3    H1  681   6.094   3.958   4.247
  225TIP3    H2  682   5.998   3.891   4.150
  226TIP3   OH2  683   2.013   1.436   3.565
  226TIP3    H1  684   1.951   1.362   3.569
  226TIP3    H2  685   2.020   1.456   3.472
  227TIP3   OH2  686   0.263   0.808   2.211
  227TIP3    H1  687   0.305   0.759   2.139
  227TIP3    H2  688   0.228   0.740   2.268
  228TIP3   OH2  689   5.539   0.830   4.519
  228TIP3    H1  690   5.625   0.845   4.558
  228TIP3    H2  691   5.554   0.835   4.424
  229TIP3   OH2  692   3.180   1.766   1.836
  229TIP3    H1  693   3.223   1.819   1.769
  229TIP3    H2  694   3.110   1.720   1.790
  230TIP3   OH2  695   4.391   4.311   3.438
  230TIP3    H1  696   4.344   4.229   3.422
  230TIP3    H2  697   4.329   4.380   3.414
  231TIP3   OH2  698   4.904   3.298   2.794
  231TIP3    H1  699   4.975   3.298   2.730
  231TIP3    H2  700   4.869   3.387   2.792
  232TIP3   OH2  701   0.382   4.037   2.146
  232TIP3    H1  702   0.296   4.076   2.135
  232TIP3    H2  703   0.443   4.110   2.138
  233TIP3   OH2  704   3.779   3.022   2.683
  233TIP3    H1  705   3.838   2.956   2.719
  233TIP3    H2  706   3.836   3.095   2.659
  234TIP3   OH2  707   1.646   0.855   0.030
  234TIP3    H1  708   1.642   0.803  -0.050
  234TIP3    H2  709   1.739   0.858   0.052
  235TIP3   OH2  710   3.447   4.780   1.263
  235TIP3    H1  711   3.358   4.817   1.261
  235TIP3    H2  712   3.495   4.830   1.198
  236TIP3   OH2  713   0.301   3.539   3.808
  236TIP3    H1  714   0.278   3.461   3.757
  236TIP3    H2  715   0.289   3.612   3.747
  237TIP3   OH2  716   1.393   4.531   2.676
  237TIP3    H1  717   1.365   4.606   2.730
  237TIP3    H2  718   1.423   4.466   2.739
  238TIP3   OH2  719   1.049   3.871   3.098
  238TIP3    H1  720   1.018   3.903   3.183
  238TIP3    H2  721   1.127   3.924   3.079
  239TIP3   OH2  722   4.178   4.676   3.871
  239TIP3    H1  723   4.241   4.633   3.928
  239TIP3    H2  724   4.223   4.754   3.840
  240TIP3   OH2  725   3.072   0.197   2.749
  240TIP3    H1  726   3.120   0.273   2.714
  240TIP3    H2  727   3.015   0.234   2.816
  241TIP3   OH2  728   4.727   0.805   0.259
  241TIP3    H1  729   4.786   0.796   0.334
  241TIP3    H2  730   4.716   0.716   0.227
  242TIP3   OH2  731   5.298   4.928   0.832
  242TIP3    H1  732   5.260   4.871   0.765
  242TIP3    H2  733   5.230   4.994   0.848
  243TIP3   OH2  734   6.001   5.249   4.766
  243TIP3    H1  735   5.941   5.188   4.810
  243TIP3    H2  736   5.963   5.335   4.782
  244TIP3   OH2  737   5.100   2.100   0.553
  244TIP3    H1  738   5.164   2.125   0.486
  244TIP3    H2  739   5.021   2.079   0.503
  245TIP3   OH2  740   2.961   5.146   4.866
  245TIP3    H1  741   3.056   5.143   4.856
  245TIP3    H2  742   2.946   5.219   4.926
  246TIP3   OH2  743   2.301   4.992   1.036
  246TIP3    H1  744   2.268   4.947   0.958
  246TIP3    H2  745   2.387   4.952   1.052
  247TIP3   OH2  746   2.940   2.128   4.213
  247TIP3    H1  747   2.941   2.190   4.139
  247TIP3    H2  748   3.023   2.080   4.205
  248TIP3   OH2  749   4.681   3.111   4.649
  248TIP3    H1  750   4.638   3.028   4.671
  248TIP3    H2  751   4.628   3.148   4.579
  249TIP3   OH2  752   0.105   1.830   1.582
  249TIP3    H1  753   0.134   1.757   1.637
  249TIP3    H2  754   0.134   1.908   1.631
  250TIP3   OH2  755   0.296   4.766   1.234
  250TIP3    H1  756   0.242   4.800   1.306
  250TIP3    H2  757   0.377   4.737   1.276
  251TIP3   OH2  758   2.453   2.051   0.134
  251TIP3    H1  759   2.522   2.065   0.069
  251TIP3    H2  760   2.372   2.056   0.084
  252TIP3   OH2  761   4.448   4.034   2.727
  252TIP3    H1  762   4.457   4.065   2.637
  252TIP3    H2  763   4.383   4.093   2.766
  253TIP3   OH2  764   3.664   3.838   1.109
  253TIP3    H1  765   3.723   3.907   1.138
  253TIP3    H2  766   3.695   3.759   1.153
  254TIP3   OH2  767   1.223   5.693   1.121
  254TIP3    H1  768   1.205   5.769   1.065
  254TIP3    H2  769   1.259   5.730   1.201
  255TIP3   OH2  770   2.495   0.839   4.359
  255TIP3    H1  771   2.584   0.856   4.387
  255TIP3    H2  772   2.504   0.807   4.269
  256TIP3   OH2  773   1.435   0.271   2.089
  256TIP3    H1  774   1.496   0.198   2.098
  256TIP3    H2  775   1.349   0.229   2.083
  257TIP3   OH2  776   1.426   3.830   4.406
  257TIP3    H1  777   1.461   3.888   4.337
  257TIP3    H2  778   1.402   3.889   4.477
  258TIP3   OH2  779   3.937   4.691   0.279
  258TIP3    H1  780   3.896   4.777   0.269
  258TIP3    H2  781   4.031   4.709   0.282
  259TIP3   OH2  782   1.971   1.820   3.704
  259TIP3    H1  783   1.969   1.914   3.721
  259TIP3    H2  784   1.955   1.780   3.790
  260TIP3   OH2  785   3.703   5.502   2.532
  260TIP3    H1  786   3.705   5.407   2.545
  260TIP3    H2  787   3.685   5.537   2.619
  261TIP3   OH2  788   3.463   3.419   3.430
  261TIP3    H1  789   3.438   3.363   3.503
  261TIP3    H2  790   3.438   3.370   3.352
  262TIP3   OH2  791   0.486   4.349   2.901
  262TIP3    H1  792   0.580   4.334   2.895
  262TIP3    H2  793   0.450   4.262   2.922
  263TIP3   OH2  794   2.495   2.326   3.090
  263TIP3    H1  795   2.481   2.421   3.094
  263TIP3    H2  796   2.516   2.301   3.180
  264TIP3   OH2  797   5.493   5.396   2.502
  264TIP3    H1  798   5.444   5.475   2.525
  264TIP3    H2  799   5.445   5.325   2.544
  265TIP3   OH2  800   1.377   4.924   0.423
  265TIP3    H1  801   1.407   4.971   0.345
  265TIP3    H2  802   1.340   4.842   0.389
  266TIP3   OH2  803   1.679   1.408   3.211
  266TIP3    H1  804   1.591   1.422   3.175
  266TIP3    H2  805   1.738   1.425   3.137
  267TIP3   OH2  806   1.409   2.963   4.955
  267TIP3    H1  807   1.415   2.900   4.883
  267TIP3    H2  808   1.496   3.003   4.958
  268TIP3   OH2  809   3.817   3.890   4.755
  268TIP3    H1  810   3.816   3.826   4.684
  268TIP3    H2  811   3.765   3.963   4.722
  269TIP3   OH2  812   1.719   3.262   3.511
  269TIP3    H1  813   1.735   3.221   3.596
  269TIP3    H2  814   1.686   3.191   3.456
  270TIP3   OH2  815   5.592   0.632   2.657
  270TIP3    H1  816   5.582   0.726   2.670
  270TIP3    H2  817   5.685   0.616   2.672
  271TIP3   OH2  818   4.388   5.728   1.888
  271TIP3    H1  819   4.380   5.716   1.983
  271TIP3    H2  820   4.322   5.795   1.868
  272TIP3   OH2  821   3.848   4.155   1.720
  272TIP3    H1  822   3.824   4.080   1.665
  272TIP3    H2  823   3.838   4.231   1.663
  273TIP3   OH2  824   6.365   2.791   1.438
  273TIP3    H1  825   6.299   2.834   1.383
  273TIP3    H2  826   6.412   2.733   1.378
  274TIP3   OH2  827   4.748   4.846   1.648
  274TIP3    H1  828   4.818   4.910   1.634
  274TIP3    H2  829   4.680   4.894   1.695
  275TIP3   OH2  830   5.708   4.194   2.540
  275TIP3    H1  831   5.778   4.256   2.517
  275TIP3    H2  832   5.754   4.112   2.556
  276TIP3   OH2  833   4.413   1.867   3.873
  276TIP3    H1  834   4.370   1.801   3.928
  276TIP3    H2  835   4.487   1.897   3.925
  277TIP3   OH2  836   4.123   5.247   0.836
  277TIP3    H1  837   4.150   5.277   0.749
  277TIP3    H2  838   4.029   5.266   0.839
  278TIP3   OH2  839   0.132   3.903   1.721
  278TIP3    H1  840   0.195   3.973   1.706
  278TIP3    H2  841   0.098   3.919   1.809
  279TIP3   OH2  842   5.979   5.669   0.664
  279TIP3    H1  843   5.948   5.627   0.744
  279TIP3    H2  844   6.059   5.622   0.641
  280TIP3   OH2  845   2.443   5.367   1.730
  280TIP3    H1  846   2.538   5.356   1.719
  280TIP3    H2  847   2.424   5.452   1.691
  281TIP3   OH2  848   4.528   0.171   4.388
  281TIP3    H1  849   4.543   0.263   4.370
  281TIP3    H2  850   4.455   0.146   4.331
  282TIP3   OH2  851   2.626   4.470   0.259
  282TIP3    H1  852   2.595   4.407   0.194
  282TIP3    H2  853   2.581   4.552   0.237
  283TIP3   OH2  854   2.728   4.883   1.867
  283TIP3    H1  855   2.730   4.972   1.831
  283TIP3    H2  856   2.714   4.896   1.961
  284TIP3   OH2  857   1.185   0.101   3.741
  284TIP3    H1  858   1.253   0.146   3.790
  284TIP3    H2  859   1.103   0.132   3.780
  285TIP3   OH2  860   1.779   5.718   4.191
  285TIP3    H1  861   1.860   5.667   4.193
  285TIP3    H2  862   1.720   5.669   4.248
  286TIP3   OH2  863   1.374   5.615   2.393
  286TIP3    H1  864   1.332   5.700   2.377
  286TIP3    H2  865   1.458   5.621   2.348
  287TIP3   OH2  866   5.896   5.629   1.771
  287TIP3    H1  867   5.859   5.708   1.810
  287TIP3    H2  868   5.947   5.659   1.696
  288TIP3   OH2  869   4.109   4.695   2.687
  288TIP3    H1  870   4.193   4.726   2.721
  288TIP3    H2  871   4.092   4.751   2.611
  289TIP3   OH2  872   0.262   2.521   2.563
  289TIP3    H1  873   0.285   2.551   2.651
  289TIP3    H2  874   0.241   2.601   2.515
  290TIP3   OH2  875   4.213   1.214   3.272
  290TIP3    H1  876   4.202   1.188   3.364
  290TIP3    H2  877   4.129   1.252   3.248
  291TIP3   OH2  878   1.202   3.362   1.810
  291TIP3    H1  879   1.239   3.434   1.759
  291TIP3    H2  880   1.276   3.326   1.858
  292TIP3   OH2  881   1.250   0.830   3.143
  292TIP3    H1  882   1.269   0.909   3.092
  292TIP3    H2  883   1.221   0.766   3.079
  293TIP3   OH2  884   4.329   1.584   1.399
  293TIP3    H1  885   4.346   1.549   1.312
  293TIP3    H2  886   4.409   1.630   1.423
  294TIP3   OH2  887   6.235   5.446   1.482
  294TIP3    H1  888   6.324   5.447   1.447
  294TIP3    H2  889   6.179   5.435   1.405
  295TIP3   OH2  890   6.024   0.086   1.990
  295TIP3    H1  891   6.057   0.035   1.915
  295TIP3    H2  892   6.103   0.109   2.039
  296TIP3   OH2  893   3.233   2.761   4.076
  296TIP3    H1  894   3.248   2.757   3.982
  296TIP3    H2  895   3.183   2.681   4.096
  297TIP3   OH2  896   4.297   5.183   0.357
  297TIP3    H1  897   4.233   5.200   0.426
  297TIP3    H2  898   4.250   5.200   0.276
  298TIP3   OH2  899   5.581   0.820   1.944
  298TIP3    H1  900   5.525   0.857   2.013
  298TIP3    H2  901   5.529   0.749   1.906
  299TIP3   OH2  902   0.833   3.064   2.840
  299TIP3    H1  903   0.739   3.071   2.855
  299TIP3    H2  904   0.865   3.154   2.838
  300TIP3   OH2  905   4.563   2.965   1.143
  300TIP3    H1  906   4.480   2.925   1.169
  300TIP3    H2  907   4.584   2.925   1.058
  301TIP3   OH2  908   1.084   3.920   3.697
  301TIP3    H1  909   1.056   3.831   3.675
  301TIP3    H2  910   1.177   3.912   3.718
  302TIP3   OH2  911   1.831   5.093   4.031
  302TIP3    H1  912   1.811   5.186   4.022
  302TIP3    H2  913   1.770   5.050   3.971
  303TIP3   OH2  914   5.621   1.292   2.755
  303TIP3    H1  915   5.552   1.231   2.730
  303TIP3    H2  916   5.646   1.264   2.843
  304TIP3   OH2  917   2.183   2.692   2.583
  304TIP3    H1  918   2.109   2.749   2.605
  304TIP3    H2  919   2.144   2.605   2.575
  305TIP3   OH2  920   3.965   5.695   1.658
  305TIP3    H1  921   3.976   5.687   1.564
  305TIP3    H2  922   3.905   5.624   1.682
  306TIP3   OH2  923   5.068   4.793   3.920
  306TIP3    H1  924   5.104   4.738   3.851
  306TIP3    H2  925   5.076   4.882   3.886
  307TIP3   OH2  926   6.034   0.455   2.054
  307TIP3    H1  927   5.992   0.402   1.986
  307TIP3    H2  928   5.964   0.509   2.090
  308TIP3   OH2  929   2.589   0.534   2.304
  308TIP3    H1  930   2.508   0.485   2.305
  308TIP3    H2  931   2.566   0.619   2.341
  309TIP3   OH2  932   2.610   5.164   2.488
  309TIP3    H1  933   2.518   5.147   2.468
  309TIP3    H2  934   2.608   5.236   2.551
  310TIP3   OH2  935   0.150   4.540   4.706
  310TIP3    H1  936   0.245   4.532   4.713
  310TIP3    H2  937   0.124   4.595   4.780
  311TIP3   OH2  938   5.201   2.444   0.194
  311TIP3    H1  939   5.114   2.422   0.161
  311TIP3    H2  940   5.253   2.365   0.179
  312TIP3   OH2  941   2.738   0.827   0.647
  312TIP3    H1  942   2.646   0.848   0.664
  312TIP3    H2  943   2.785   0.859   0.724
  313TIP3   OH2  944   3.905   4.511   2.212
  313TIP3    H1  945   3.906   4.419   2.187
  313TIP3    H2  946   3.957   4.556   2.145
  314TIP3   OH2  947   5.373   3.636   1.313
  314TIP3    H1  948   5.334   3.549   1.314
  314TIP3    H2  949   5.322   3.685   1.248
  315TIP3   OH2  950   3.742   3.343   2.310
  315TIP3    H1  951   3.812   3.365   2.371
  315TIP3    H2  952   3.732   3.248   2.318
  316TIP3   OH2  953   5.137   2.651   4.624
  316TIP3    H1  954   5.159   2.563   4.655
  316TIP3    H2  955   5.055   2.673   4.667
  317TIP3   OH2  956   1.576   1.721   4.981
  317TIP3    H1  957   1.657   1.773   4.985
  317TIP3    H2  958   1.585   1.657   5.050
  318TIP3   OH2  959   0.534   5.427   1.942
  318TIP3    H1  960   0.464   5.369   1.974
  318TIP3    H2  961   0.603   5.367   1.913
  319TIP3   OH2  962   3.966   2.151   1.530
  319TIP3    H1  963   3.975   2.168   1.624
  319TIP3    H2  964   3.901   2.081   1.524
  320TIP3   OH2  965   0.830   3.189   1.519
  320TIP3    H1  966   0.778   3.257   1.561
  320TIP3    H2  967   0.917   3.227   1.509
  321TIP3   OH2  968   5.157   2.784   1.741
  321TIP3    H1  969   5.107   2.806   1.819
  321TIP3    H2  970   5.148   2.860   1.684
  322TIP3   OH2  971   5.522   4.400   0.142
  322TIP3    H1  972   5.589   4.382   0.076
  322TIP3    H2  973   5.562   4.465   0.199
  323TIP3   OH2  974   0.198   3.212   4.064
  323TIP3    H1  975   0.148   3.197   3.984
  323TIP3    H2  976   0.132   3.227   4.132
  324TIP3   OH2  977   6.089   3.700   3.400
  324TIP3    H1  978   6.148   3.725   3.471
  324TIP3    H2  979   6.005   3.737   3.424
  325TIP3   OH2  980   5.091   5.085   2.085
  325TIP3    H1  981   5.137   5.042   2.013
  325TIP3    H2  982   5.006   5.041   2.088
  326TIP3   OH2  983   1.206   5.345   2.846
  326TIP3    H1  984   1.213   5.404   2.772
  326TIP3    H2  985   1.160   5.396   2.913
  327TIP3   OH2  986   5.158   4.772   0.243
  327TIP3    H1  987   5.248   4.746   0.266
  327TIP3    H2  988   5.159   4.867   0.248
  328TIP3   OH2  989   5.962   1.803   2.876
  328TIP3    H1  990   6.031   1.806   2.809
  328TIP3    H2  991   5.942   1.895   2.893
  329TIP3   OH2  992   3.789   4.242   0.305
  329TIP3    H1  993   3.731   4.181   0.352
  329TIP3    H2  994   3.871   4.193   0.294
  330TIP3   OH2  995   6.019   4.623   1.423
  330TIP3    H1  996   6.016   4.528   1.432
  330TIP3    H2  997   5.931   4.653   1.447
  331TIP3   OH2  998   2.473   2.371   1.028
  331TIP3    H1  999   2.421   2.352   0.950
  331TIP3    H2 1000   2.517   2.453   1.008
  332TIP3   OH2 1001   3.470   0.976   3.543
  332TIP3    H1 1002   3.463   0.905   3.479
  332TIP3    H2 1003   3.496   0.934   3.624
  333TIP3   OH2 1004   0.125   4.325   0.694
  333TIP3    H1 1005   0.036   4.311   0.663
  333TIP3    H2 1006   0.116   4.385   0.768
  334TIP3   OH2 1007   1.266   1.578   5.244
  334TIP3    H1 1008   1.268   1.572   5.148
  334TIP3    H2 1009   1.335   1.641   5.265
  335TIP3   OH2 1010   3.433   2.912   0.542
  335TIP3    H1 1011   3.483   2.902   0.623
  335TIP3    H2 1012   3.408   3.005   0.541
  336TIP3   OH2 1013   3.859   0.184   1.466
  336TIP3    H1 1014   3.902   0.192   1.551
  336TIP3    H2 1015   3.880   0.266   1.421
  337TIP3   OH2 1016   3.798   3.023   3.893
  337TIP3    H1 1017   3.819   2.941   3.846
  337TIP3    H2 1018   3.800   3.090   3.825
  338TIP3   OH2 1019   5.909   1.771   2.245
  338TIP3    H1 1020   5.887   1.702   2.308
  338TIP3    H2 1021   5.824   1.800   2.210
  339TIP3   OH2 1022   3.141   1.292   0.560
  339TIP3    H1 1023   3.184   1.332   0.484
  339TIP3    H2 1024   3.157   1.353   0.632
  340TIP3   OH2 1025   2.706   1.778   3.546
  340TIP3    H1 1026   2.726   1.685   3.534
  340TIP3    H2 1027   2.785   1.815   3.586
  341TIP3   OH2 1028   4.831   2.952   2.623
  341TIP3    H1 1029   4.925   2.963   2.637
  341TIP3    H2 1030   4.815   2.988   2.536
  342TIP3   OH2 1031   0.668   1.510   2.298
  342TIP3    H1 1032   0.602   1.563   2.253
  342TIP3    H2 1033   0.627   1.424   2.307
  343TIP3   OH2 1034   0.926   1.115   5.074
  343TIP3    H1 1035   0.960   1.161   5.150
  343TIP3    H2 1036   0.848   1.069   5.107
  344TIP3   OH2 1037   5.830   1.366   0.046
  344TIP3    H1 1038   5.785   1.334   0.124
  344TIP3    H2 1039   5.765   1.422   0.002
  345TIP3   OH2 1040   0.482   2.417   0.741
  345TIP3    H1 1041   0.522   2.502   0.724
  345TIP3    H2 1042   0.454   2.386   0.655
  346TIP3   OH2 1043   0.742   0.529   0.114
  346TIP3    H1 1044   0.665   0.533   0.171
  346TIP3    H2 1045   0.763   0.621   0.096
  347TIP3   OH2 1046   1.288   5.092   3.218
  347TIP3    H1 1047   1.227   5.048   3.276
  347TIP3    H2 1048   1.277   5.048   3.133
  348TIP3   OH2 1049   2.090   1.965   1.783
  348TIP3    H1 1050   2.044   1.955   1.867
  348TIP3    H2 1051   2.036   1.917   1.721
  349TIP3   OH2 1052   1.093   0.585   2.617
  349TIP3    H1 1053   1.076   0.623   2.531
  349TIP3    H2 1054   1.006   0.579   2.658
  350TIP3   OH2 1055   4.428   1.910   1.224
  350TIP3    H1 1056   4.442   2.000   1.194
  350TIP3    H2 1057   4.333   1.900   1.229
  351TIP3   OH2 1058   3.463   0.111   2.423
  351TIP3    H1 1059   3.495   0.191   2.380
  351TIP3    H2 1060   3.472   0.129   2.516
  352TIP3   OH2 1061   0.974   1.256   4.058
  352TIP3    H1 1062   0.986   1.208   3.976
  352TIP3    H2 1063   0.880   1.266   4.068
  353TIP3   OH2 1064   4.548   1.215   0.161
  353TIP3    H1 1065   4.477   1.228   0.099
  353TIP3    H2 1066   4.600   1.144   0.125
  354TIP3   OH2 1067   5.927   1.432   4.912
  354TIP3    H1 1068   5.910   1.512   4.963
  354TIP3    H2 1069   6.022   1.422   4.914
  355TIP3   OH2 1070   2.678   3.407   2.144
  355TIP3    H1 1071   2.585   3.389   2.158
  355TIP3    H2 1072   2.680   3.495   2.108
  356TIP3   OH2 1073   4.859   0.515   1.074
  356TIP3    H1 1074   4.919   0.493   1.003
  356TIP3    H2 1075   4.826   0.602   1.052
  357TIP3   OH2 1076   4.586   0.251   3.891
  357TIP3    H1 1077   4.546   0.164   3.881
  357TIP3    H2 1078   4.680   0.234   3.894
  358TIP3   OH2 1079   1.631   4.589   3.961
  358TIP3    H1 1080   1.569   4.553   3.897
  358TIP3    H2 1081   1.588   4.666   3.996
  359TIP3   OH2 1082   4.310   3.634   0.645
  359TIP3    H1 1083   4.236   3.580   0.617
  359TIP3    H2 1084   4.279   3.724   0.636
  360TIP3   OH2 1085   1.337   1.886   4.977
  360TIP3    H1 1086   1.372   1.801   5.004
  360TIP3    H2 1087   1.298   1.870   4.891
  361TIP3   OH2 1088   3.141   3.735   2.711
  361TIP3    H1 1089   3.162   3.657   2.762
  361TIP3    H2 1090   3.196   3.729   2.633
  362TIP3   OH2 1091   2.732   4.785   2.227
  362TIP3    H1 1092   2.644   4.782   2.189
  362TIP3    H2 1093   2.791   4.774   2.153
  363TIP3   OH2 1094   4.478   5.112   4.889
  363TIP3    H1 1095   4.395   5.064   4.899
  363TIP3    H2 1096   4.545   5.045   4.899
  364TIP3   OH2 1097   1.169   3.010   2.596
  364TIP3    H1 1098   1.120   2.959   2.531
  364TIP3    H2 1099   1.210   2.945   2.652
  365TIP3   OH2 1100   3.321   4.034   1.114
  365TIP3    H1 1101   3.329   3.957   1.170
  365TIP3    H2 1102   3.409   4.071   1.113
  366TIP3   OH2 1103   3.080   2.725   0.549
  366TIP3    H1 1104   3.133   2.758   0.476
  366TIP3    H2 1105   3.006   2.681   0.507
  367TIP3   OH2 1106   3.848   3.521   4.765
  367TIP3    H1 1107   3.829   3.428   4.752
  367TIP3    H2 1108   3.885   3.525   4.853
  368TIP3   OH2 1109   3.519   4.217   1.142
  368TIP3    H1 1110   3.500   4.303   1.178
  368TIP3    H2 1111   3.505   4.226   1.048
  369TIP3   OH2 1112   1.076   1.520   3.994
  369TIP3    H1 1113   1.046   1.433   4.019
  369TIP3    H2 1114   1.168   1.523   4.022
  370TIP3   OH2 1115   3.771   2.244   2.553
  370TIP3    H1 1116   3.773   2.329   2.509
  370TIP3    H2 1117   3.751   2.181   2.484
  371TIP3   OH2 1118   3.732   5.585   4.882
  371TIP3    H1 1119   3.646   5.621   4.863
  371TIP3    H2 1120   3.779   5.589   4.799
  372TIP3   OH2 1121   4.030   3.674   0.733
  372TIP3    H1 1122   3.957   3.666   0.793
  372TIP3    H2 1123   4.021   3.600   0.673
  373TIP3   OH2 1124   6.302   5.470   2.177
  373TIP3    H1 1125   6.342   5.495   2.260
  373TIP3    H2 1126   6.370   5.485   2.112
  374TIP3   OH2 1127   5.675   1.723   0.363
  374TIP3    H1 1128   5.758   1.696   0.402
  374TIP3    H2 1129   5.609   1.672   0.410
  375TIP3   OH2 1130   1.406   1.184   0.527
  375TIP3    H1 1131   1.353   1.147   0.456
  375TIP3    H2 1132   1.378   1.275   0.532
  376TIP3   OH2 1133   0.395   1.470   2.166
  376TIP3    H1 1134   0.440   1.386   2.175
  376TIP3    H2 1135   0.385   1.482   2.072
  377TIP3   OH2 1136   1.537   1.570   0.851
  377TIP3    H1 1137   1.497   1.620   0.780
  377TIP3    H2 1138   1.525   1.624   0.928
  378TIP3   OH2 1139   4.035   0.970   0.824
  378TIP3    H1 1140   3.954   0.919   0.814
  378TIP3    H2 1141   4.056   0.999   0.735
  379TIP3   OH2 1142   3.633   4.761   0.722
  379TIP3    H1 1143   3.645   4.788   0.631
  379TIP3    H2 1144   3.610   4.841   0.768
  380TIP3   OH2 1145   4.401   2.953   3.908
  380TIP3    H1 1146   4.492   2.968   3.884
  380TIP3    H2 1147   4.405   2.922   3.999
  381TIP3   OH2 1148   4.603   5.051   1.857
  381TIP3    H1 1149   4.660   5.114   1.814
  381TIP3    H2 1150   4.657   5.012   1.926
  382TIP3   OH2 1151   2.729   1.491   3.439
  382TIP3    H1 1152   2.763   1.410   3.399
  382TIP3    H2 1153   2.653   1.462   3.490
  383TIP3   OH2 1154   2.233   1.246   0.801
  383TIP3    H1 1155   2.241   1.266   0.707
  383TIP3    H2 1156   2.164   1.180   0.806
  384TIP3   OH2 1157   2.962   2.498   3.584
  384TIP3    H1 1158   2.932   2.424   3.531
  384TIP3    H2 1159   2.883   2.532   3.625
  385TIP3   OH2 1160   0.528   0.753   2.821
  385TIP3    H1 1161   0.617   0.786   2.808
  385TIP3    H2 1162   0.487   0.759   2.735
  386TIP3   OH2 1163   5.367   5.556   0.053
  386TIP3    H1 1164   5.366   5.651   0.044
  386TIP3    H2 1165   5.326   5.524  -0.028
  387TIP3   OH2 1166   1.441   4.805   4.062
  387TIP3    H1 1167   1.377   4.735   4.073
  387TIP3    H2 1168   1.403   4.862   3.996
  388TIP3   OH2 1169   5.688   1.491   4.005
  388TIP3    H1 1170   5.636   1.445   3.939
  388TIP3    H2 1171   5.628   1.504   4.078
  389TIP3   OH2 1172   5.990   0.493   0.636
  389TIP3    H1 1173   5.922   0.560   0.629
  389TIP3    H2 1174   5.989   0.468   0.728
  390TIP3   OH2 1175   1.486   0.370   0.338
  390TIP3    H1 1176   1.512   0.278   0.346
  390TIP3    H2 1177   1.470   0.398   0.428
  391TIP3   OH2 1178   6.058   5.408   1.788
  391TIP3    H1 1179   6.030   5.403   1.880
  391TIP3    H2 1180   5.984   5.447   1.742
  392TIP3   OH2 1181   3.388   5.476   4.686
  392TIP3    H1 1182   3.465   5.421   4.682
  392TIP3    H2 1183   3.421   5.563   4.709
  393TIP3   OH2 1184   1.616   1.053   0.370
  393TIP3    H1 1185   1.545   0.989   0.370
  393TIP3    H2 1186   1.602   1.105   0.448
  394TIP3   OH2 1187   5.537   2.604   3.794
  394TIP3    H1 1188   5.545   2.588   3.888
  394TIP3    H2 1189   5.598   2.542   3.754
  395TIP3   OH2 1190   4.770   2.390   1.679
  395TIP3    H1 1191   4.853   2.369   1.635
  395TIP3    H2 1192   4.719   2.435   1.612
  396TIP3   OH2 1193   6.286   3.423   4.468
  396TIP3    H1 1194   6.326   3.373   4.396
  396TIP3    H2 1195   6.287   3.363   4.542
  397TIP3   OH2 1196   1.925   2.745   1.832
  397TIP3    H1 1197   1.835   2.775   1.837
  397TIP3    H2 1198   1.969   2.809   1.776
  398TIP3   OH2 1199   3.867   2.901   3.175
  398TIP3    H1 1200   3.939   2.919   3.115
  398TIP3    H2 1201   3.795   2.873   3.118
  399TIP3   OH2 1202   2.938   1.052   0.634
  399TIP3    H1 1203   2.920   1.146   0.632
  399TIP3    H2 1204   2.853   1.010   0.621
  400TIP3   OH2 1205   3.568   5.853   1.726
  400TIP3    H1 1206   3.599   5.766   1.700
  400TIP3    H2 1207   3.486   5.836   1.772
  401TIP3   OH2 1208   0.174   4.848   0.060
  401TIP3    H1 1209   0.223   4.818   0.137
  401TIP3    H2 1210   0.234   4.909   0.017
  402TIP3   OH2 1211   0.383   4.233   0.997
  402TIP3    H1 1212   0.464   4.212   1.045
  402TIP3    H2 1213   0.390   4.182   0.916
  403TIP3   OH2 1214   4.849   2.893   3.662
  403TIP3    H1 1215   4.793   2.818   3.641
  403TIP3    H2 1216   4.867   2.884   3.755
  404TIP3   OH2 1217   3.963   4.911   0.730
  404TIP3    H1 1218   4.005   4.837   0.774
  404TIP3    H2 1219   4.032   4.950   0.677
  405TIP3   OH2 1220   1.674   4.682   1.698
  405TIP3    H1 1221   1.720   4.703   1.780
  405TIP3    H2 1222   1.689   4.589   1.685
  406TIP3   OH2 1223   2.283   3.063   0.511
  406TIP3    H1 1224   2.314   3.107   0.432
  406TIP3    H2 1225   2.251   3.134   0.567
  407TIP3   OH2 1226   2.837   2.791   3.307
  407TIP3    H1 1227   2.929   2.816   3.296
  407TIP3    H2 1228   2.789   2.847   3.247
  408TIP3   OH2 1229   0.028   5.544   3.459
  408TIP3    H1 1230   0.098   5.549   3.525
  408TIP3    H2 1231  -0.042   5.496   3.503
  409TIP3   OH2 1232   2.037   3.909   1.065
  409TIP3    H1 1233   2.080   3.993   1.081
  409TIP3    H2 1234   2.004   3.883   1.151
  410TIP3   OH2 1235   3.230   2.550   2.810
  410TIP3    H1 1236   3.158   2.592   2.855
  410TIP3    H2 1237   3.294   2.620   2.795
  411TIP3   OH2 1238   4.678   4.398   0.587
  411TIP3    H1 1239   4.750   4.446   0.628
  411TIP3    H2 1240   4.614   4.385   0.658
  412TIP3   OH2 1241   1.789   2.463   3.711
  412TIP3    H1 1242   1.702   2.493   3.687
  412TIP3    H2 1243   1.776   2.410   3.789
  413TIP3   OH2 1244   1.119   4.825   0.671
  413TIP3    H1 1245   1.182   4.880   0.624
  413TIP3    H2 1246   1.167   4.794   0.748
  414TIP3   OH2 1247   2.435   5.225   4.706
  414TIP3    H1 1248   2.396   5.137   4.702
  414TIP3    H2 1249   2.484   5.232   4.624
  415TIP3   OH2 1250   1.159   0.618   4.596
  415TIP3    H1 1251   1.211   0.593   4.519
  415TIP3    H2 1252   1.142   0.535   4.641
  416TIP3   OH2 1253   3.004   2.558   4.986
  416TIP3    H1 1254   3.077   2.554   4.924
  416TIP3    H2 1255   3.009   2.646   5.023
  417TIP3   OH2 1256   2.647   1.751   5.200
  417TIP3    H1 1257   2.629   1.773   5.109
  417TIP3    H2 1258   2.735   1.712   5.198
  418TIP3   OH2 1259   0.045   3.429   0.297
  418TIP3    H1 1260   0.080   3.477   0.222
  418TIP3    H2 1261   0.107   3.357   0.309
  419TIP3   OH2 1262   1.838   1.438   4.373
  419TIP3    H1 1263   1.893   1.411   4.447
  419TIP3    H2 1264   1.814   1.529   4.392
  420TIP3   OH2 1265   4.054   5.970   2.814
  420TIP3    H1 1266   4.108   6.037   2.773
  420TIP3    H2 1267   3.964   5.992   2.790
  421TIP3   OH2 1268   2.702   0.047   0.616
  421TIP3    H1 1269   2.721   0.099   0.694
  421TIP3    H2 1270   2.606   0.047   0.610
  422TIP3   OH2 1271   1.787   1.246   0.238
  422TIP3    H1 1272   1.823   1.309   0.300
  422TIP3    H2 1273   1.733   1.188   0.292
  423TIP3   OH2 1274   2.320   5.903   0.433
  423TIP3    H1 1275   2.228   5.915   0.457
  423TIP3    H2 1276   2.362   5.984   0.463
  424TIP3   OH2 1277   2.640   2.155   3.884
  424TIP3    H1 1278   2.565   2.157   3.944
  424TIP3    H2 1279   2.649   2.062   3.861
  425TIP3   OH2 1280   4.890   2.331   4.538
  425TIP3    H1 1281   4.964   2.332   4.599
  425TIP3    H2 1282   4.823   2.280   4.583
  426TIP3   OH2 1283   0.648   5.644   2.524
  426TIP3    H1 1284   0.672   5.661   2.433
  426TIP3    H2 1285   0.652   5.729   2.567
  427TIP3   OH2 1286   0.675   4.958   0.940
  427TIP3    H1 1287   0.677   4.866   0.913
  427TIP3    H2 1288   0.604   4.962   1.004
  428TIP3   OH2 1289   0.248   2.363   5.094
  428TIP3    H1 1290   0.337   2.333   5.115
  428TIP3    H2 1291   0.214   2.298   5.033
  429TIP3   OH2 1292   2.539   4.821   2.816
  429TIP3    H1 1293   2.465   4.768   2.843
  429TIP3    H2 1294   2.501   4.887   2.757
  430TIP3   OH2 1295   4.768   5.190   1.301
  430TIP3    H1 1296   4.682   5.212   1.337
  430TIP3    H2 1297   4.779   5.250   1.227
  431TIP3   OH2 1298   3.750   0.509   1.511
  431TIP3    H1 1299   3.796   0.504   1.595
  431TIP3    H2 1300   3.663   0.475   1.529
  432TIP3   OH2 1301   0.673   4.669   1.908
  432TIP3    H1 1302   0.597   4.686   1.964
  432TIP3    H2 1303   0.744   4.719   1.948
  433TIP3   OH2 1304   5.211   4.876  -0.042
  433TIP3    H1 1305   5.191   4.844   0.046
  433TIP3    H2 1306   5.303   4.852  -0.056
  434TIP3   OH2 1307   1.339   3.563   0.882
  434TIP3    H1 1308   1.295   3.567   0.967
  434TIP3    H2 1309   1.368   3.472   0.874
  435TIP3   OH2 1310   1.547   4.000   0.441
  435TIP3    H1 1311   1.466   4.048   0.454
  435TIP3    H2 1312   1.570   3.967   0.528
  436TIP3   OH2 1313   3.059   4.173   3.263
  436TIP3    H1 1314   3.018   4.095   3.301
  436TIP3    H2 1315   3.130   4.193   3.324
  437TIP3   OH2 1316   0.522   2.483   4.902
  437TIP3    H1 1317   0.520   2.508   4.994
  437TIP3    H2 1318   0.606   2.438   4.891
  438TIP3   OH2 1319   0.255   2.627   5.034
  438TIP3    H1 1320   0.256   2.532   5.033
  438TIP3    H2 1321   0.295   2.651   5.117
  439TIP3   OH2 1322   4.473   0.583   4.784
  439TIP3    H1 1323   4.422   0.663   4.799
  439TIP3    H2 1324   4.561   0.605   4.816
  440TIP3   OH2 1325   4.375   2.586   0.786
  440TIP3    H1 1326   4.433   2.623   0.852
  440TIP3    H2 1327   4.288   2.587   0.826
  441TIP3   OH2 1328   3.811   4.486   0.434
  441TIP3    H1 1329   3.843   4.550   0.371
  441TIP3    H2 1330   3.825   4.401   0.392
  442TIP3   OH2 1331   1.612   5.435   3.306
  442TIP3    H1 1332   1.540   5.461   3.249
  442TIP3    H2 1333   1.576   5.362   3.357
  443TIP3   OH2 1334   6.084   1.969   2.143
  443TIP3    H1 1335   6.056   2.061   2.147
  443TIP3    H2 1336   6.018   1.922   2.194
  444TIP3   OH2 1337   0.434   3.565   3.342
  444TIP3    H1 1338   0.430   3.489   3.283
  444TIP3    H2 1339   0.343   3.594   3.349
  445TIP3   OH2 1340   0.730   3.736   4.744
  445TIP3    H1 1341   0.637   3.736   4.722
  445TIP3    H2 1342   0.764   3.655   4.707
  446TIP3   OH2 1343   5.025   1.023   1.814
  446TIP3    H1 1344   4.981   1.108   1.808
  446TIP3    H2 1345   4.989   0.982   1.893
  447TIP3   OH2 1346   1.257   4.537   2.404
  447TIP3    H1 1347   1.292   4.558   2.491
  447TIP3    H2 1348   1.316   4.583   2.343
  448TIP3   OH2 1349   2.172   1.411   4.770
  448TIP3    H1 1350   2.090   1.425   4.723
  448TIP3    H2 1351   2.238   1.407   4.701
  449TIP3   OH2 1352   4.802   3.433   4.443
  449TIP3    H1 1353   4.767   3.368   4.382
  449TIP3    H2 1354   4.750   3.512   4.427
  450TIP3   OH2 1355   4.972   1.229   2.519
  450TIP3    H1 1356   4.922   1.265   2.446
  450TIP3    H2 1357   5.020   1.303   2.555
  451TIP3   OH2 1358   3.532   5.001   3.541
  451TIP3    H1 1359   3.627   4.997   3.536
  451TIP3    H2 1360   3.514   5.044   3.624
  452TIP3   OH2 1361   5.444   0.627   5.041
  452TIP3    H1 1362   5.370   0.597   4.988
  452TIP3    H2 1363   5.518   0.625   4.980
  453TIP3   OH2 1364   3.518   1.560   2.217
  453TIP3    H1 1365   3.456   1.611   2.164
  453TIP3    H2 1366   3.601   1.567   2.171
  454TIP3   OH2 1367   1.425   4.237   0.910
  454TIP3    H1 1368   1.359   4.241   0.979
  454TIP3    H2 1369   1.378   4.199   0.835
  455TIP3   OH2 1370   5.398   1.012   5.026
  455TIP3    H1 1371   5.335   0.959   4.977
  455TIP3    H2 1372   5.468   1.030   4.963
  456TIP3   OH2 1373   1.428   5.418   3.853
  456TIP3    H1 1374   1.368   5.492   3.864
  456TIP3    H2 1375   1.380   5.356   3.798
  457TIP3   OH2 1376   2.199   5.578   5.179
  457TIP3    H1 1377   2.216   5.520   5.254
  457TIP3    H2 1378   2.237   5.532   5.105
  458TIP3   OH2 1379   0.690   5.507   3.531
  458TIP3    H1 1380   0.693   5.509   3.626
  458TIP3    H2 1381   0.602   5.538   3.508
  459TIP3   OH2 1382   5.733   3.572   3.331
  459TIP3    H1 1383   5.760   3.661   3.355
  459TIP3    H2 1384   5.655   3.556   3.384
  460TIP3   OH2 1385   6.125   0.858   5.217
  460TIP3    H1 1386   6.188   0.808   5.269
  460TIP3    H2 1387   6.063   0.793   5.184
  461TIP3   OH2 1388   3.802   1.977   0.137
  461TIP3    H1 1389   3.712   1.974   0.107
  461TIP3    H2 1390   3.851   1.924   0.073
  462TIP3   OH2 1391   4.208   3.923   4.025
  462TIP3    H1 1392   4.280   3.934   4.088
  462TIP3    H2 1393   4.251   3.913   3.941
  463TIP3   OH2 1394   1.972   0.113   3.594
  463TIP3    H1 1395   2.005   0.121   3.683
  463TIP3    H2 1396   1.876   0.118   3.603
  464TIP3   OH2 1397   3.044   2.562   2.331
  464TIP3    H1 1398   2.995   2.556   2.413
  464TIP3    H2 1399   3.126   2.516   2.349
  465TIP3   OH2 1400   5.093   0.104   1.195
  465TIP3    H1 1401   5.046   0.048   1.256
  465TIP3    H2 1402   5.040   0.184   1.190
  466TIP3   OH2 1403   1.780   5.337   0.287
  466TIP3    H1 1404   1.781   5.242   0.296
  466TIP3    H2 1405   1.720   5.368   0.354
  467TIP3   OH2 1406   3.427   2.089   2.460
  467TIP3    H1 1407   3.419   2.143   2.381
  467TIP3    H2 1408   3.383   2.141   2.528
  468TIP3   OH2 1409   5.147   3.818   2.586
  468TIP3    H1 1410   5.078   3.884   2.594
  468TIP3    H2 1411   5.203   3.833   2.662
  469TIP3   OH2 1412   4.961   4.139   1.469
  469TIP3    H1 1413   4.968   4.147   1.374
  469TIP3    H2 1414   5.034   4.190   1.503
  470TIP3   OH2 1415   4.284   3.275   2.425
  470TIP3    H1 1416   4.192   3.299   2.424
  470TIP3    H2 1417   4.328   3.349   2.382
  471TIP3   OH2 1418   1.511   2.363   1.394
  471TIP3    H1 1419   1.448   2.433   1.379
  471TIP3    H2 1420   1.489   2.328   1.480
  472TIP3   OH2 1421   3.322   4.758   4.408
  472TIP3    H1 1422   3.324   4.670   4.373
  472TIP3    H2 1423   3.334   4.815   4.332
  473TIP3   OH2 1424   6.111   5.444   2.484
  473TIP3    H1 1425   6.074   5.500   2.416
  473TIP3    H2 1426   6.206   5.456   2.477
  474TIP3   OH2 1427   4.234   2.091   3.027
  474TIP3    H1 1428   4.316   2.139   3.015
  474TIP3    H2 1429   4.166   2.150   2.995
  475TIP3   OH2 1430   3.499   5.763   1.478
  475TIP3    H1 1431   3.489   5.844   1.529
  475TIP3    H2 1432   3.417   5.756   1.428
  476TIP3   OH2 1433   2.678   2.769   2.351
  476TIP3    H1 1434   2.729   2.701   2.308
  476TIP3    H2 1435   2.708   2.851   2.310
  477TIP3   OH2 1436   5.669   4.903   2.117
  477TIP3    H1 1437   5.726   4.937   2.186
  477TIP3    H2 1438   5.582   4.899   2.158
  478TIP3   OH2 1439   5.655   2.543   4.084
  478TIP3    H1 1440   5.737   2.591   4.072
  478TIP3    H2 1441   5.600   2.601   4.135
  479TIP3   OH2 1442   0.817   3.365   2.466
  479TIP3    H1 1443   0.756   3.309   2.513
  479TIP3    H2 1444   0.903   3.324   2.480
  480TIP3   OH2 1445   0.497   1.970   4.045
  480TIP3    H1 1446   0.494   1.888   3.995
  480TIP3    H2 1447   0.586   1.972   4.080
  481TIP3   OH2 1448   1.946   3.312   4.746
  481TIP3    H1 1449   1.909   3.369   4.814
  481TIP3    H2 1450   1.972   3.233   4.793
  482TIP3   OH2 1451   5.562   4.076   1.590
  482TIP3    H1 1452   5.606   4.048   1.670
  482TIP3    H2 1453   5.542   4.168   1.605
  483TIP3   OH2 1454   3.286   1.691   3.691
  483TIP3    H1 1455   3.270   1.622   3.627
  483TIP3    H2 1456   3.199   1.710   3.728
  484TIP3   OH2 1457   0.047   1.530   4.260
  484TIP3    H1 1458  -0.012   1.592   4.304
  484TIP3    H2 1459   0.060   1.460   4.324
  485TIP3   OH2 1460   3.170   5.298   4.624
  485TIP3    H1 1461   3.218   5.226   4.664
  485TIP3    H2 1462   3.225   5.375   4.640
  486TIP3   OH2 1463   2.616   2.131   2.897
  486TIP3    H1 1464   2.571   2.204   2.939
  486TIP3    H2 1465   2.591   2.055   2.949
  487TIP3   OH2 1466   6.219   0.479   1.163
  487TIP3    H1 1467   6.280   0.407   1.151
  487TIP3    H2 1468   6.133   0.441   1.141
  488TIP3   OH2 1469   0.232   5.640   1.355
  488TIP3    H1 1470   0.189   5.684   1.428
  488TIP3    H2 1471   0.179   5.563   1.338
  489TIP3   OH2 1472   2.067   4.486   4.728
  489TIP3    H1 1473   2.047   4.544   4.802
  489TIP3    H2 1474   2.134   4.427   4.761
  490TIP3   OH2 1475   4.557   1.634   1.696
  490TIP3    H1 1476   4.526   1.649   1.607
  490TIP3    H2 1477   4.544   1.541   1.712
  491TIP3   OH2 1478   3.165   0.140   2.363
  491TIP3    H1 1479   3.255   0.155   2.334
  491TIP3    H2 1480   3.167   0.159   2.457
  492TIP3   OH2 1481   4.041   0.177   3.087
  492TIP3    H1 1482   4.131   0.173   3.054
  492TIP3    H2 1483   4.013   0.266   3.070
  493TIP3   OH2 1484   5.262   2.414   1.505
  493TIP3    H1 1485   5.277   2.505   1.532
  493TIP3    H2 1486   5.296   2.409   1.416
  494TIP3   OH2 1487   1.783   5.447   2.979
  494TIP3    H1 1488   1.702   5.441   2.929
  494TIP3    H2 1489   1.767   5.517   3.042
  495TIP3   OH2 1490   2.819   4.988   2.445
  495TIP3    H1 1491   2.751   5.046   2.480
  495TIP3    H2 1492   2.774   4.937   2.377
  496TIP3   OH2 1493   0.291   3.045   1.605
  496TIP3    H1 1494   0.300   2.961   1.559
  496TIP3    H2 1495   0.197   3.064   1.601
  497TIP3   OH2 1496   4.890   2.067   4.671
  497TIP3    H1 1497   4.983   2.063   4.693
  497TIP3    H2 1498   4.848   2.098   4.752
  498TIP3   OH2 1499   4.194   4.495   4.409
  498TIP3    H1 1500   4.283   4.475   4.439
  498TIP3    H2 1501   4.200   4.494   4.314
  499TIP3   OH2 1502   2.444   5.381   2.277
  499TIP3    H1 1503   2.406   5.418   2.197
  499TIP3    H2 1504   2.487   5.455   2.320
  500TIP3   OH2 1505   5.204   5.767   0.601
  500TIP3    H1 1506   5.261   5.697   0.632
  500TIP3    H2 1507   5.259   5.844   0.599
  501TIP3   OH2 1508   2.185   1.270   1.475
  501TIP3    H1 1509   2.112   1.279   1.413
  501TIP3    H2 1510   2.221   1.184   1.456
  502TIP3   OH2 1511   2.838   1.562   3.822
  502TIP3    H1 1512   2.915   1.537   3.771
  502TIP3    H2 1513   2.841   1.657   3.826
  503TIP3   OH2 1514   1.270   3.248   0.335
  503TIP3    H1 1515   1.177   3.271   0.339
  503TIP3    H2 1516   1.314   3.331   0.317
  504TIP3   OH2 1517   6.071   4.897   2.090
  504TIP3    H1 1518   6.066   4.887   1.995
  504TIP3    H2 1519   6.010   4.969   2.109
  505TIP3   OH2 1520   0.640   1.875   3.798
  505TIP3    H1 1521   0.554   1.904   3.767
  505TIP3    H2 1522   0.688   1.957   3.814
  506TIP3   OH2 1523   5.524   0.730   3.818
  506TIP3    H1 1524   5.456   0.761   3.877
  506TIP3    H2 1525   5.477   0.697   3.742
  507TIP3   OH2 1526   3.704   1.205   2.788
  507TIP3    H1 1527   3.787   1.157   2.785
  507TIP3    H2 1528   3.715   1.276   2.725
  508TIP3   OH2 1529   6.133   3.433   0.008
  508TIP3    H1 1530   6.074   3.364  -0.022
  508TIP3    H2 1531   6.212   3.423  -0.046
  509TIP3   OH2 1532   1.451   3.012   2.947
  509TIP3    H1 1533   1.488   3.069   3.014
  509TIP3    H2 1534   1.480   3.050   2.864
  510TIP3   OH2 1535   3.541   0.959   2.686
  510TIP3    H1 1536   3.613   0.999   2.638
  510TIP3    H2 1537   3.471   1.025   2.684
  511TIP3   OH2 1538   2.267   2.142   1.636
  511TIP3    H1 1539   2.342   2.201   1.636
  511TIP3    H2 1540   2.220   2.162   1.555
  512TIP3   OH2 1541   1.554   4.036   2.452
  512TIP3    H1 1542   1.636   4.036   2.501
  512TIP3    H2 1543   1.496   4.095   2.501
  513TIP3   OH2 1544   3.629   4.123   2.926
  513TIP3    H1 1545   3.546   4.145   2.884
  513TIP3    H2 1546   3.648   4.198   2.982
  514TIP3   OH2 1547   4.232   3.386   3.531
  514TIP3    H1 1548   4.222   3.457   3.595
  514TIP3    H2 1549   4.281   3.426   3.459
  515TIP3   OH2 1550   2.414   0.142   2.936
  515TIP3    H1 1551   2.489   0.095   2.902
  515TIP3    H2 1552   2.355   0.154   2.861
  516TIP3   OH2 1553   1.908   0.525   1.543
  516TIP3    H1 1554   1.835   0.519   1.482
  516TIP3    H2 1555   1.869   0.553   1.625
  517TIP3   OH2 1556   4.717   1.143   3.404
  517TIP3    H1 1557   4.741   1.235   3.415
  517TIP3    H2 1558   4.695   1.135   3.312
  518TIP3   OH2 1559   4.646   5.533   2.827
  518TIP3    H1 1560   4.645   5.439   2.807
  518TIP3    H2 1561   4.728   5.565   2.789
  519TIP3   OH2 1562   0.972   2.689   3.096
  519TIP3    H1 1563   1.040   2.722   3.037
  519TIP3    H2 1564   0.890   2.717   3.056
  520TIP3   OH2 1565   4.315   4.059   3.354
  520TIP3    H1 1566   4.383   4.015   3.302
  520TIP3    H2 1567   4.248   4.083   3.290
  521TIP3   OH2 1568   1.469   5.531   0.650
  521TIP3    H1 1569   1.420   5.451   0.669
  521TIP3    H2 1570   1.471   5.578   0.734
  522TIP3   OH2 1571   6.189   3.547   3.849
  522TIP3    H1 1572   6.171   3.494   3.771
  522TIP3    H2 1573   6.254   3.611   3.819
  523TIP3   OH2 1574   5.841   0.566   0.289
  523TIP3    H1 1575   5.783   0.546   0.215
  523TIP3    H2 1576   5.793   0.535   0.366
  524TIP3   OH2 1577   1.303   4.609   4.515
  524TIP3    H1 1578   1.253   4.665   4.455
  524TIP3    H2 1579   1.238   4.571   4.573
  525TIP3   OH2 1580   1.321   0.885   3.401
  525TIP3    H1 1581   1.375   0.964   3.403
  525TIP3    H2 1582   1.307   0.869   3.307
  526TIP3   OH2 1583   1.322   0.425   2.381
  526TIP3    H1 1584   1.389   0.475   2.334
  526TIP3    H2 1585   1.242   0.475   2.368
  527TIP3   OH2 1586   3.379   1.397   4.618
  527TIP3    H1 1587   3.305   1.367   4.671
  527TIP3    H2 1588   3.455   1.354   4.656
  528TIP3   OH2 1589   0.296   5.203   1.203
  528TIP3    H1 1590   0.369   5.218   1.262
  528TIP3    H2 1591   0.237   5.144   1.251
  529TIP3   OH2 1592   3.496   4.363   3.693
  529TIP3    H1 1593   3.406   4.352   3.724
  529TIP3    H2 1594   3.490   4.427   3.623
  530TIP3   OH2 1595   3.416   4.351   4.547
  530TIP3    H1 1596   3.472   4.313   4.615
  530TIP3    H2 1597   3.467   4.424   4.512
  531TIP3   OH2 1598   1.044   1.390   1.971
  531TIP3    H1 1599   1.102   1.363   1.901
  531TIP3    H2 1600   1.086   1.358   2.051
  532TIP3   OH2 1601   3.605   2.578   1.079
  532TIP3    H1 1602   3.693   2.574   1.115
  532TIP3    H2 1603   3.555   2.513   1.128
  533TIP3   OH2 1604   1.241   3.977   1.060
  533TIP3    H1 1605   1.185   3.899   1.065
  533TIP3    H2 1606   1.301   3.968   1.134
  534TIP3   OH2 1607   0.865   4.706   0.356
  534TIP3    H1 1608   0.881   4.770   0.286
  534TIP3    H2 1609   0.882   4.621   0.315
  535TIP3   OH2 1610   2.468   4.063   0.221
  535TIP3    H1 1611   2.493   4.107   0.303
  535TIP3    H2 1612   2.533   4.093   0.157
  536TIP3   OH2 1613   4.658   0.047   1.267
  536TIP3    H1 1614   4.748   0.067   1.293
  536TIP3    H2 1615   4.631  -0.025   1.324
  537TIP3   OH2 1616   6.039   3.496   2.101
  537TIP3    H1 1617   6.104   3.439   2.059
  537TIP3    H2 1618   6.047   3.476   2.195
  538TIP3   OH2 1619   3.544   5.917   2.547
  538TIP3    H1 1620   3.551   5.952   2.458
  538TIP3    H2 1621   3.452   5.928   2.571
  539TIP3   OH2 1622   5.443   3.648   2.711
  539TIP3    H1 1623   5.403   3.704   2.778
  539TIP3    H2 1624   5.382   3.575   2.702
  540TIP3   OH2 1625   6.243   0.786   1.549
  540TIP3    H1 1626   6.227   0.739   1.631
  540TIP3    H2 1627   6.197   0.735   1.482
  541TIP3   OH2 1628   4.860   4.018   5.101
  541TIP3    H1 1629   4.871   4.006   5.006
  541TIP3    H2 1630   4.947   4.004   5.137
  542TIP3   OH2 1631   2.803   1.886   2.216
  542TIP3    H1 1632   2.826   1.962   2.270
  542TIP3    H2 1633   2.874   1.880   2.152
  543TIP3   OH2 1634   1.217   3.877   2.691
  543TIP3    H1 1635   1.282   3.939   2.725
  543TIP3    H2 1636   1.268   3.799   2.668
  544TIP3   OH2 1637   1.118   5.521   1.650
  544TIP3    H1 1638   1.161   5.606   1.664
  544TIP3    H2 1639   1.055   5.537   1.580
  545TIP3   OH2 1640   3.561   3.717   1.999
  545TIP3    H1 1641   3.495   3.706   2.068
  545TIP3    H2 1642   3.546   3.644   1.940
  546TIP3   OH2 1643   6.129   5.415   3.368
  546TIP3    H1 1644   6.063   5.346   3.370
  546TIP3    H2 1645   6.212   5.368   3.354
  547TIP3   OH2 1646   2.143   2.769   3.491
  547TIP3    H1 1647   2.224   2.820   3.499
  547TIP3    H2 1648   2.132   2.728   3.577
  548TIP3   OH2 1649   1.695   2.546   5.079
  548TIP3    H1 1650   1.627   2.549   5.012
  548TIP3    H2 1651   1.705   2.638   5.106
  549TIP3   OH2 1652   0.867   4.585   4.001
  549TIP3    H1 1653   0.930   4.642   4.044
  549TIP3    H2 1654   0.788   4.638   3.992
  550TIP3   OH2 1655   1.257   5.595   3.586
  550TIP3    H1 1656   1.172   5.589   3.543
  550TIP3    H2 1657   1.313   5.641   3.524
  551TIP3   OH2 1658   1.781   2.057   2.306
  551TIP3    H1 1659   1.731   1.979   2.282
  551TIP3    H2 1660   1.774   2.062   2.401
  552TIP3   OH2 1661   0.949   3.011   3.410
  552TIP3    H1 1662   0.883   3.047   3.469
  552TIP3    H2 1663   0.935   3.058   3.327
  553TIP3   OH2 1664   5.579   0.689   1.142
  553TIP3    H1 1665   5.590   0.628   1.216
  553TIP3    H2 1666   5.572   0.633   1.065
  554TIP3   OH2 1667   0.513   3.864   2.321
  554TIP3    H1 1668   0.577   3.916   2.369
  554TIP3    H2 1669   0.467   3.927   2.266
  555TIP3   OH2 1670   1.104   4.881   4.613
  555TIP3    H1 1671   1.036   4.907   4.675
  555TIP3    H2 1672   1.105   4.785   4.618
  556TIP3   OH2 1673   6.244   5.009   1.164
  556TIP3    H1 1674   6.308   4.950   1.125
  556TIP3    H2 1675   6.193   5.042   1.090
  557TIP3   OH2 1676   6.098   2.994   2.714
  557TIP3    H1 1677   6.017   2.958   2.678
  557TIP3    H2 1678   6.084   2.997   2.808
  558TIP3   OH2 1679   0.229   0.564   1.154
  558TIP3    H1 1680   0.189   0.626   1.215
  558TIP3    H2 1681   0.323   0.578   1.164
  559TIP3   OH2 1682   5.906   5.298   3.569
  559TIP3    H1 1683   5.912   5.389   3.541
  559TIP3    H2 1684   5.832   5.262   3.520
  560TIP3   OH2 1685   2.799   0.983   2.820
  560TIP3    H1 1686   2.828   0.896   2.846
  560TIP3    H2 1687   2.811   0.985   2.726
  561TIP3   OH2 1688   4.114   3.623   1.505
  561TIP3    H1 1689   4.089   3.661   1.589
  561TIP3    H2 1690   4.206   3.599   1.517
  562TIP3   OH2 1691   1.571   3.665   1.451
  562TIP3    H1 1692   1.487   3.708   1.464
  562TIP3    H2 1693   1.560   3.579   1.491
  563TIP3   OH2 1694   5.227   5.370   0.638
  563TIP3    H1 1695   5.259   5.456   0.612
  563TIP3    H2 1696   5.193   5.382   0.726
  564TIP3   OH2 1697   3.151   0.349   3.040
  564TIP3    H1 1698   3.073   0.331   2.988
  564TIP3    H2 1699   3.155   0.444   3.046
  565TIP3   OH2 1700   6.319   0.863   2.169
  565TIP3    H1 1701   6.332   0.905   2.083
  565TIP3    H2 1702   6.407   0.856   2.206
  566TIP3   OH2 1703   1.978   2.193   1.166
  566TIP3    H1 1704   1.983   2.202   1.071
  566TIP3    H2 1705   1.888   2.218   1.189
  567TIP3   OH2 1706   3.287   5.890   1.066
  567TIP3    H1 1707   3.317   5.946   1.138
  567TIP3    H2 1708   3.338   5.919   0.990
  568TIP3   OH2 1709   5.705   3.617   4.953
  568TIP3    H1 1710   5.686   3.667   4.874
  568TIP3    H2 1711   5.625   3.621   5.004
  569TIP3   OH2 1712   2.184   2.188   1.372
  569TIP3    H1 1713   2.258   2.184   1.312
  569TIP3    H2 1714   2.114   2.229   1.322
  570TIP3   OH2 1715   6.082   2.882   0.426
  570TIP3    H1 1716   6.012   2.818   0.438
  570TIP3    H2 1717   6.129   2.852   0.349
  571TIP3   OH2 1718   1.760   3.270   4.546
  571TIP3    H1 1719   1.845   3.301   4.576
  571TIP3    H2 1720   1.697   3.312   4.605
  572TIP3   OH2 1721   1.221   0.088   4.337
  572TIP3    H1 1722   1.194   0.118   4.250
  572TIP3    H2 1723   1.307   0.128   4.351
  573TIP3   OH2 1724   2.253   5.966   4.971
  573TIP3    H1 1725   2.288   5.921   4.894
  573TIP3    H2 1726   2.326   6.019   5.003
  574TIP3   OH2 1727   1.288   5.360   4.384
  574TIP3    H1 1728   1.326   5.306   4.453
  574TIP3    H2 1729   1.342   5.342   4.307
  575TIP3   OH2 1730   5.308   3.005   1.482
  575TIP3    H1 1731   5.377   3.071   1.480
  575TIP3    H2 1732   5.343   2.931   1.433
  576TIP3   OH2 1733   5.820   5.942   3.588
  576TIP3    H1 1734   5.815   5.925   3.494
  576TIP3    H2 1735   5.863   6.027   3.595
  577TIP3   OH2 1736   1.774   3.657   1.256
  577TIP3    H1 1737   1.712   3.672   1.327
  577TIP3    H2 1738   1.854   3.700   1.285
  578TIP3   OH2 1739   4.921   3.615   3.206
  578TIP3    H1 1740   4.926   3.710   3.199
  578TIP3    H2 1741   4.965   3.582   3.128
  579TIP3   OH2 1742   5.932   5.140   2.104
  579TIP3    H1 1743   5.991   5.209   2.134
  579TIP3    H2 1744   5.858   5.187   2.065
  580TIP3   OH2 1745   0.864   3.981   4.229
  580TIP3    H1 1746   0.817   3.999   4.311
  580TIP3    H2 1747   0.951   3.952   4.257
  581TIP3   OH2 1748   5.463   3.498   3.158
  581TIP3    H1 1749   5.532   3.545   3.111
  581TIP3    H2 1750   5.383   3.519   3.111
  582TIP3   OH2 1751   2.594   1.255   1.326
  582TIP3    H1 1752   2.581   1.349   1.323
  582TIP3    H2 1753   2.662   1.238   1.261
  583TIP3   OH2 1754   0.884   3.946   0.200
  583TIP3    H1 1755   0.865   3.854   0.180
  583TIP3    H2 1756   0.823   3.969   0.270
  584TIP3   OH2 1757   0.060   1.032   3.412
  584TIP3    H1 1758   0.056   1.110   3.358
  584TIP3    H2 1759  -0.001   0.971   3.370
  585TIP3   OH2 1760   1.833   2.387   4.656
  585TIP3    H1 1761   1.916   2.345   4.634
  585TIP3    H2 1762   1.858   2.471   4.694
  586TIP3   OH2 1763   5.309   2.086   3.066
  586TIP3    H1 1764   5.396   2.081   3.024
  586TIP3    H2 1765   5.317   2.159   3.127
  587TIP3   OH2 1766   5.407   0.321   3.051
  587TIP3    H1 1767   5.389   0.391   2.988
  587TIP3    H2 1768   5.439   0.366   3.129
  588TIP3   OH2 1769   5.374   0.633   3.147
  588TIP3    H1 1770   5.379   0.616   3.053
  588TIP3    H2 1771   5.449   0.586   3.183
  589TIP3   OH2 1772   0.571   0.552   3.825
  589TIP3    H1 1773   0.504   0.620   3.827
  589TIP3    H2 1774   0.544   0.489   3.892
  590TIP3   OH2 1775   3.597   2.275   1.004
  590TIP3    H1 1776   3.675   2.311   1.045
  590TIP3    H2 1777   3.592   2.185   1.036
  591TIP3   OH2 1778   0.814   4.469   4.836
  591TIP3    H1 1779   0.886   4.506   4.887
  591TIP3    H2 1780   0.759   4.425   4.901
  592TIP3   OH2 1781   4.810   0.770   0.979
  592TIP3    H1 1782   4.901   0.741   0.969
  592TIP3    H2 1783   4.816   0.864   0.993
  593TIP3   OH2 1784   0.143   1.399   4.477
  593TIP3    H1 1785   0.225   1.448   4.487
  593TIP3    H2 1786   0.118   1.376   4.567
  594TIP3   OH2 1787   6.010   2.786   4.493
  594TIP3    H1 1788   6.079   2.753   4.551
  594TIP3    H2 1789   5.930   2.742   4.524
  595TIP3   OH2 1790  -0.037   2.816   3.576
  595TIP3    H1 1791   0.020   2.755   3.529
  595TIP3    H2 1792  -0.046   2.891   3.517
  596TIP3   OH2 1793   0.215   5.229   2.273
  596TIP3    H1 1794   0.141   5.190   2.227
  596TIP3    H2 1795   0.176   5.297   2.328
  597TIP3   OH2 1796   2.974   5.166   3.050
  597TIP3    H1 1797   3.014   5.213   2.977
  597TIP3    H2 1798   3.047   5.116   3.088
  598TIP3   OH2 1799   5.241   2.943   2.214
  598TIP3    H1 1800   5.219   2.868   2.158
  598TIP3    H2 1801   5.157   2.974   2.248
  599TIP3   OH2 1802   4.482   5.567   4.097
  599TIP3    H1 1803   4.554   5.516   4.060
  599TIP3    H2 1804   4.511   5.588   4.186
  600TIP3   OH2 1805   3.618   0.565   0.953
  600TIP3    H1 1806   3.624   0.535   0.863
  600TIP3    H2 1807   3.666   0.648   0.954
  601TIP3   OH2 1808   4.687   2.376   0.541
  601TIP3    H1 1809   4.676   2.376   0.445
  601TIP3    H2 1810   4.777   2.407   0.554
  602TIP3   OH2 1811   0.726   5.257   1.820
  602TIP3    H1 1812   0.751   5.180   1.870
  602TIP3    H2 1813   0.712   5.225   1.731
  603TIP3   OH2 1814   1.925   2.116   0.866
  603TIP3    H1 1815   1.987   2.081   0.803
  603TIP3    H2 1816   1.901   2.202   0.830
  604TIP3   OH2 1817   4.140   4.344   3.550
  604TIP3    H1 1818   4.073   4.351   3.481
  604TIP3    H2 1819   4.094   4.306   3.624
  605TIP3   OH2 1820   6.285   2.427   0.749
  605TIP3    H1 1821   6.298   2.447   0.841
  605TIP3    H2 1822   6.267   2.332   0.747
  606TIP3   OH2 1823   0.859   1.498   2.524
  606TIP3    H1 1824   0.803   1.512   2.448
  606TIP3    H2 1825   0.840   1.408   2.551
  607TIP3   OH2 1826   6.002   1.336   3.627
  607TIP3    H1 1827   5.915   1.313   3.658
  607TIP3    H2 1828   6.043   1.253   3.604
  608TIP3   OH2 1829   0.694   2.974   0.947
  608TIP3    H1 1830   0.622   2.998   1.005
  608TIP3    H2 1831   0.768   2.956   1.005
  609TIP3   OH2 1832   3.918   4.969   4.452
  609TIP3    H1 1833   3.828   5.001   4.450
  609TIP3    H2 1834   3.924   4.908   4.379
  610TIP3   OH2 1835   5.271   4.542   2.485
  610TIP3    H1 1836   5.205   4.485   2.446
  610TIP3    H2 1837   5.227   4.627   2.492
  611TIP3   OH2 1838   4.137   4.976   2.765
  611TIP3    H1 1839   4.126   5.065   2.731
  611TIP3    H2 1840   4.210   4.940   2.714
  612TIP3   OH2 1841   4.062   2.113   1.782
  612TIP3    H1 1842   4.083   2.152   1.867
  612TIP3    H2 1843   4.147   2.093   1.744
  613TIP3   OH2 1844   0.156   3.168   0.062
  613TIP3    H1 1845   0.190   3.156   0.150
  613TIP3    H2 1846   0.233   3.174   0.006
  614TIP3   OH2 1847   4.799   5.016   0.397
  614TIP3    H1 1848   4.737   5.051   0.461
  614TIP3    H2 1849   4.754   4.941   0.359
  615TIP3   OH2 1850   1.380   2.137   2.625
  615TIP3    H1 1851   1.424   2.052   2.616
  615TIP3    H2 1852   1.358   2.143   2.717
  616TIP3   OH2 1853   1.682   1.281   1.932
  616TIP3    H1 1854   1.597   1.303   1.894
  616TIP3    H2 1855   1.741   1.274   1.857
  617TIP3   OH2 1856   4.525   1.773   1.433
  617TIP3    H1 1857   4.491   1.847   1.382
  617TIP3    H2 1858   4.609   1.804   1.468
  618TIP3   OH2 1859   2.977   0.465   4.700
  618TIP3    H1 1860   2.998   0.427   4.786
  618TIP3    H2 1861   3.048   0.527   4.683
  619TIP3   OH2 1862   2.896   3.201   1.509
  619TIP3    H1 1863   2.930   3.139   1.572
  619TIP3    H2 1864   2.817   3.159   1.473
  620TIP3   OH2 1865   3.065   1.558   4.416
  620TIP3    H1 1866   3.017   1.623   4.365
  620TIP3    H2 1867   3.027   1.474   4.389
  621TIP3   OH2 1868   5.575   4.892   4.701
  621TIP3    H1 1869   5.581   4.797   4.692
  621TIP3    H2 1870   5.529   4.921   4.622
  622TIP3   OH2 1871   0.594   2.755   1.181
  622TIP3    H1 1872   0.570   2.835   1.227
  622TIP3    H2 1873   0.626   2.785   1.096
  623TIP3   OH2 1874   0.295   4.109   0.751
  623TIP3    H1 1875   0.244   4.074   0.824
  623TIP3    H2 1876   0.244   4.184   0.721
  624TIP3   OH2 1877   3.788   5.903   0.299
  624TIP3    H1 1878   3.846   5.828   0.315
  624TIP3    H2 1879   3.847   5.977   0.288
  625TIP3   OH2 1880   1.571   0.090   3.142
  625TIP3    H1 1881   1.513   0.024   3.104
  625TIP3    H2 1882   1.512   0.154   3.181
  626TIP3   OH2 1883   0.538   5.002   0.241
  626TIP3    H1 1884   0.486   5.051   0.304
  626TIP3    H2 1885   0.623   5.045   0.241
  627TIP3   OH2 1886   2.521   3.430   4.549
  627TIP3    H1 1887   2.532   3.418   4.455
  627TIP3    H2 1888   2.551   3.348   4.588
  628TIP3   OH2 1889   3.302   4.045   4.684
  628TIP3    H1 1890   3.364   4.032   4.612
  628TIP3    H2 1891   3.218   4.060   4.641
  629TIP3   OH2 1892   1.228   1.585   2.780
  629TIP3    H1 1893   1.247   1.671   2.742
  629TIP3    H2 1894   1.280   1.582   2.860
  630TIP3   OH2 1895   2.328   3.842   0.459
  630TIP3    H1 1896   2.273   3.765   0.472
  630TIP3    H2 1897   2.369   3.857   0.545
  631TIP3   OH2 1898   1.491   4.444   4.378
  631TIP3    H1 1899   1.423   4.506   4.403
  631TIP3    H2 1900   1.530   4.482   4.298
  632TIP3   OH2 1901   0.799   0.307   2.584
  632TIP3    H1 1902   0.876   0.281   2.532
  632TIP3    H2 1903   0.771   0.390   2.545
  633TIP3   OH2 1904   2.084   2.378   3.605
  633TIP3    H1 1905   2.154   2.410   3.663
  633TIP3    H2 1906   2.130   2.325   3.540
  634TIP3   OH2 1907   2.732   3.416   0.123
  634TIP3    H1 1908   2.639   3.420   0.147
  634TIP3    H2 1909   2.775   3.475   0.185
  635TIP3   OH2 1910   4.000   3.634   1.058
  635TIP3    H1 1911   4.001   3.644   1.153
  635TIP3    H2 1912   4.070   3.571   1.040
  636TIP3   OH2 1913   3.761   4.805   4.767
  636TIP3    H1 1914   3.851   4.776   4.751
  636TIP3    H2 1915   3.736   4.761   4.849
  637TIP3   OH2 1916   4.675   2.329   2.194
  637TIP3    H1 1917   4.686   2.270   2.121
  637TIP3    H2 1918   4.599   2.383   2.171
  638TIP3   OH2 1919   0.169   3.941   0.570
  638TIP3    H1 1920   0.217   4.005   0.624
  638TIP3    H2 1921   0.215   3.942   0.486
  639TIP3   OH2 1922   3.963   1.611   3.290
  639TIP3    H1 1923   3.896   1.674   3.265
  639TIP3    H2 1924   4.032   1.664   3.330
  640TIP3   OH2 1925   5.023   0.503   0.464
  640TIP3    H1 1926   5.005   0.597   0.466
  640TIP3    H2 1927   4.992   0.474   0.378
  641TIP3   OH2 1928   5.403   3.281   2.775
  641TIP3    H1 1929   5.344   3.324   2.713
  641TIP3    H2 1930   5.450   3.216   2.723
  642TIP3   OH2 1931   2.263   4.430   3.076
  642TIP3    H1 1932   2.243   4.345   3.116
  642TIP3    H2 1933   2.268   4.491   3.150
  643TIP3   OH2 1934   1.481   4.887   1.731
  643TIP3    H1 1935   1.570   4.850   1.737
  643TIP3    H2 1936   1.425   4.810   1.716
  644TIP3   OH2 1937   3.006   5.755   2.753
  644TIP3    H1 1938   3.058   5.748   2.833
  644TIP3    H2 1939   3.015   5.847   2.727
  645TIP3   OH2 1940   4.219   1.697   3.109
  645TIP3    H1 1941   4.148   1.743   3.065
  645TIP3    H2 1942   4.224   1.737   3.196
  646TIP3   OH2 1943   5.159   3.520   1.589
  646TIP3    H1 1944   5.082   3.482   1.547
  646TIP3    H2 1945   5.144   3.614   1.586
  647TIP3   OH2 1946   2.102   1.764   4.954
  647TIP3    H1 1947   2.079   1.713   5.031
  647TIP3    H2 1948   2.188   1.730   4.928
  648TIP3   OH2 1949   4.155   1.574   1.050
  648TIP3    H1 1950   4.249   1.556   1.058
  648TIP3    H2 1951   4.133   1.549   0.961
  649TIP3   OH2 1952   0.466   1.170   3.552
  649TIP3    H1 1953   0.515   1.220   3.487
  649TIP3    H2 1954   0.461   1.227   3.628
  650TIP3   OH2 1955   4.580   3.249   1.684
  650TIP3    H1 1956   4.652   3.239   1.746
  650TIP3    H2 1957   4.622   3.283   1.605
  651TIP3   OH2 1958   2.617   2.398   0.142
  651TIP3    H1 1959   2.560   2.325   0.117
  651TIP3    H2 1960   2.647   2.434   0.059
  652TIP3   OH2 1961   0.463   2.804   3.155
  652TIP3    H1 1962   0.371   2.822   3.171
  652TIP3    H2 1963   0.491   2.753   3.231
  653TIP3   OH2 1964   0.749   4.567  -0.003
  653TIP3    H1 1965   0.731   4.504   0.066
  653TIP3    H2 1966   0.720   4.651   0.032
  654TIP3   OH2 1967   0.050   5.478   4.780
  654TIP3    H1 1968   0.038   5.481   4.875
  654TIP3    H2 1969   0.031   5.567   4.751
  655TIP3   OH2 1970   2.870   1.416   2.951
  655TIP3    H1 1971   2.846   1.487   3.011
  655TIP3    H2 1972   2.864   1.455   2.864
  656TIP3   OH2 1973  -0.009   0.509   1.679
  656TIP3    H1 1974  -0.015   0.497   1.584
  656TIP3    H2 1975   0.084   0.497   1.698
  657TIP3   OH2 1976   1.847   5.294   0.738
  657TIP3    H1 1977   1.872   5.383   0.714
  657TIP3    H2 1978   1.870   5.286   0.830
  658TIP3   OH2 1979   4.306   2.912   3.155
  658TIP3    H1 1980   4.300   2.830   3.204
  658TIP3    H2 1981   4.218   2.927   3.122
  659TIP3   OH2 1982   1.163   1.980   0.820
  659TIP3    H1 1983   1.241   2.023   0.784
  659TIP3    H2 1984   1.182   1.886   0.813
  660TIP3   OH2 1985   2.962   1.648   0.342
  660TIP3    H1 1986   2.964   1.744   0.335
  660TIP3    H2 1987   3.052   1.621   0.326
  661TIP3   OH2 1988   1.053   5.044   4.319
  661TIP3    H1 1989   1.107   5.091   4.383
  661TIP3    H2 1990   0.993   4.992   4.372
  662TIP3   OH2 1991   5.095   1.045   4.421
  662TIP3    H1 1992   5.102   1.064   4.328
  662TIP3    H2 1993   5.185   1.043   4.452
  663TIP3   OH2 1994   2.393   4.944   3.476
  663TIP3    H1 1995   2.348   4.969   3.396
  663TIP3    H2 1996   2.323   4.918   3.536
  664TIP3   OH2 1997   3.689   5.227   4.042
  664TIP3    H1 1998   3.761   5.273   4.086
  664TIP3    H2 1999   3.611   5.279   4.063
  665TIP3   OH2 2000   3.967   1.085   2.755
  665TIP3    H1 2001   4.018   1.010   2.724
  665TIP3    H2 2002   4.009   1.111   2.837
  666TIP3   OH2 2003   4.142   4.837   1.550
  666TIP3    H1 2004   4.226   4.884   1.548
  666TIP3    H2 2005   4.083   4.891   1.498
  667TIP3   OH2 2006   0.871   1.004   1.321
  667TIP3    H1 2007   0.798   0.967   1.371
  667TIP3    H2 2008   0.837   1.085   1.284
  668TIP3   OH2 2009   1.934   2.594   3.079
  668TIP3    H1 2010   1.940   2.514   3.027
  668TIP3    H2 2011   1.939   2.665   3.014
  669TIP3   OH2 2012   1.832   2.441   2.327
  669TIP3    H1 2013   1.833   2.403   2.239
  669TIP3    H2 2014   1.925   2.457   2.347
  670TIP3   OH2 2015   1.312   2.559   4.555
  670TIP3    H1 2016   1.307   2.626   4.487
  670TIP3    H2 2017   1.362   2.488   4.517
  671TIP3   OH2 2018   2.540   5.240   1.334
  671TIP3    H1 2019   2.571   5.150   1.346
  671TIP3    H2 2020   2.445   5.233   1.335
  672TIP3   OH2 2021   1.232   4.183   3.992
  672TIP3    H1 2022   1.154   4.240   3.990
  672TIP3    H2 2023   1.273   4.202   4.076
  673TIP3   OH2 2024   4.541   5.418   3.765
  673TIP3    H1 2025   4.579   5.462   3.689
  673TIP3    H2 2026   4.610   5.420   3.831
  674TIP3   OH2 2027   5.505   2.047   3.689
  674TIP3    H1 2028   5.489   1.980   3.755
  674TIP3    H2 2029   5.517   1.998   3.608
  675TIP3   OH2 2030   5.404   3.922   0.367
  675TIP3    H1 2031   5.402   3.881   0.280
  675TIP3    H2 2032   5.321   3.968   0.373
  676TIP3   OH2 2033   2.119   4.083   1.681
  676TIP3    H1 2034   2.209   4.116   1.676
  676TIP3    H2 2035   2.083   4.125   1.760
  677TIP3   OH2 2036   0.375   3.912   1.114
  677TIP3    H1 2037   0.463   3.948   1.117
  677TIP3    H2 2038   0.329   3.956   1.186
  678TIP3   OH2 2039   6.257   0.596   4.406
  678TIP3    H1 2040   6.336   0.566   4.452
  678TIP3    H2 2041   6.274   0.578   4.314
  679TIP3   OH2 2042   0.021   3.883   2.284
  679TIP3    H1 2043   0.096   3.911   2.336
  679TIP3    H2 2044   0.016   3.788   2.299
  680TIP3   OH2 2045   0.442   2.162   0.545
  680TIP3    H1 2046   0.410   2.094   0.605
  680TIP3    H2 2047   0.473   2.113   0.469
  681TIP3   OH2 2048   0.080   0.635   4.884
  681TIP3    H1 2049   0.069   0.598   4.796
  681TIP3    H2 2050   0.153   0.586   4.922
  682TIP3   OH2 2051   4.084   4.354   4.633
  682TIP3    H1 2052   4.146   4.403   4.580
  682TIP3    H2 2053   4.135   4.326   4.710
  683TIP3   OH2 2054   4.684   4.782   2.425
  683TIP3    H1 2055   4.676   4.724   2.349
  683TIP3    H2 2056   4.747   4.849   2.397
  684TIP3   OH2 2057   4.000   3.246   2.826
  684TIP3    H1 2058   4.073   3.308   2.816
  684TIP3    H2 2059   3.945   3.286   2.893
  685TIP3   OH2 2060   5.230   2.149   4.005
  685TIP3    H1 2061   5.280   2.231   4.012
  685TIP3    H2 2062   5.159   2.170   3.943
  686TIP3   OH2 2063   1.159   4.463   0.845
  686TIP3    H1 2064   1.146   4.375   0.880
  686TIP3    H2 2065   1.116   4.521   0.908
  687TIP3   OH2 2066   1.843   0.659   0.658
  687TIP3    H1 2067   1.748   0.659   0.648
  687TIP3    H2 2068   1.875   0.594   0.596
  688TIP3   OH2 2069   5.577   5.337   4.838
  688TIP3    H1 2070   5.618   5.407   4.786
  688TIP3    H2 2071   5.531   5.383   4.908
  689TIP3   OH2 2072   5.745   2.725   1.865
  689TIP3    H1 2073   5.766   2.719   1.772
  689TIP3    H2 2074   5.660   2.681   1.873
  690TIP3   OH2 2075   6.294   1.369   2.066
  690TIP3    H1 2076   6.366   1.345   2.124
  690TIP3    H2 2077   6.283   1.293   2.009
  691TIP3   OH2 2078   3.151   3.026   3.671
  691TIP3    H1 2079   3.241   3.007   3.697
  691TIP3    H2 2080   3.159   3.076   3.590
  692TIP3   OH2 2081   1.809   0.034   4.481
  692TIP3    H1 2082   1.841  -0.034   4.539
  692TIP3    H2 2083   1.723   0.059   4.517
  693TIP3   OH2 2084   3.653   3.807   0.680
  693TIP3    H1 2085   3.623   3.894   0.706
  693TIP3    H2 2086   3.706   3.777   0.754
  694TIP3   OH2 2087   3.229   4.836   3.463
  694TIP3    H1 2088   3.227   4.922   3.504
  694TIP3    H2 2089   3.160   4.838   3.397
  695TIP3   OH2 2090   3.299   1.890   3.420
  695TIP3    H1 2091   3.285   1.834   3.496
  695TIP3    H2 2092   3.364   1.843   3.368
  696TIP3   OH2 2093   6.064   1.421   1.360
  696TIP3    H1 2094   6.140   1.430   1.417
  696TIP3    H2 2095   6.069   1.496   1.302
  697TIP3   OH2 2096   1.238   5.084   4.498
  697TIP3    H1 2097   1.195   5.004   4.526
  697TIP3    H2 2098   1.219   5.147   4.568
  698TIP3   OH2 2099   0.814   0.250   1.635
  698TIP3    H1 2100   0.847   0.198   1.562
  698TIP3    H2 2101   0.872   0.326   1.638
  699TIP3   OH2 2102   5.347   4.955   3.210
  699TIP3    H1 2103   5.382   4.898   3.142
  699TIP3    H2 2104   5.354   4.904   3.291
  700TIP3   OH2 2105   0.597   0.366   0.501
  700TIP3    H1 2106   0.677   0.375   0.450
  700TIP3    H2 2107   0.601   0.277   0.537
  701TIP3   OH2 2108   3.344   2.110   1.836
  701TIP3    H1 2109   3.341   2.016   1.853
  701TIP3    H2 2110   3.412   2.143   1.895
  702TIP3   OH2 2111   3.054   4.804   3.249
  702TIP3    H1 2112   3.074   4.712   3.260
  702TIP3    H2 2113   2.965   4.805   3.214
  703TIP3   OH2 2114   5.128   1.139   2.295
  703TIP3    H1 2115   5.082   1.172   2.372
  703TIP3    H2 2116   5.068   1.156   2.222
  704TIP3   OH2 2117   5.199   0.992   1.394
  704TIP3    H1 2118   5.280   0.941   1.404
  704TIP3    H2 2119   5.191   1.040   1.476
  705TIP3   OH2 2120   5.718   5.923   1.533
  705TIP3    H1 2121   5.760   5.991   1.481
  705TIP3    H2 2122   5.746   5.941   1.623
  706TIP3   OH2 2123   3.250   2.939   1.738
  706TIP3    H1 2124   3.198   2.985   1.804
  706TIP3    H2 2125   3.242   2.993   1.659
  707TIP3   OH2 2126   4.274   1.553   1.784
  707TIP3    H1 2127   4.190   1.592   1.809
  707TIP3    H2 2128   4.318   1.623   1.735
  708TIP3   OH2 2129   2.343   2.205   4.718
  708TIP3    H1 2130   2.374   2.265   4.650
  708TIP3    H2 2131   2.399   2.225   4.794
  709TIP3   OH2 2132   5.597   0.097   3.912
  709TIP3    H1 2133   5.581   0.004   3.899
  709TIP3    H2 2134   5.553   0.139   3.838
  710TIP3   OH2 2135   4.101   0.716   4.640
  710TIP3    H1 2136   4.120   0.776   4.568
  710TIP3    H2 2137   4.165   0.739   4.708
  711TIP3   OH2 2138   4.802   1.698   1.066
  711TIP3    H1 2139   4.838   1.786   1.055
  711TIP3    H2 2140   4.710   1.712   1.089
  712TIP3   OH2 2141   3.520   0.196   1.931
  712TIP3    H1 2142   3.530   0.169   2.022
  712TIP3    H2 2143   3.447   0.144   1.898
  713TIP3   OH2 2144   5.764   4.648   4.366
  713TIP3    H1 2145   5.670   4.668   4.364
  713TIP3    H2 2146   5.770   4.554   4.348
  714TIP3   OH2 2147   1.056   3.106   4.293
  714TIP3    H1 2148   1.013   3.106   4.208
  714TIP3    H2 2149   1.126   3.171   4.284
  715TIP3   OH2 2150   5.931   0.883   2.650
  715TIP3    H1 2151   5.872   0.837   2.710
  715TIP3    H2 2152   5.968   0.954   2.703
  716TIP3   OH2 2153   3.315   4.905   4.181
  716TIP3    H1 2154   3.400   4.947   4.196
  716TIP3    H2 2155   3.320   4.874   4.091
  717TIP3   OH2 2156   6.240   0.798   0.751
  717TIP3    H1 2157   6.323   0.761   0.782
  717TIP3    H2 2158   6.225   0.755   0.666
  718TIP3   OH2 2159   2.139   0.247   4.410
  718TIP3    H1 2160   2.199   0.245   4.335
  718TIP3    H2 2161   2.056   0.214   4.374
  719TIP3   OH2 2162   4.522   2.064   2.702
  719TIP3    H1 2163   4.587   2.105   2.758
  719TIP3    H2 2164   4.459   2.026   2.763
  720TIP3   OH2 2165   4.957   4.387   2.999
  720TIP3    H1 2166   4.986   4.429   2.918
  720TIP3    H2 2167   4.870   4.423   3.015
  721TIP3   OH2 2168   2.076   4.492   0.310
  721TIP3    H1 2169   2.023   4.413   0.321
  721TIP3    H2 2170   2.161   4.471   0.347
  722TIP3   OH2 2171   2.350   4.904   1.683
  722TIP3    H1 2172   2.390   4.942   1.761
  722TIP3    H2 2173   2.346   4.975   1.620
  723TIP3   OH2 2174   4.483   2.874   0.716
  723TIP3    H1 2175   4.482   2.944   0.651
  723TIP3    H2 2176   4.477   2.794   0.665
  724TIP3   OH2 2177   2.474   4.218   1.176
  724TIP3    H1 2178   2.392   4.172   1.161
  724TIP3    H2 2179   2.533   4.152   1.211
  725TIP3   OH2 2180   2.882   3.548   0.296
  725TIP3    H1 2181   2.829   3.624   0.319
  725TIP3    H2 2182   2.953   3.548   0.361
  726TIP3   OH2 2183   5.479   1.606   0.502
  726TIP3    H1 2184   5.399   1.555   0.506
  726TIP3    H2 2185   5.547   1.548   0.536
  727TIP3   OH2 2186   2.715   2.880   4.132
  727TIP3    H1 2187   2.709   2.804   4.190
  727TIP3    H2 2188   2.790   2.929   4.165
  728TIP3   OH2 2189   0.101   0.297   2.355
  728TIP3    H1 2190   0.120   0.391   2.351
  728TIP3    H2 2191   0.057   0.278   2.272
  729TIP3   OH2 2192   5.170   3.473   4.786
  729TIP3    H1 2193   5.161   3.380   4.804
  729TIP3    H2 2194   5.102   3.514   4.840
  730TIP3   OH2 2195   2.751   0.338   4.636
  730TIP3    H1 2196   2.768   0.251   4.673
  730TIP3    H2 2197   2.833   0.386   4.651
  731TIP3   OH2 2198   0.251   1.074   3.889
  731TIP3    H1 2199   0.227   1.121   3.809
  731TIP3    H2 2200   0.168   1.048   3.928
  732TIP3   OH2 2201   1.271   1.061   4.836
  732TIP3    H1 2202   1.179   1.085   4.843
  732TIP3    H2 2203   1.313   1.134   4.790
  733TIP3   OH2 2204   6.340   3.068   2.833
  733TIP3    H1 2205   6.272   3.020   2.785
  733TIP3    H2 2206   6.388   3.001   2.881
  734TIP3   OH2 2207   1.547   0.108   4.640
  734TIP3    H1 2208   1.484   0.142   4.575
  734TIP3    H2 2209   1.585   0.187   4.678
  735TIP3   OH2 2210   5.690   1.829   2.992
  735TIP3    H1 2211   5.643   1.751   2.962
  735TIP3    H2 2212   5.781   1.811   2.972
  736TIP3   OH2 2213   5.068   1.362   3.345
  736TIP3    H1 2214   5.053   1.271   3.369
  736TIP3    H2 2215   4.982   1.394   3.317
  737TIP3   OH2 2216   4.199   1.349   4.821
  737TIP3    H1 2217   4.283   1.325   4.783
  737TIP3    H2 2218   4.218   1.367   4.913
  738TIP3   OH2 2219   5.627   1.299   2.303
  738TIP3    H1 2220   5.652   1.375   2.251
  738TIP3    H2 2221   5.683   1.228   2.270
  739TIP3   OH2 2222   5.752   0.274   2.467
  739TIP3    H1 2223   5.752   0.356   2.416
  739TIP3    H2 2224   5.742   0.205   2.401
  740TIP3   OH2 2225   4.746   5.256   0.225
  740TIP3    H1 2226   4.761   5.268   0.319
  740TIP3    H2 2227   4.700   5.173   0.218
  741TIP3   OH2 2228   2.860   2.233   0.695
  741TIP3    H1 2229   2.843   2.160   0.635
  741TIP3    H2 2230   2.951   2.256   0.679
  742TIP3   OH2 2231   3.170   3.424   3.581
  742TIP3    H1 2232   3.184   3.350   3.523
  742TIP3    H2 2233   3.258   3.451   3.607
  743TIP3   OH2 2234   0.799   1.717   1.806
  743TIP3    H1 2235   0.816   1.654   1.736
  743TIP3    H2 2236   0.832   1.674   1.885
  744TIP3   OH2 2237   2.222   5.792   0.179
  744TIP3    H1 2238   2.296   5.741   0.146
  744TIP3    H2 2239   2.252   5.826   0.263
  745TIP3   OH2 2240   4.482   1.904   4.580
  745TIP3    H1 2241   4.551   1.962   4.548
  745TIP3    H2 2242   4.417   1.963   4.619
  746TIP3   OH2 2243   4.325   5.894   0.950
  746TIP3    H1 2244   4.279   5.862   1.027
  746TIP3    H2 2245   4.277   5.972   0.923
  747TIP3   OH2 2246   2.288   5.560   1.589
  747TIP3    H1 2247   2.253   5.573   1.678
  747TIP3    H2 2248   2.253   5.634   1.539
  748TIP3   OH2 2249   0.465   5.599   1.478
  748TIP3    H1 2250   0.375   5.620   1.454
  748TIP3    H2 2251   0.490   5.667   1.540
  749TIP3   OH2 2252   2.575   1.841   2.072
  749TIP3    H1 2253   2.553   1.749   2.083
  749TIP3    H2 2254   2.667   1.846   2.100
  750TIP3   OH2 2255   5.997   1.457   1.815
  750TIP3    H1 2256   6.049   1.533   1.843
  750TIP3    H2 2257   5.971   1.477   1.726
  751TIP3   OH2 2258   0.963   4.173   1.508
  751TIP3    H1 2259   1.041   4.202   1.555
  751TIP3    H2 2260   0.937   4.092   1.552
  752TIP3   OH2 2261   4.523   3.442   3.670
  752TIP3    H1 2262   4.560   3.360   3.638
  752TIP3    H2 2263   4.470   3.417   3.745
  753TIP3   OH2 2264   2.348   2.616   5.131
  753TIP3    H1 2265   2.362   2.631   5.037
  753TIP3    H2 2266   2.409   2.546   5.153
  754TIP3   OH2 2267   2.005   1.292   4.563
  754TIP3    H1 2268   1.922   1.250   4.588
  754TIP3    H2 2269   2.054   1.222   4.519
  755TIP3   OH2 2270   5.713   0.445   0.507
  755TIP3    H1 2271   5.638   0.437   0.567
  755TIP3    H2 2272   5.785   0.472   0.563
  756TIP3   OH2 2273   0.303   4.728   1.930
  756TIP3    H1 2274   0.364   4.783   1.979
  756TIP3    H2 2275   0.270   4.666   1.995
  757TIP3   OH2 2276   1.520   1.675   3.819
  757TIP3    H1 2277   1.474   1.759   3.821
  757TIP3    H2 2278   1.567   1.675   3.736
  758TIP3   OH2 2279   4.805   5.773   4.141
  758TIP3    H1 2280   4.760   5.708   4.195
  758TIP3    H2 2281   4.738   5.805   4.080
  759TIP3   OH2 2282   5.716   0.562   1.332
  759TIP3    H1 2283   5.771   0.628   1.374
  759TIP3    H2 2284   5.768   0.482   1.336
  760TIP3   OH2 2285   1.191   0.848   2.419
  760TIP3    H1 2286   1.198   0.877   2.510
  760TIP3    H2 2287   1.276   0.867   2.381
  761TIP3   OH2 2288   2.666   1.074   2.171
  761TIP3    H1 2289   2.690   1.048   2.082
  761TIP3    H2 2290   2.585   1.123   2.161
  762TIP3   OH2 2291   4.151   2.053   2.408
  762TIP3    H1 2292   4.224   2.097   2.452
  762TIP3    H2 2293   4.191   1.975   2.369
  763TIP3   OH2 2294   1.778   1.701   0.326
  763TIP3    H1 2295   1.801   1.626   0.271
  763TIP3    H2 2296   1.718   1.666   0.392
  764TIP3   OH2 2297   1.303   0.638   2.827
  764TIP3    H1 2298   1.238   0.640   2.896
  764TIP3    H2 2299   1.252   0.629   2.746
  765TIP3   OH2 2300   0.335   1.220   4.631
  765TIP3    H1 2301   0.336   1.176   4.547
  765TIP3    H2 2302   0.349   1.313   4.610
  766TIP3   OH2 2303   5.311   5.210   2.626
  766TIP3    H1 2304   5.232   5.241   2.671
  766TIP3    H2 2305   5.301   5.115   2.621
  767TIP3   OH2 2306   4.961   1.948   0.881
  767TIP3    H1 2307   5.013   2.010   0.829
  767TIP3    H2 2308   4.909   2.003   0.939
  768TIP3   OH2 2309   4.270   5.672   2.465
  768TIP3    H1 2310   4.249   5.600   2.525
  768TIP3    H2 2311   4.196   5.731   2.472
  769TIP3   OH2 2312   4.171   3.963   3.571
  769TIP3    H1 2313   4.203   4.021   3.502
  769TIP3    H2 2314   4.242   3.960   3.635
  770TIP3   OH2 2315   0.936   5.938   1.074
  770TIP3    H1 2316   0.922   5.887   0.995
  770TIP3    H2 2317   0.930   5.875   1.145
  771TIP3   OH2 2318   5.020   4.566   2.781
  771TIP3    H1 2319   5.042   4.659   2.772
  771TIP3    H2 2320   4.942   4.555   2.727
  772TIP3   OH2 2321   1.970   3.316   1.782
  772TIP3    H1 2322   2.026   3.392   1.795
  772TIP3    H2 2323   1.985   3.291   1.691
  773TIP3   OH2 2324   5.618   3.573   1.225
  773TIP3    H1 2325   5.540   3.617   1.258
  773TIP3    H2 2326   5.661   3.639   1.170
  774TIP3   OH2 2327   1.661   2.292   4.839
  774TIP3    H1 2328   1.726   2.272   4.907
  774TIP3    H2 2329   1.712   2.337   4.771
  775TIP3   OH2 2330   3.846   5.435   2.285
  775TIP3    H1 2331   3.781   5.469   2.347
  775TIP3    H2 2332   3.879   5.513   2.240
  776TIP3   OH2 2333   1.932   0.719   2.181
  776TIP3    H1 2334   1.862   0.709   2.117
  776TIP3    H2 2335   1.911   0.800   2.228
  777TIP3   OH2 2336   0.025   1.624   0.830
  777TIP3    H1 2337  -0.048   1.579   0.873
  777TIP3    H2 2338   0.088   1.554   0.811
  778TIP3   OH2 2339   5.475   2.538   5.172
  778TIP3    H1 2340   5.553   2.500   5.212
  778TIP3    H2 2341   5.494   2.541   5.079
  779TIP3   OH2 2342   4.526   4.379   1.509
  779TIP3    H1 2343   4.457   4.339   1.562
  779TIP3    H2 2344   4.555   4.454   1.561
  780TIP3   OH2 2345   1.200   0.055   0.618
  780TIP3    H1 2346   1.186  -0.008   0.547
  780TIP3    H2 2347   1.142   0.128   0.596
  781TIP3   OH2 2348  -0.008   5.312   1.796
  781TIP3    H1 2349  -0.043   5.301   1.885
  781TIP3    H2 2350   0.087   5.305   1.807
  782TIP3   OH2 2351   6.357   3.043   1.586
  782TIP3    H1 2352   6.348   2.972   1.522
  782TIP3    H2 2353   6.328   3.121   1.540
  783TIP3   OH2 2354   2.088   2.721   4.948
  783TIP3    H1 2355   2.154   2.660   4.916
  783TIP3    H2 2356   2.088   2.708   5.043
  784TIP3   OH2 2357   3.665   2.313   2.279
  784TIP3    H1 2358   3.674   2.390   2.336
  784TIP3    H2 2359   3.587   2.330   2.228
  785TIP3   OH2 2360   2.465   0.134   3.966
  785TIP3    H1 2361   2.542   0.120   4.021
  785TIP3    H2 2362   2.423   0.048   3.962
  786TIP3   OH2 2363   5.228   3.228   2.997
  786TIP3    H1 2364   5.243   3.149   3.048
  786TIP3    H2 2365   5.298   3.229   2.931
  787TIP3   OH2 2366   0.332   1.485   3.806
  787TIP3    H1 2367   0.253   1.442   3.839
  787TIP3    H2 2368   0.392   1.486   3.881
  788TIP3   OH2 2369   0.401   0.876   4.562
  788TIP3    H1 2370   0.382   0.898   4.471
  788TIP3    H2 2371   0.317   0.883   4.606
  789TIP3   OH2 2372   3.475   5.702   4.815
  789TIP3    H1 2373   3.406   5.742   4.869
  789TIP3    H2 2374   3.516   5.776   4.770
  790TIP3   OH2 2375   0.834   3.137   4.437
  790TIP3    H1 2376   0.915   3.145   4.388
  790TIP3    H2 2377   0.861   3.143   4.529
  791TIP3   OH2 2378   1.051   2.437   4.936
  791TIP3    H1 2379   1.131   2.403   4.896
  791TIP3    H2 2380   1.074   2.525   4.965
  792TIP3   OH2 2381   5.849   4.683   0.819
  792TIP3    H1 2382   5.906   4.670   0.743
  792TIP3    H2 2383   5.790   4.607   0.818
  793TIP3   OH2 2384   1.873   1.682   2.491
  793TIP3    H1 2385   1.780   1.689   2.513
  793TIP3    H2 2386   1.906   1.772   2.497
  794TIP3   OH2 2387   4.649   2.431   0.846
  794TIP3    H1 2388   4.655   2.387   0.761
  794TIP3    H2 2389   4.738   2.429   0.881
  795TIP3   OH2 2390   4.882   5.156   0.726
  795TIP3    H1 2391   4.933   5.195   0.655
  795TIP3    H2 2392   4.945   5.148   0.798
  796TIP3   OH2 2393   2.750   0.707   3.788
  796TIP3    H1 2394   2.720   0.637   3.730
  796TIP3    H2 2395   2.671   0.735   3.834
  797TIP3   OH2 2396   6.327   1.550   2.800
  797TIP3    H1 2397   6.419   1.563   2.821
  797TIP3    H2 2398   6.308   1.617   2.734
  798TIP3   OH2 2399   2.602   0.699   4.557
  798TIP3    H1 2400   2.675   0.651   4.517
  798TIP3    H2 2401   2.540   0.712   4.485
  799TIP3   OH2 2402   5.092   5.264   2.784
  799TIP3    H1 2403   5.080   5.328   2.854
  799TIP3    H2 2404   5.054   5.183   2.819
  800TIP3   OH2 2405   5.602   2.174   5.149
  800TIP3    H1 2406   5.635   2.256   5.185
  800TIP3    H2 2407   5.650   2.163   5.067
  801TIP3   OH2 2408   2.179   0.777   4.585
  801TIP3    H1 2409   2.246   0.805   4.648
  801TIP3    H2 2410   2.197   0.828   4.507
  802TIP3   OH2 2411   5.892   3.868   0.141
  802TIP3    H1 2412   5.868   3.891   0.051
  802TIP3    H2 2413   5.849   3.784   0.157
  803TIP3   OH2 2414   2.740   0.746   3.241
  803TIP3    H1 2415   2.649   0.758   3.216
  803TIP3    H2 2416   2.767   0.666   3.196
  804TIP3   OH2 2417   1.290   3.794   0.557
  804TIP3    H1 2418   1.297   3.856   0.629
  804TIP3    H2 2419   1.347   3.721   0.582
  805TIP3   OH2 2420   0.681   0.284   4.650
  805TIP3    H1 2421   0.648   0.194   4.651
  805TIP3    H2 2422   0.622   0.332   4.708
  806TIP3   OH2 2423   6.349   0.507   1.412
  806TIP3    H1 2424   6.304   0.504   1.328
  806TIP3    H2 2425   6.433   0.548   1.393
  807TIP3   OH2 2426   4.849   1.152   4.051
  807TIP3    H1 2427   4.775   1.197   4.009
  807TIP3    H2 2428   4.912   1.139   3.980
  808TIP3   OH2 2429   3.710   5.742   1.317
  808TIP3    H1 2430   3.668   5.738   1.232
  808TIP3    H2 2431   3.638   5.738   1.380
  809TIP3   OH2 2432   3.516   4.885   0.996
  809TIP3    H1 2433   3.608   4.888   0.970
  809TIP3    H2 2434   3.469   4.926   0.923
  810TIP3   OH2 2435   0.600   2.210   0.873
  810TIP3    H1 2436   0.624   2.249   0.957
  810TIP3    H2 2437   0.563   2.283   0.823
  811TIP3   OH2 2438   3.134   3.353   0.222
  811TIP3    H1 2439   3.088   3.433   0.200
  811TIP3    H2 2440   3.226   3.372   0.205
  812TIP3   OH2 2441   1.907   4.917   5.127
  812TIP3    H1 2442   1.865   5.001   5.111
  812TIP3    H2 2443   1.927   4.883   5.040
  813TIP3   OH2 2444   2.270   5.670   2.568
  813TIP3    H1 2445   2.324   5.746   2.591
  813TIP3    H2 2446   2.291   5.653   2.476
  814TIP3   OH2 2447   3.466   4.558   2.411
  814TIP3    H1 2448   3.422   4.548   2.327
  814TIP3    H2 2449   3.458   4.652   2.431
  815TIP3   OH2 2450   1.445   3.820   3.459
  815TIP3    H1 2451   1.364   3.833   3.410
  815TIP3    H2 2452   1.453   3.726   3.469
  816TIP3   OH2 2453   4.755   2.147   4.212
  816TIP3    H1 2454   4.710   2.135   4.296
  816TIP3    H2 2455   4.845   2.121   4.229
  817TIP3   OH2 2456   1.645   2.737   1.666
  817TIP3    H1 2457   1.672   2.713   1.577
  817TIP3    H2 2458   1.672   2.828   1.676
  818TIP3   OH2 2459   4.852   4.976   2.287
  818TIP3    H1 2460   4.921   5.023   2.334
  818TIP3    H2 2461   4.801   5.045   2.245
  819TIP3   OH2 2462   4.095   0.477   2.138
  819TIP3    H1 2463   4.048   0.560   2.146
  819TIP3    H2 2464   4.165   0.482   2.203
  820TIP3   OH2 2465   4.606   3.331   2.400
  820TIP3    H1 2466   4.545   3.367   2.335
  820TIP3    H2 2467   4.567   3.354   2.484
  821TIP3   OH2 2468   4.763   5.789   5.014
  821TIP3    H1 2469   4.693   5.792   5.080
  821TIP3    H2 2470   4.717   5.805   4.931
  822TIP3   OH2 2471   6.045   1.187   1.791
  822TIP3    H1 2472   6.053   1.277   1.821
  822TIP3    H2 2473   6.027   1.193   1.697
  823TIP3   OH2 2474   2.312   3.178   0.216
  823TIP3    H1 2475   2.223   3.146   0.199
  823TIP3    H2 2476   2.366   3.099   0.219
  824TIP3   OH2 2477   3.169   5.250   3.945
  824TIP3    H1 2478   3.149   5.172   3.892
  824TIP3    H2 2479   3.098   5.253   4.010
  825TIP3   OH2 2480   2.469   0.871   0.743
  825TIP3    H1 2481   2.433   0.955   0.713
  825TIP3    H2 2482   2.395   0.811   0.741
  826TIP3   OH2 2483   1.981   2.452   4.320
  826TIP3    H1 2484   1.966   2.545   4.336
  826TIP3    H2 2485   1.900   2.409   4.348
  827TIP3   OH2 2486   3.060   1.467   1.931
  827TIP3    H1 2487   2.995   1.532   1.907
  827TIP3    H2 2488   3.085   1.426   1.848
  828TIP3   OH2 2489   4.821   2.728   0.399
  828TIP3    H1 2490   4.857   2.662   0.457
  828TIP3    H2 2491   4.810   2.806   0.454
  829TIP3   OH2 2492   5.620   2.019   0.339
  829TIP3    H1 2493   5.595   2.022   0.432
  829TIP3    H2 2494   5.642   1.928   0.323
  830TIP3   OH2 2495   5.088   3.193   1.932
  830TIP3    H1 2496   5.071   3.105   1.966
  830TIP3    H2 2497   5.075   3.251   2.007
  831TIP3   OH2 2498   6.112   0.798   3.613
  831TIP3    H1 2499   6.125   0.705   3.600
  831TIP3    H2 2500   6.057   0.825   3.539
  832TIP3   OH2 2501   0.374   0.414   2.743
  832TIP3    H1 2502   0.367   0.411   2.648
  832TIP3    H2 2503   0.452   0.468   2.759
  833TIP3   OH2 2504   5.310   1.678   2.644
  833TIP3    H1 2505   5.279   1.588   2.634
  833TIP3    H2 2506   5.345   1.701   2.558
  834TIP3   OH2 2507   5.411   4.442   1.199
  834TIP3    H1 2508   5.412   4.349   1.179
  834TIP3    H2 2509   5.350   4.479   1.135
  835TIP3   OH2 2510   5.681   1.541   2.187
  835TIP3    H1 2511   5.761   1.542   2.240
  835TIP3    H2 2512   5.709   1.503   2.103
  836TIP3   OH2 2513   1.583   2.651   1.986
  836TIP3    H1 2514   1.488   2.645   1.993
  836TIP3    H2 2515   1.599   2.722   1.925
  837TIP3   OH2 2516   4.562   3.420   5.055
  837TIP3    H1 2517   4.496   3.460   4.997
  837TIP3    H2 2518   4.609   3.359   4.998
  838TIP3   OH2 2519   3.717   1.190   3.413
  838TIP3    H1 2520   3.666   1.265   3.382
  838TIP3    H2 2521   3.735   1.209   3.505
  839TIP3   OH2 2522   1.450   1.266   2.418
  839TIP3    H1 2523   1.464   1.219   2.336
  839TIP3    H2 2524   1.376   1.222   2.459
  840TIP3   OH2 2525   5.896   3.186   1.450
  840TIP3    H1 2526   5.821   3.196   1.391
  840TIP3    H2 2527   5.967   3.231   1.405
  841TIP3   OH2 2528   5.226   0.924   3.651
  841TIP3    H1 2529   5.131   0.919   3.638
  841TIP3    H2 2530   5.256   0.834   3.644
  842TIP3   OH2 2531   1.941   5.475   1.148
  842TIP3    H1 2532   1.994   5.449   1.223
  842TIP3    H2 2533   1.988   5.550   1.110
  843TIP3   OH2 2534   3.370   5.602   0.559
  843TIP3    H1 2535   3.366   5.666   0.489
  843TIP3    H2 2536   3.279   5.574   0.571
  844TIP3   OH2 2537   3.018   1.626   2.417
  844TIP3    H1 2538   3.017   1.549   2.359
  844TIP3    H2 2539   3.095   1.676   2.389
  845TIP3   OH2 2540   5.156   4.286   2.694
  845TIP3    H1 2541   5.194   4.355   2.750
  845TIP3    H2 2542   5.084   4.329   2.648
  846TIP3   OH2 2543   0.246   1.723   3.903
  846TIP3    H1 2544   0.280   1.634   3.897
  846TIP3    H2 2545   0.236   1.740   3.997
  847TIP3   OH2 2546   6.299   4.644   3.344
  847TIP3    H1 2547   6.326   4.731   3.373
  847TIP3    H2 2548   6.241   4.612   3.413
  848TIP3   OH2 2549   0.460   5.353   3.269
  848TIP3    H1 2550   0.387   5.301   3.302
  848TIP3    H2 2551   0.419   5.425   3.220
  849TIP3   OH2 2552   3.133   3.043   3.954
  849TIP3    H1 2553   3.113   3.020   3.863
  849TIP3    H2 2554   3.200   3.111   3.948
  850TIP3   OH2 2555   2.641   0.606   0.511
  850TIP3    H1 2556   2.644   0.633   0.419
  850TIP3    H2 2557   2.647   0.688   0.560
  851TIP3   OH2 2558   0.332   5.728   0.597
  851TIP3    H1 2559   0.239   5.728   0.577
  851TIP3    H2 2560   0.344   5.797   0.662
  852TIP3   OH2 2561   3.015   5.511   4.393
  852TIP3    H1 2562   3.082   5.549   4.450
  852TIP3    H2 2563   2.935   5.511   4.446
  853TIP3   OH2 2564   1.413   5.743   0.840
  853TIP3    H1 2565   1.347   5.805   0.870
  853TIP3    H2 2566   1.495   5.792   0.842
  854TIP3   OH2 2567   3.507   4.146   1.955
  854TIP3    H1 2568   3.425   4.101   1.933
  854TIP3    H2 2569   3.508   4.148   2.050
  855TIP3   OH2 2570   3.530   1.629   4.746
  855TIP3    H1 2571   3.540   1.579   4.827
  855TIP3    H2 2572   3.456   1.688   4.762
  856TIP3   OH2 2573   0.429   4.912   4.286
  856TIP3    H1 2574   0.376   4.879   4.213
  856TIP3    H2 2575   0.429   4.841   4.349
  857TIP3   OH2 2576   1.090   0.727   5.140
  857TIP3    H1 2577   1.158   0.760   5.081
  857TIP3    H2 2578   1.105   0.632   5.143
  858TIP3   OH2 2579   4.684   1.117   1.946
  858TIP3    H1 2580   4.737   1.041   1.968
  858TIP3    H2 2581   4.685   1.171   2.025
  859TIP3   OH2 2582   0.875   1.569   2.017
  859TIP3    H1 2583   0.892   1.561   2.111
  859TIP3    H2 2584   0.927   1.499   1.978
  860TIP3   OH2 2585   0.243   3.947   2.443
  860TIP3    H1 2586   0.280   4.023   2.487
  860TIP3    H2 2587   0.291   3.941   2.360
  861TIP3   OH2 2588   2.038   2.902   1.636
  861TIP3    H1 2589   2.030   2.838   1.566
  861TIP3    H2 2590   2.050   2.986   1.591
  862TIP3   OH2 2591   0.894   0.495   4.705
  862TIP3    H1 2592   0.938   0.533   4.629
  862TIP3    H2 2593   0.832   0.432   4.668
  863TIP3   OH2 2594   4.261   0.938   0.977
  863TIP3    H1 2595   4.197   0.945   0.906
  863TIP3    H2 2596   4.208   0.943   1.057
  864TIP3   OH2 2597   5.028   1.466   0.343
  864TIP3    H1 2598   4.935   1.484   0.355
  864TIP3    H2 2599   5.052   1.517   0.265
  865TIP3   OH2 2600   4.725   3.258   3.613
  865TIP3    H1 2601   4.768   3.314   3.678
  865TIP3    H2 2602   4.795   3.201   3.582
  866TIP3   OH2 2603   4.843   0.012   1.917
  866TIP3    H1 2604   4.899  -0.043   1.972
  866TIP3    H2 2605   4.868   0.101   1.939
  867TIP3   OH2 2606   4.710   4.469   0.130
  867TIP3    H1 2607   4.653   4.544   0.110
  867TIP3    H2 2608   4.706   4.414   0.053
  868TIP3   OH2 2609   5.686   0.263   0.319
  868TIP3    H1 2610   5.705   0.319   0.394
  868TIP3    H2 2611   5.605   0.299   0.282
  869TIP3   OH2 2612   4.199   4.835   0.192
  869TIP3    H1 2613   4.229   4.806   0.277
  869TIP3    H2 2614   4.278   4.861   0.145
  870TIP3   OH2 2615   4.527   3.728   3.994
  870TIP3    H1 2616   4.609   3.710   3.947
  870TIP3    H2 2617   4.468   3.658   3.967
  871TIP3   OH2 2618   2.907   0.688   0.085
  871TIP3    H1 2619   2.946   0.744   0.018
  871TIP3    H2 2620   2.819   0.668   0.052
  872TIP3   OH2 2621   3.296   2.661   1.846
  872TIP3    H1 2622   3.217   2.638   1.895
  872TIP3    H2 2623   3.277   2.748   1.810
  873TIP3   OH2 2624   4.551   1.131   4.664
  873TIP3    H1 2625   4.456   1.147   4.663
  873TIP3    H2 2626   4.572   1.115   4.756
  874TIP3   OH2 2627   4.103   3.699   3.350
  874TIP3    H1 2628   4.191   3.663   3.340
  874TIP3    H2 2629   4.117   3.788   3.381
  875TIP3   OH2 2630   2.359   2.650   2.902
  875TIP3    H1 2631   2.439   2.701   2.913
  875TIP3    H2 2632   2.291   2.703   2.944
  876TIP3   OH2 2633   1.934   2.363   2.044
  876TIP3    H1 2634   1.880   2.394   1.971
  876TIP3    H2 2635   1.999   2.306   2.002
  877TIP3   OH2 2636   3.550   3.618   3.258
  877TIP3    H1 2637   3.519   3.563   3.331
  877TIP3    H2 2638   3.469   3.653   3.220
  878TIP3   OH2 2639   5.846   4.106   0.966
  878TIP3    H1 2640   5.905   4.039   0.931
  878TIP3    H2 2641   5.790   4.129   0.893
  879TIP3   OH2 2642   2.289   5.101   1.394
  879TIP3    H1 2643   2.233   5.122   1.468
  879TIP3    H2 2644   2.230   5.067   1.327
  880TIP3   OH2 2645   1.820   4.994   3.240
  880TIP3    H1 2646   1.877   4.950   3.177
  880TIP3    H2 2647   1.778   5.064   3.190
  881TIP3   OH2 2648   3.555   5.995   4.992
  881TIP3    H1 2649   3.478   5.939   4.989
  881TIP3    H2 2650   3.561   6.033   4.905
  882TIP3   OH2 2651   3.006   2.699   1.820
  882TIP3    H1 2652   2.945   2.770   1.841
  882TIP3    H2 2653   3.009   2.646   1.899
  883TIP3   OH2 2654   2.640   1.882   3.869
  883TIP3    H1 2655   2.711   1.858   3.809
  883TIP3    H2 2656   2.563   1.886   3.813
  884TIP3   OH2 2657   1.095   2.561   2.766
  884TIP3    H1 2658   1.003   2.564   2.742
  884TIP3    H2 2659   1.111   2.644   2.812
  885TIP3   OH2 2660   1.799   0.771   1.927
  885TIP3    H1 2661   1.840   0.812   1.851
  885TIP3    H2 2662   1.785   0.680   1.901
  886TIP3   OH2 2663   0.982   1.807   2.968
  886TIP3    H1 2664   0.889   1.799   2.989
  886TIP3    H2 2665   0.983   1.850   2.882
  887TIP3   OH2 2666   5.214   3.527   3.046
  887TIP3    H1 2667   5.211   3.432   3.039
  887TIP3    H2 2668   5.148   3.558   2.985
  888TIP3   OH2 2669   2.009   3.525   3.243
  888TIP3    H1 2670   2.078   3.567   3.293
  888TIP3    H2 2671   1.929   3.570   3.268
  889TIP3   OH2 2672   2.975   4.685   4.077
  889TIP3    H1 2673   2.982   4.727   3.992
  889TIP3    H2 2674   3.010   4.750   4.139
  890TIP3   OH2 2675   1.453   4.088   0.009
  890TIP3    H1 2676   1.507   4.127   0.078
  890TIP3    H2 2677   1.368   4.074   0.051
  891TIP3   OH2 2678   1.042   4.377   3.892
  891TIP3    H1 2679   0.977   4.427   3.941
  891TIP3    H2 2680   0.991   4.319   3.836
  892TIP3   OH2 2681   2.431   2.153   3.578
  892TIP3    H1 2682   2.433   2.063   3.610
  892TIP3    H2 2683   2.352   2.158   3.524
  893TIP3   OH2 2684   1.382   1.075   4.049
  893TIP3    H1 2685   1.384   0.980   4.050
  893TIP3    H2 2686   1.305   1.097   3.997
  894TIP3   OH2 2687   0.918   3.856   2.336
  894TIP3    H1 2688   0.900   3.907   2.415
  894TIP3    H2 2689   1.011   3.833   2.342
  895TIP3   OH2 2690   5.648   5.699   0.301
  895TIP3    H1 2691   5.567   5.744   0.274
  895TIP3    H2 2692   5.664   5.731   0.390
  896TIP3   OH2 2693   2.553   0.439   3.943
  896TIP3    H1 2694   2.643   0.445   3.912
  896TIP3    H2 2695   2.534   0.345   3.944
  897TIP3   OH2 2696   0.861   0.213   4.474
  897TIP3    H1 2697   0.789   0.221   4.537
  897TIP3    H2 2698   0.818   0.212   4.389
  898TIP3   OH2 2699   2.986   1.838   2.025
  898TIP3    H1 2700   2.971   1.911   1.966
  898TIP3    H2 2701   3.057   1.788   1.984
  899TIP3   OH2 2702   5.650   1.701   4.396
  899TIP3    H1 2703   5.695   1.781   4.425
  899TIP3    H2 2704   5.561   1.710   4.430
  900TIP3   OH2 2705   1.473   3.321   4.970
  900TIP3    H1 2706   1.509   3.389   5.027
  900TIP3    H2 2707   1.518   3.241   4.996
  901TIP3   OH2 2708   1.165   1.228   0.739
  901TIP3    H1 2709   1.116   1.154   0.776
  901TIP3    H2 2710   1.130   1.238   0.651
  902TIP3   OH2 2711   3.147   1.966   1.459
  902TIP3    H1 2712   3.169   2.037   1.519
  902TIP3    H2 2713   3.080   1.916   1.504
  903TIP3   OH2 2714   1.367   1.132   4.329
  903TIP3    H1 2715   1.378   1.112   4.236
  903TIP3    H2 2716   1.316   1.213   4.330
  904TIP3   OH2 2717   4.598   2.029   0.483
  904TIP3    H1 2718   4.542   1.969   0.532
  904TIP3    H2 2719   4.556   2.114   0.491
  905TIP3   OH2 2720   5.082   4.087   3.522
  905TIP3    H1 2721   5.016   4.023   3.549
  905TIP3    H2 2722   5.107   4.131   3.604
  906TIP3   OH2 2723   0.960   5.728   4.201
  906TIP3    H1 2724   0.939   5.806   4.253
  906TIP3    H2 2725   1.035   5.689   4.246
  907TIP3   OH2 2726   4.385   5.764   4.732
  907TIP3    H1 2727   4.296   5.782   4.701
  907TIP3    H2 2728   4.374   5.735   4.822
  908TIP3   OH2 2729   2.886   3.036   3.597
  908TIP3    H1 2730   2.979   3.024   3.617
  908TIP3    H2 2731   2.845   2.956   3.629
  909TIP3   OH2 2732   2.967   2.560   2.614
  909TIP3    H1 2733   2.952   2.474   2.652
  909TIP3    H2 2734   2.976   2.619   2.689
  910TIP3   OH2 2735   4.418   3.353   0.705
  910TIP3    H1 2736   4.454   3.361   0.616
  910TIP3    H2 2737   4.428   3.441   0.742
  911TIP3   OH2 2738   0.713   3.076   3.543
  911TIP3    H1 2739   0.699   3.126   3.623
  911TIP3    H2 2740   0.631   3.084   3.495
  912TIP3   OH2 2741   3.199   0.613   3.812
  912TIP3    H1 2742   3.190   0.701   3.849
  912TIP3    H2 2743   3.194   0.554   3.888
  913TIP3   OH2 2744   4.802   0.339   0.247
  913TIP3    H1 2745   4.859   0.401   0.202
  913TIP3    H2 2746   4.797   0.264   0.187
  914TIP3   OH2 2747   4.998   1.103   1.218
  914TIP3    H1 2748   4.969   1.084   1.307
  914TIP3    H2 2749   5.094   1.102   1.224
  915TIP3   OH2 2750   2.397   5.346   3.960
  915TIP3    H1 2751   2.413   5.279   3.894
  915TIP3    H2 2752   2.472   5.405   3.953
  916TIP3   OH2 2753   4.190   4.950   0.598
  916TIP3    H1 2754   4.240   5.026   0.568
  916TIP3    H2 2755   4.253   4.878   0.594
  917TIP3   OH2 2756   6.270   3.872   4.982
  917TIP3    H1 2757   6.222   3.795   5.010
  917TIP3    H2 2758   6.273   3.866   4.886
  918TIP3   OH2 2759   6.181   3.767   1.249
  918TIP3    H1 2760   6.229   3.744   1.329
  918TIP3    H2 2761   6.244   3.816   1.196
  919TIP3   OH2 2762   6.208   5.999   0.368
  919TIP3    H1 2763   6.245   6.005   0.456
  919TIP3    H2 2764   6.191   5.905   0.355
  920TIP3   OH2 2765   4.079   3.155   1.178
  920TIP3    H1 2766   4.140   3.206   1.232
  920TIP3    H2 2767   4.022   3.112   1.242
  921TIP3   OH2 2768   3.516   4.736   3.770
  921TIP3    H1 2769   3.592   4.786   3.800
  921TIP3    H2 2770   3.496   4.677   3.843
  922TIP3   OH2 2771   5.242   5.827   5.040
  922TIP3    H1 2772   5.185   5.881   5.094
  922TIP3    H2 2773   5.285   5.889   4.981
  923TIP3   OH2 2774   4.247   0.706   0.076
  923TIP3    H1 2775   4.295   0.781   0.041
  923TIP3    H2 2776   4.160   0.714   0.038
  924TIP3   OH2 2777   2.577   2.744   4.638
  924TIP3    H1 2778   2.522   2.688   4.583
  924TIP3    H2 2779   2.595   2.821   4.584
  925TIP3   OH2 2780   1.151   2.388   2.501
  925TIP3    H1 2781   1.083   2.422   2.558
  925TIP3    H2 2782   1.215   2.347   2.560
  926TIP3   OH2 2783   2.642   1.446   0.010
  926TIP3    H1 2784   2.684   1.448   0.096
  926TIP3    H2 2785   2.579   1.518   0.012
  927TIP3   OH2 2786   2.695   0.193   2.848
  927TIP3    H1 2787   2.653   0.219   2.766
  927TIP3    H2 2788   2.699   0.098   2.844
  928TIP3   OH2 2789   5.325   2.254   5.142
  928TIP3    H1 2790   5.340   2.187   5.209
  928TIP3    H2 2791   5.413   2.284   5.118
  929TIP3   OH2 2792   1.312   1.091   1.008
  929TIP3    H1 2793   1.277   1.026   0.947
  929TIP3    H2 2794   1.329   1.168   0.954
  930TIP3   OH2 2795   4.243   5.091   1.054
  930TIP3    H1 2796   4.273   5.014   1.005
  930TIP3    H2 2797   4.193   5.142   0.991
  931TIP3   OH2 2798   2.737   1.428   0.921
  931TIP3    H1 2799   2.738   1.506   0.976
  931TIP3    H2 2800   2.647   1.397   0.926
  932TIP3   OH2 2801   6.360   3.277   4.239
  932TIP3    H1 2802   6.334   3.357   4.193
  932TIP3    H2 2803   6.280   3.224   4.240
  933TIP3   OH2 2804   0.308   0.359   0.976
  933TIP3    H1 2805   0.269   0.400   1.053
  933TIP3    H2 2806   0.350   0.432   0.929
  934TIP3   OH2 2807   2.181   1.383   1.039
  934TIP3    H1 2808   2.190   1.317   0.970
  934TIP3    H2 2809   2.184   1.333   1.121
  935TIP3   OH2 2810   4.327   5.484   1.415
  935TIP3    H1 2811   4.262   5.433   1.464
  935TIP3    H2 2812   4.362   5.546   1.479
  936TIP3   OH2 2813   3.912   3.618   3.528
  936TIP3    H1 2814   3.959   3.559   3.587
  936TIP3    H2 2815   3.972   3.631   3.454
  937TIP3   OH2 2816   1.646   4.607   4.228
  937TIP3    H1 2817   1.724   4.662   4.229
  937TIP3    H2 2818   1.642   4.573   4.139
  938TIP3   OH2 2819   1.308   4.802   1.433
  938TIP3    H1 2820   1.288   4.723   1.483
  938TIP3    H2 2821   1.400   4.790   1.407
  939TIP3   OH2 2822   0.803   2.492   3.466
  939TIP3    H1 2823   0.806   2.583   3.435
  939TIP3    H2 2824   0.774   2.499   3.557
  940TIP3   OH2 2825   3.343   5.550   2.438
  940TIP3    H1 2826   3.342   5.575   2.531
  940TIP3    H2 2827   3.280   5.478   2.433
  941TIP3   OH2 2828   0.649   0.959   3.448
  941TIP3    H1 2829   0.588   1.033   3.449
  941TIP3    H2 2830   0.733   0.997   3.472
  942TIP3   OH2 2831   2.124   0.698   3.113
  942TIP3    H1 2832   2.102   0.606   3.128
  942TIP3    H2 2833   2.073   0.723   3.036
  943TIP3   OH2 2834   3.749   2.311   3.113
  943TIP3    H1 2835   3.780   2.359   3.036
  943TIP3    H2 2836   3.809   2.336   3.183
  944TIP3   OH2 2837   3.279   5.095   4.759
  944TIP3    H1 2838   3.303   5.008   4.728
  944TIP3    H2 2839   3.357   5.126   4.806
  945TIP3   OH2 2840   1.716   2.356   4.399
  945TIP3    H1 2841   1.741   2.370   4.491
  945TIP3    H2 2842   1.621   2.344   4.402
  946TIP3   OH2 2843   5.670   4.350   3.711
  946TIP3    H1 2844   5.670   4.415   3.640
  946TIP3    H2 2845   5.759   4.350   3.743
  947TIP3   OH2 2846   2.882   0.263   3.650
  947TIP3    H1 2847   2.953   0.326   3.654
  947TIP3    H2 2848   2.884   0.229   3.561
  948TIP3   OH2 2849   0.893   5.599   4.645
  948TIP3    H1 2850   0.856   5.515   4.670
  948TIP3    H2 2851   0.986   5.582   4.630
  949TIP3   OH2 2852   4.661   3.296   1.414
  949TIP3    H1 2853   4.731   3.273   1.353
  949TIP3    H2 2854   4.585   3.310   1.357
  950TIP3   OH2 2855   3.654   0.352   2.125
  950TIP3    H1 2856   3.723   0.312   2.072
  950TIP3    H2 2857   3.676   0.330   2.215
  951TIP3   OH2 2858   3.041   4.039   1.257
  951TIP3    H1 2859   2.981   4.113   1.254
  951TIP3    H2 2860   3.105   4.056   1.188
  952TIP3   OH2 2861   0.993   5.776   3.102
  952TIP3    H1 2862   0.967   5.867   3.086
  952TIP3    H2 2863   0.965   5.759   3.192
  953TIP3   OH2 2864   3.037   4.269   4.092
  953TIP3    H1 2865   3.038   4.175   4.075
  953TIP3    H2 2866   2.981   4.279   4.169
  954TIP3   OH2 2867   3.671   2.791   3.026
  954TIP3    H1 2868   3.613   2.784   2.951
  954TIP3    H2 2869   3.652   2.715   3.080
  955TIP3   OH2 2870   0.023   3.546   1.173
  955TIP3    H1 2871   0.045   3.538   1.080
  955TIP3    H2 2872   0.084   3.611   1.207
  956TIP3   OH2 2873   3.322   5.825   4.997
  956TIP3    H1 2874   3.344   5.836   5.090
  956TIP3    H2 2875   3.229   5.846   4.991
  957TIP3   OH2 2876   4.007   0.644   2.364
  957TIP3    H1 2877   3.979   0.676   2.450
  957TIP3    H2 2878   3.926   0.616   2.322
  958TIP3   OH2 2879   5.415   3.907   4.616
  958TIP3    H1 2880   5.377   3.822   4.595
  958TIP3    H2 2881   5.490   3.916   4.558
  959TIP3   OH2 2882   5.612   1.073   4.845
  959TIP3    H1 2883   5.622   1.041   4.756
  959TIP3    H2 2884   5.693   1.122   4.862
  960TIP3   OH2 2885   2.339   5.510   4.569
  960TIP3    H1 2886   2.292   5.428   4.557
  960TIP3    H2 2887   2.296   5.552   4.644
  961TIP3   OH2 2888   0.928   5.508   1.465
  961TIP3    H1 2889   0.963   5.452   1.395
  961TIP3    H2 2890   0.833   5.504   1.453
  962TIP3   OH2 2891   4.288   1.543   0.121
  962TIP3    H1 2892   4.262   1.452   0.130
  962TIP3    H2 2893   4.302   1.555   0.028
  963TIP3   OH2 2894   3.807   1.957   1.224
  963TIP3    H1 2895   3.850   1.874   1.201
  963TIP3    H2 2896   3.728   1.959   1.169
  964TIP3   OH2 2897   1.019   1.106   0.158
  964TIP3    H1 2898   1.091   1.089   0.096
  964TIP3    H2 2899   0.950   1.144   0.104
  965TIP3   OH2 2900   3.491   4.824   2.482
  965TIP3    H1 2901   3.537   4.842   2.564
  965TIP3    H2 2902   3.518   4.895   2.423
  966TIP3   OH2 2903   5.986   5.669   1.328
  966TIP3    H1 2904   5.926   5.712   1.268
  966TIP3    H2 2905   6.015   5.591   1.281
  967TIP3   OH2 2906   3.524   0.985   5.196
  967TIP3    H1 2907   3.521   1.042   5.119
  967TIP3    H2 2908   3.468   0.912   5.173
  968TIP3   OH2 2909   0.307   0.435   3.705
  968TIP3    H1 2910   0.360   0.405   3.630
  968TIP3    H2 2911   0.363   0.498   3.750
  969TIP3   OH2 2912   4.117   2.472   4.050
  969TIP3    H1 2913   4.132   2.566   4.044
  969TIP3    H2 2914   4.023   2.463   4.061
  970TIP3   OH2 2915   5.762   5.368   2.411
  970TIP3    H1 2916   5.673   5.384   2.443
  970TIP3    H2 2917   5.778   5.438   2.348
  971TIP3   OH2 2918   3.735   0.775   3.085
  971TIP3    H1 2919   3.659   0.831   3.099
  971TIP3    H2 2920   3.808   0.824   3.122
  972TIP3   OH2 2921   3.175   2.840   0.805
  972TIP3    H1 2922   3.257   2.793   0.824
  972TIP3    H2 2923   3.139   2.795   0.729
  973TIP3   OH2 2924   6.215   4.078   1.383
  973TIP3    H1 2925   6.257   4.053   1.301
  973TIP3    H2 2926   6.123   4.091   1.360
  974TIP3   OH2 2927   4.138   2.634   1.202
  974TIP3    H1 2928   4.092   2.633   1.285
  974TIP3    H2 2929   4.170   2.545   1.191
  975TIP3   OH2 2930   2.744   2.549   2.941
  975TIP3    H1 2931   2.686   2.527   3.014
  975TIP3    H2 2932   2.745   2.470   2.887
  976TIP3   OH2 2933   4.425   3.431   2.239
  976TIP3    H1 2934   4.375   3.393   2.166
  976TIP3    H2 2935   4.495   3.480   2.196
  977TIP3   OH2 2936   5.176   1.426   4.884
  977TIP3    H1 2937   5.245   1.418   4.949
  977TIP3    H2 2938   5.098   1.391   4.926
  978TIP3   OH2 2939   5.900   5.232   2.835
  978TIP3    H1 2940   5.908   5.182   2.917
  978TIP3    H2 2941   5.864   5.316   2.863
  979TIP3   OH2 2942   5.604   0.083   1.426
  979TIP3    H1 2943   5.608   0.137   1.506
  979TIP3    H2 2944   5.521   0.107   1.385
  980TIP3   OH2 2945   3.770   2.200   4.649
  980TIP3    H1 2946   3.763   2.105   4.639
  980TIP3    H2 2947   3.780   2.233   4.560
  981TIP3   OH2 2948   2.717   1.649   1.085
  981TIP3    H1 2949   2.757   1.597   1.154
  981TIP3    H2 2950   2.623   1.628   1.091
  982TIP3   OH2 2951   0.237   3.774   0.918
  982TIP3    H1 2952   0.155   3.811   0.886
  982TIP3    H2 2953   0.267   3.835   0.985
  983TIP3   OH2 2954   0.894   5.140   4.589
  983TIP3    H1 2955   0.810   5.095   4.578
  983TIP3    H2 2956   0.904   5.191   4.509
  984TIP3   OH2 2957   1.263   2.526   2.305
  984TIP3    H1 2958   1.232   2.493   2.389
  984TIP3    H2 2959   1.254   2.621   2.311
  985TIP3   OH2 2960   0.451   2.067   3.734
  985TIP3    H1 2961   0.373   2.017   3.711
  985TIP3    H2 2962   0.485   2.099   3.650
  986TIP3   OH2 2963   5.910   0.371   1.375
  986TIP3    H1 2964   5.911   0.277   1.357
  986TIP3    H2 2965   5.912   0.377   1.471
  987TIP3   OH2 2966   0.109   4.144   4.917
  987TIP3    H1 2967   0.111   4.083   4.843
  987TIP3    H2 2968   0.196   4.137   4.956
  988TIP3   OH2 2969   1.754   4.214   2.313
  988TIP3    H1 2970   1.711   4.135   2.347
  988TIP3    H2 2971   1.690   4.284   2.327
  989TIP3   OH2 2972   3.744   5.341   2.953
  989TIP3    H1 2973   3.777   5.381   3.034
  989TIP3    H2 2974   3.690   5.268   2.982
  990TIP3   OH2 2975   0.794   4.982   1.859
  990TIP3    H1 2976   0.743   4.954   1.783
  990TIP3    H2 2977   0.856   4.911   1.874
  991TIP3   OH2 2978   0.101   5.380   1.353
  991TIP3    H1 2979   0.116   5.289   1.379
  991TIP3    H2 2980   0.071   5.375   1.263
  992TIP3   OH2 2981   2.286   5.867   1.581
  992TIP3    H1 2982   2.201   5.860   1.624
  992TIP3    H2 2983   2.278   5.943   1.524
  993TIP3   OH2 2984   4.827   4.426   1.670
  993TIP3    H1 2985   4.741   4.467   1.681
  993TIP3    H2 2986   4.811   4.333   1.688
  994TIP3   OH2 2987   0.639   0.089   0.564
  994TIP3    H1 2988   0.666  -0.002   0.549
  994TIP3    H2 2989   0.563   0.082   0.621
  995TIP3   OH2 2990   5.537   4.688   0.930
  995TIP3    H1 2991   5.484   4.722   1.002
  995TIP3    H2 2992   5.607   4.638   0.973
  996TIP3   OH2 2993   3.929   5.462   4.383
  996TIP3    H1 2994   4.000   5.400   4.397
  996TIP3    H2 2995   3.889   5.434   4.300
  997TIP3   OH2 2996   3.821   2.445   5.145
  997TIP3    H1 2997   3.777   2.520   5.185
  997TIP3    H2 2998   3.779   2.436   5.060
  998TIP3   OH2 2999   3.492   1.049   4.857
  998TIP3    H1 3000   3.575   1.011   4.829
  998TIP3    H2 3001   3.438   0.974   4.879
  999TIP3   OH2 3002   0.639   4.344   0.167
  999TIP3    H1 3003   0.601   4.256   0.161
  999TIP3    H2 3004   0.671   4.351   0.257
 1000TIP3   OH2 3005   2.165   2.846   3.002
 1000TIP3    H1 3006   2.217   2.919   2.969
 1000TIP3    H2 3007   2.157   2.861   3.096
 1001TIP3   OH2 3008   3.679   4.375   0.051
 1001TIP3    H1 3009   3.623   4.315   0.000
 1001TIP3    H2 3010   3.701   4.325   0.129
 1002TIP3   OH2 3011   2.888   1.493   1.252
 1002TIP3    H1 3012   2.912   1.454   1.335
 1002TIP3    H2 3013   2.954   1.462   1.190
 1003TIP3   OH2 3014   6.002   5.123   3.760
 1003TIP3    H1 3015   6.080   5.168   3.791
 1003TIP3    H2 3016   5.975   5.172   3.683
 1004TIP3   OH2 3017   1.655   4.477   1.064
 1004TIP3    H1 3018   1.674   4.537   1.137
 1004TIP3    H2 3019   1.579   4.516   1.020
 1005TIP3   OH2 3020   4.054   2.275   2.650
 1005TIP3    H1 3021   4.125   2.228   2.607
 1005TIP3    H2 3022   3.974   2.239   2.612
 1006TIP3   OH2 3023   1.147   5.565   0.679
 1006TIP3    H1 3024   1.062   5.593   0.714
 1006TIP3    H2 3025   1.200   5.545   0.756
 1007TIP3   OH2 3026   2.386   1.033   3.359
 1007TIP3    H1 3027   2.331   1.017   3.282
 1007TIP3    H2 3028   2.348   0.978   3.427
 1008TIP3   OH2 3029   3.124   3.376   2.716
 1008TIP3    H1 3030   3.206   3.363   2.668
 1008TIP3    H2 3031   3.146   3.356   2.807
 1009TIP3   OH2 3032   4.306   4.191   0.053
 1009TIP3    H1 3033   4.372   4.125   0.077
 1009TIP3    H2 3034   4.353   4.252  -0.004
 1010TIP3   OH2 3035   2.376   1.354   1.725
 1010TIP3    H1 3036   2.357   1.281   1.783
 1010TIP3    H2 3037   2.319   1.339   1.649
 1011TIP3   OH2 3038   3.637   5.858   4.672
 1011TIP3    H1 3039   3.713   5.911   4.648
 1011TIP3    H2 3040   3.633   5.790   4.604
 1012TIP3   OH2 3041   0.627   2.241   3.103
 1012TIP3    H1 3042   0.534   2.228   3.085
 1012TIP3    H2 3043   0.646   2.182   3.177
 1013TIP3   OH2 3044   4.812   3.662   1.695
 1013TIP3    H1 3045   4.875   3.624   1.756
 1013TIP3    H2 3046   4.864   3.716   1.636
 1014TIP3   OH2 3047   5.162   4.907   5.173
 1014TIP3    H1 3048   5.255   4.896   5.153
 1014TIP3    H2 3049   5.121   4.924   5.088
 1015TIP3   OH2 3050   5.782   4.427   4.214
 1015TIP3    H1 3051   5.778   4.345   4.165
 1015TIP3    H2 3052   5.723   4.486   4.168
 1016TIP3   OH2 3053   5.588   0.201   4.185
 1016TIP3    H1 3054   5.596   0.161   4.098
 1016TIP3    H2 3055   5.497   0.183   4.211
 1017TIP3   OH2 3056   6.120   0.594   2.817
 1017TIP3    H1 3057   6.153   0.682   2.835
 1017TIP3    H2 3058   6.152   0.540   2.890
 1018TIP3   OH2 3059   4.738   5.355   0.508
 1018TIP3    H1 3060   4.828   5.336   0.532
 1018TIP3    H2 3061   4.689   5.277   0.533
 1019TIP3   OH2 3062   4.509   5.385   5.128
 1019TIP3    H1 3063   4.416   5.403   5.116
 1019TIP3    H2 3064   4.529   5.316   5.064
 1020TIP3   OH2 3065   6.052   5.564   4.725
 1020TIP3    H1 3066   6.022   5.541   4.814
 1020TIP3    H2 3067   6.137   5.521   4.717
 1021TIP3   OH2 3068   0.513   3.182   0.091
 1021TIP3    H1 3069   0.542   3.130   0.016
 1021TIP3    H2 3070   0.586   3.242   0.109
 1022TIP3   OH2 3071   2.273   3.420   1.976
 1022TIP3    H1 3072   2.275   3.338   2.026
 1022TIP3    H2 3073   2.257   3.488   2.041
 1023TIP3   OH2 3074   0.941   2.308   3.336
 1023TIP3    H1 3075   1.020   2.306   3.390
 1023TIP3    H2 3076   0.888   2.379   3.372
 1024TIP3   OH2 3077   0.093   1.276   2.508
 1024TIP3    H1 3078   0.105   1.276   2.413
 1024TIP3    H2 3079   0.101   1.183   2.532
 1025TIP3   OH2 3080   4.075   1.618   4.596
 1025TIP3    H1 3081   3.986   1.625   4.630
 1025TIP3    H2 3082   4.104   1.530   4.622
 1026TIP3   OH2 3083   3.346   2.792   4.465
 1026TIP3    H1 3084   3.429   2.791   4.417
 1026TIP3    H2 3085   3.371   2.820   4.553
 1027TIP3   OH2 3086   3.738   3.846   3.223
 1027TIP3    H1 3087   3.677   3.775   3.203
 1027TIP3    H2 3088   3.722   3.867   3.315
 1028TIP3   OH2 3089   4.025   1.821   1.569
 1028TIP3    H1 3090   3.945   1.872   1.556
 1028TIP3    H2 3091   4.049   1.837   1.660
 1029TIP3   OH2 3092   1.910   5.620   5.098
 1029TIP3    H1 3093   2.006   5.624   5.098
 1029TIP3    H2 3094   1.888   5.586   5.185
 1030TIP3   OH2 3095   5.096   0.040   2.642
 1030TIP3    H1 3096   5.130   0.042   2.553
 1030TIP3    H2 3097   5.158   0.093   2.692
 1031TIP3   OH2 3098   5.913   1.102   0.461
 1031TIP3    H1 3099   5.997   1.110   0.415
 1031TIP3    H2 3100   5.875   1.190   0.457
 1032TIP3   OH2 3101   5.577   3.454   2.895
 1032TIP3    H1 3102   5.526   3.373   2.889
 1032TIP3    H2 3103   5.527   3.518   2.844
 1033TIP3   OH2 3104   0.895   4.593   0.623
 1033TIP3    H1 3105   0.912   4.661   0.559
 1033TIP3    H2 3106   0.807   4.610   0.654
 1034TIP3   OH2 3107   5.984   0.308   1.652
 1034TIP3    H1 3108   5.942   0.222   1.647
 1034TIP3    H2 3109   5.920   0.362   1.699
 1035TIP3   OH2 3110   0.228   2.879   3.254
 1035TIP3    H1 3111   0.278   2.919   3.325
 1035TIP3    H2 3112   0.152   2.840   3.296
 1036TIP3   OH2 3113   4.031   0.941   3.035
 1036TIP3    H1 3114   3.960   0.967   3.094
 1036TIP3    H2 3115   4.086   1.019   3.027
 1037TIP3   OH2 3116   0.329   5.048   2.422
 1037TIP3    H1 3117   0.286   5.058   2.507
 1037TIP3    H2 3118   0.296   5.122   2.370
 1038TIP3   OH2 3119   5.622   4.505   3.485
 1038TIP3    H1 3120   5.527   4.509   3.490
 1038TIP3    H2 3121   5.642   4.519   3.392
 1039TIP3   OH2 3122   2.089   4.170   4.123
 1039TIP3    H1 3123   2.182   4.149   4.116
 1039TIP3    H2 3124   2.047   4.087   4.147
 1040TIP3   OH2 3125   5.502   5.630   1.270
 1040TIP3    H1 3126   5.509   5.536   1.256
 1040TIP3    H2 3127   5.565   5.668   1.209
 1041TIP3   OH2 3128   6.040   3.233   0.718
 1041TIP3    H1 3129   5.987   3.167   0.673
 1041TIP3    H2 3130   6.087   3.278   0.648
 1042TIP3   OH2 3131   2.797   0.970   1.186
 1042TIP3    H1 3132   2.851   1.039   1.224
 1042TIP3    H2 3133   2.817   0.893   1.240
 1043TIP3   OH2 3134   1.768   3.916   1.530
 1043TIP3    H1 3135   1.685   3.869   1.532
 1043TIP3    H2 3136   1.825   3.866   1.589
 1044TIP3   OH2 3137   5.212   4.621   3.775
 1044TIP3    H1 3138   5.293   4.638   3.821
 1044TIP3    H2 3139   5.189   4.531   3.799
 1045TIP3   OH2 3140   3.844   0.647   1.122
 1045TIP3    H1 3141   3.921   0.684   1.080
 1045TIP3    H2 3142   3.778   0.716   1.117
 1046TIP3   OH2 3143   2.987   3.230   2.496
 1046TIP3    H1 3144   3.051   3.252   2.429
 1046TIP3    H2 3145   3.018   3.275   2.575
 1047TIP3   OH2 3146   3.667   1.908   2.129
 1047TIP3    H1 3147   3.667   1.817   2.099
 1047TIP3    H2 3148   3.717   1.906   2.210
 1048TIP3   OH2 3149   6.279   5.032   0.358
 1048TIP3    H1 3150   6.359   5.046   0.307
 1048TIP3    H2 3151   6.268   4.937   0.358
 1049TIP3   OH2 3152   3.986   4.588   4.774
 1049TIP3    H1 3153   3.962   4.567   4.865
 1049TIP3    H2 3154   4.010   4.504   4.735
 1050TIP3   OH2 3155   1.648   5.878   3.232
 1050TIP3    H1 3156   1.578   5.932   3.194
 1050TIP3    H2 3157   1.720   5.939   3.245
 1051TIP3   OH2 3158   3.848   1.704   2.739
 1051TIP3    H1 3159   3.789   1.768   2.701
 1051TIP3    H2 3160   3.792   1.648   2.792
 1052TIP3   OH2 3161   3.321   1.031   2.950
 1052TIP3    H1 3162   3.360   1.111   2.915
 1052TIP3    H2 3163   3.309   0.974   2.873
 1053TIP3   OH2 3164   4.074   4.809   3.497
 1053TIP3    H1 3165   3.990   4.815   3.452
 1053TIP3    H2 3166   4.139   4.804   3.427
 1054TIP3   OH2 3167   2.299   2.476   1.305
 1054TIP3    H1 3168   2.288   2.544   1.372
 1054TIP3    H2 3169   2.389   2.445   1.318
 1055TIP3   OH2 3170   3.305   5.031   2.502
 1055TIP3    H1 3171   3.335   4.947   2.537
 1055TIP3    H2 3172   3.345   5.096   2.559
 1056TIP3   OH2 3173   3.014   0.167   0.009
 1056TIP3    H1 3174   2.997   0.245   0.061
 1056TIP3    H2 3175   3.064   0.109   0.067
 1057TIP3   OH2 3176   2.667   3.328   3.198
 1057TIP3    H1 3177   2.573   3.319   3.214
 1057TIP3    H2 3178   2.707   3.258   3.250
 1058TIP3   OH2 3179   3.612   5.220   1.761
 1058TIP3    H1 3180   3.555   5.173   1.700
 1058TIP3    H2 3181   3.653   5.151   1.813
 1059TIP3   OH2 3182   5.191   3.272   3.501
 1059TIP3    H1 3183   5.128   3.204   3.481
 1059TIP3    H2 3184   5.148   3.354   3.476
 1060TIP3   OH2 3185   0.143   4.790   4.155
 1060TIP3    H1 3186   0.102   4.734   4.220
 1060TIP3    H2 3187   0.197   4.731   4.102
 1061TIP3   OH2 3188   3.351   1.741   1.260
 1061TIP3    H1 3189   3.395   1.740   1.175
 1061TIP3    H2 3190   3.258   1.747   1.238
 1062TIP3   OH2 3191   0.468   2.472   2.053
 1062TIP3    H1 3192   0.380   2.447   2.027
 1062TIP3    H2 3193   0.523   2.448   1.978
 1063TIP3   OH2 3194   3.270   5.928   2.544
 1063TIP3    H1 3195   3.229   5.851   2.582
 1063TIP3    H2 3196   3.206   5.962   2.482
 1064TIP3   OH2 3197   1.424   3.950   1.303
 1064TIP3    H1 3198   1.413   4.041   1.331
 1064TIP3    H2 3199   1.515   3.944   1.275
 1065TIP3   OH2 3200   2.976   4.222   3.813
 1065TIP3    H1 3201   2.944   4.151   3.870
 1065TIP3    H2 3202   2.914   4.222   3.740
 1066TIP3   OH2 3203   3.776   2.142   5.179
 1066TIP3    H1 3204   3.759   2.236   5.183
 1066TIP3    H2 3205   3.817   2.122   5.263
 1067TIP3   OH2 3206   3.442   0.664   1.377
 1067TIP3    H1 3207   3.410   0.699   1.294
 1067TIP3    H2 3208   3.509   0.601   1.352
 1068TIP3   OH2 3209   3.751   2.164   0.421
 1068TIP3    H1 3210   3.720   2.077   0.447
 1068TIP3    H2 3211   3.685   2.196   0.359
 1069TIP3   OH2 3212   2.803   3.283   3.725
 1069TIP3    H1 3213   2.712   3.265   3.746
 1069TIP3    H2 3214   2.839   3.197   3.701
 1070TIP3   OH2 3215   4.916   1.605   3.096
 1070TIP3    H1 3216   4.927   1.613   3.190
 1070TIP3    H2 3217   4.821   1.599   3.083
 1071TIP3   OH2 3218   6.328   0.616   2.581
 1071TIP3    H1 3219   6.280   0.691   2.547
 1071TIP3    H2 3220   6.341   0.636   2.673
 1072TIP3   OH2 3221   0.877   3.657   3.309
 1072TIP3    H1 3222   0.791   3.629   3.277
 1072TIP3    H2 3223   0.938   3.591   3.277
 1073TIP3   OH2 3224   6.240   5.432   3.670
 1073TIP3    H1 3225   6.154   5.469   3.652
 1073TIP3    H2 3226   6.273   5.482   3.744
 1074TIP3   OH2 3227   5.697   2.183   3.845
 1074TIP3    H1 3228   5.633   2.139   3.788
 1074TIP3    H2 3229   5.743   2.111   3.888
 1075TIP3   OH2 3230   3.634   4.287   4.239
 1075TIP3    H1 3231   3.627   4.216   4.174
 1075TIP3    H2 3232   3.555   4.276   4.292
 1076TIP3   OH2 3233   4.025   3.533   4.299
 1076TIP3    H1 3234   4.033   3.620   4.261
 1076TIP3    H2 3235   3.931   3.516   4.302
 1077TIP3   OH2 3236   5.122   5.881   4.051
 1077TIP3    H1 3237   5.083   5.898   3.965
 1077TIP3    H2 3238   5.190   5.816   4.033
 1078TIP3   OH2 3239   1.824   4.661   3.057
 1078TIP3    H1 3240   1.897   4.717   3.029
 1078TIP3    H2 3241   1.843   4.642   3.149
 1079TIP3   OH2 3242   2.276   5.962   2.403
 1079TIP3    H1 3243   2.296   5.882   2.354
 1079TIP3    H2 3244   2.326   5.954   2.484
 1080TIP3   OH2 3245   0.377   0.702   1.691
 1080TIP3    H1 3246   0.450   0.711   1.753
 1080TIP3    H2 3247   0.416   0.717   1.605
 1081TIP3   OH2 3248   5.018   3.679   3.988
 1081TIP3    H1 3249   5.095   3.720   3.949
 1081TIP3    H2 3250   5.053   3.614   4.049
 1082TIP3   OH2 3251   6.330   2.390   1.792
 1082TIP3    H1 3252   6.299   2.472   1.754
 1082TIP3    H2 3253   6.263   2.326   1.768
 1083TIP3   OH2 3254   5.625   5.493   0.002
 1083TIP3    H1 3255   5.697   5.552   0.024
 1083TIP3    H2 3256   5.552   5.524   0.056
 1084TIP3   OH2 3257   4.816   0.633   4.532
 1084TIP3    H1 3258   4.863   0.717   4.537
 1084TIP3    H2 3259   4.763   0.631   4.612
 1085TIP3   OH2 3260   1.258   3.473   2.482
 1085TIP3    H1 3261   1.215   3.544   2.529
 1085TIP3    H2 3262   1.215   3.393   2.514
 1086TIP3   OH2 3263   4.605   0.706   3.871
 1086TIP3    H1 3264   4.604   0.757   3.952
 1086TIP3    H2 3265   4.518   0.721   3.833
 1087TIP3   OH2 3266   3.559   4.774   1.944
 1087TIP3    H1 3267   3.485   4.796   2.000
 1087TIP3    H2 3268   3.608   4.856   1.936
 1088TIP3   OH2 3269   2.728   4.488   4.244
 1088TIP3    H1 3270   2.765   4.572   4.215
 1088TIP3    H2 3271   2.801   4.444   4.288
 1089TIP3   OH2 3272   3.519   1.700   0.475
 1089TIP3    H1 3273   3.556   1.683   0.389
 1089TIP3    H2 3274   3.427   1.723   0.458
 1090TIP3   OH2 3275   5.535   5.683   1.536
 1090TIP3    H1 3276   5.610   5.742   1.542
 1090TIP3    H2 3277   5.520   5.673   1.442
 1091TIP3   OH2 3278   3.450   5.384   3.112
 1091TIP3    H1 3279   3.507   5.455   3.141
 1091TIP3    H2 3280   3.386   5.373   3.183
 1092TIP3   OH2 3281   0.165   0.990   2.524
 1092TIP3    H1 3282   0.191   0.964   2.612
 1092TIP3    H2 3283   0.069   0.992   2.527
 1093TIP3   OH2 3284   4.628   1.554   3.107
 1093TIP3    H1 3285   4.553   1.562   3.166
 1093TIP3    H2 3286   4.594   1.507   3.031
 1094TIP3   OH2 3287   4.503   0.508   3.175
 1094TIP3    H1 3288   4.511   0.590   3.223
 1094TIP3    H2 3289   4.483   0.443   3.242
 1095TIP3   OH2 3290   4.078   0.413   3.375
 1095TIP3    H1 3291   4.031   0.342   3.330
 1095TIP3    H2 3292   4.112   0.468   3.304
 1096TIP3   OH2 3293   0.094   0.752   1.320
 1096TIP3    H1 3294   0.169   0.803   1.348
 1096TIP3    H2 3295   0.053   0.723   1.401
 1097TIP3   OH2 3296   5.597   5.556   4.448
 1097TIP3    H1 3297   5.531   5.624   4.464
 1097TIP3    H2 3298   5.596   5.542   4.354
 1098TIP3   OH2 3299   5.551   3.850   3.009
 1098TIP3    H1 3300   5.615   3.871   2.942
 1098TIP3    H2 3301   5.468   3.843   2.962
 1099TIP3   OH2 3302   5.876   5.788   5.045
 1099TIP3    H1 3303   5.820   5.855   5.005
 1099TIP3    H2 3304   5.842   5.778   5.133
 1100TIP3   OH2 3305   6.043   1.469   2.770
 1100TIP3    H1 3306   6.085   1.546   2.733
 1100TIP3    H2 3307   5.988   1.503   2.840
 1101TIP3   OH2 3308   3.769   4.984   1.923
 1101TIP3    H1 3309   3.833   4.964   1.855
 1101TIP3    H2 3310   3.820   4.987   2.004
 1102TIP3   OH2 3311   5.387   2.900   0.340
 1102TIP3    H1 3312   5.303   2.880   0.298
 1102TIP3    H2 3313   5.440   2.821   0.326
 1103TIP3   OH2 3314   2.352   2.366   0.782
 1103TIP3    H1 3315   2.440   2.366   0.744
 1103TIP3    H2 3316   2.321   2.276   0.769
 1104TIP3   OH2 3317   2.457   2.130   4.089
 1104TIP3    H1 3318   2.371   2.142   4.129
 1104TIP3    H2 3319   2.486   2.043   4.119
 1105TIP3   OH2 3320   1.845   4.277   1.314
 1105TIP3    H1 3321   1.815   4.360   1.352
 1105TIP3    H2 3322   1.900   4.303   1.240
 1106TIP3   OH2 3323   0.970   2.124   3.075
 1106TIP3    H1 3324   1.060   2.125   3.108
 1106TIP3    H2 3325   0.936   2.211   3.095
 1107TIP3   OH2 3326   5.101   4.488   1.676
 1107TIP3    H1 3327   5.010   4.460   1.683
 1107TIP3    H2 3328   5.099   4.563   1.617
 1108TIP3   OH2 3329   1.998   4.086   2.342
 1108TIP3    H1 3330   1.912   4.127   2.330
 1108TIP3    H2 3331   2.007   4.077   2.437
 1109TIP3   OH2 3332   5.357   0.080   1.250
 1109TIP3    H1 3333   5.380   0.168   1.221
 1109TIP3    H2 3334   5.261   0.078   1.247
 1110TIP3   OH2 3335   1.217   6.027   2.137
 1110TIP3    H1 3336   1.182   5.938   2.133
 1110TIP3    H2 3337   1.308   6.018   2.110
 1111TIP3   OH2 3338   0.382   0.296   4.356
 1111TIP3    H1 3339   0.374   0.234   4.429
 1111TIP3    H2 3340   0.351   0.246   4.280
 1112TIP3   OH2 3341   5.941   5.447   3.908
 1112TIP3    H1 3342   5.993   5.366   3.909
 1112TIP3    H2 3343   5.932   5.469   3.816
 1113TIP3   OH2 3344   4.212   5.489   4.172
 1113TIP3    H1 3345   4.290   5.502   4.118
 1113TIP3    H2 3346   4.234   5.529   4.256
 1114TIP3   OH2 3347   3.904   4.212   2.318
 1114TIP3    H1 3348   3.859   4.296   2.331
 1114TIP3    H2 3349   3.835   4.152   2.290
 1115TIP3   OH2 3350   4.085   3.479   2.271
 1115TIP3    H1 3351   4.140   3.543   2.225
 1115TIP3    H2 3352   4.043   3.528   2.341
 1116TIP3   OH2 3353   3.271   1.463   3.524
 1116TIP3    H1 3354   3.200   1.445   3.462
 1116TIP3    H2 3355   3.314   1.378   3.537
 1117TIP3   OH2 3356   1.443   4.287   4.631
 1117TIP3    H1 3357   1.517   4.273   4.689
 1117TIP3    H2 3358   1.467   4.365   4.580
 1118TIP3   OH2 3359   2.502   3.832   4.727
 1118TIP3    H1 3360   2.458   3.860   4.647
 1118TIP3    H2 3361   2.441   3.855   4.797
 1119TIP3   OH2 3362   4.935   3.988   2.664
 1119TIP3    H1 3363   4.906   4.075   2.690
 1119TIP3    H2 3364   4.876   3.962   2.593
 1120TIP3   OH2 3365   1.213   3.240   3.249
 1120TIP3    H1 3366   1.165   3.157   3.245
 1120TIP3    H2 3367   1.305   3.213   3.253
 1121TIP3   OH2 3368   0.015   2.190   4.913
 1121TIP3    H1 3369  -0.046   2.149   4.851
 1121TIP3    H2 3370   0.092   2.211   4.860
 1122TIP3   OH2 3371   6.290   0.273   0.699
 1122TIP3    H1 3372   6.274   0.361   0.733
 1122TIP3    H2 3373   6.218   0.221   0.734
 1123TIP3   OH2 3374   2.472   0.738   2.901
 1123TIP3    H1 3375   2.505   0.649   2.891
 1123TIP3    H2 3376   2.377   0.729   2.900
 1124TIP3   OH2 3377   2.829   3.588   1.318
 1124TIP3    H1 3378   2.820   3.645   1.394
 1124TIP3    H2 3379   2.905   3.622   1.271
 1125TIP3   OH2 3380   4.937   1.037   0.967
 1125TIP3    H1 3381   4.975   1.123   0.946
 1125TIP3    H2 3382   4.969   1.017   1.055
 1126TIP3   OH2 3383   2.907   4.450   2.119
 1126TIP3    H1 3384   2.935   4.523   2.064
 1126TIP3    H2 3385   2.890   4.379   2.057
 1127TIP3   OH2 3386   5.480   2.973   2.348
 1127TIP3    H1 3387   5.403   2.947   2.297
 1127TIP3    H2 3388   5.540   2.899   2.342
 1128TIP3   OH2 3389   4.845   4.490   2.591
 1128TIP3    H1 3390   4.815   4.494   2.500
 1128TIP3    H2 3391   4.805   4.410   2.626
 1129TIP3   OH2 3392   0.678   2.663   2.385
 1129TIP3    H1 3393   0.625   2.584   2.375
 1129TIP3    H2 3394   0.620   2.727   2.426
 1130TIP3   OH2 3395   2.216   0.270   4.984
 1130TIP3    H1 3396   2.142   0.320   4.952
 1130TIP3    H2 3397   2.206   0.183   4.943
 1131TIP3   OH2 3398   2.351   0.932   4.748
 1131TIP3    H1 3399   2.398   1.004   4.706
 1131TIP3    H2 3400   2.418   0.883   4.794
 1132TIP3   OH2 3401   5.318   5.828   3.584
 1132TIP3    H1 3402   5.371   5.755   3.550
 1132TIP3    H2 3403   5.380   5.879   3.637
 1133TIP3   OH2 3404   5.216   5.833   1.484
 1133TIP3    H1 3405   5.200   5.926   1.471
 1133TIP3    H2 3406   5.223   5.823   1.579
 1134TIP3   OH2 3407   4.716   0.117   0.112
 1134TIP3    H1 3408   4.634   0.105   0.064
 1134TIP3    H2 3409   4.693   0.099   0.203
 1135TIP3   OH2 3410   6.152   1.484   4.579
 1135TIP3    H1 3411   6.183   1.498   4.669
 1135TIP3    H2 3412   6.171   1.392   4.561
 1136TIP3   OH2 3413   3.994   4.090   3.996
 1136TIP3    H1 3414   3.982   4.148   4.071
 1136TIP3    H2 3415   4.081   4.051   4.010
 1137TIP3   OH2 3416   4.454   0.847   0.631
 1137TIP3    H1 3417   4.471   0.753   0.646
 1137TIP3    H2 3418   4.483   0.862   0.541
 1138TIP3   OH2 3419   1.508   5.392   1.672
 1138TIP3    H1 3420   1.471   5.449   1.606
 1138TIP3    H2 3421   1.582   5.349   1.629
 1139TIP3   OH2 3422   1.850   1.021   2.750
 1139TIP3    H1 3423   1.848   1.025   2.846
 1139TIP3    H2 3424   1.763   1.052   2.724
 1140TIP3   OH2 3425   3.831   4.284   1.085
 1140TIP3    H1 3426   3.890   4.303   1.158
 1140TIP3    H2 3427   3.747   4.264   1.126
 1141TIP3   OH2 3428   1.018   5.134   1.027
 1141TIP3    H1 3429   0.944   5.086   0.990
 1141TIP3    H2 3430   0.990   5.226   1.026
 1142TIP3   OH2 3431   5.168   5.436   0.908
 1142TIP3    H1 3432   5.106   5.497   0.868
 1142TIP3    H2 3433   5.167   5.457   1.001
 1143TIP3   OH2 3434   5.188   1.770   1.590
 1143TIP3    H1 3435   5.228   1.828   1.526
 1143TIP3    H2 3436   5.112   1.819   1.623
 1144TIP3   OH2 3437   4.792   5.360   1.020
 1144TIP3    H1 3438   4.854   5.409   1.074
 1144TIP3    H2 3439   4.844   5.329   0.946
 1145TIP3   OH2 3440   1.465   3.420   1.558
 1145TIP3    H1 3441   1.462   3.325   1.551
 1145TIP3    H2 3442   1.525   3.437   1.632
 1146TIP3   OH2 3443   2.256   3.077   2.702
 1146TIP3    H1 3444   2.246   3.096   2.795
 1146TIP3    H2 3445   2.168   3.053   2.672
 1147TIP3   OH2 3446   2.510   1.699   4.516
 1147TIP3    H1 3447   2.426   1.668   4.483
 1147TIP3    H2 3448   2.506   1.794   4.507
 1148TIP3   OH2 3449   3.426   5.688   2.725
 1148TIP3    H1 3450   3.497   5.624   2.731
 1148TIP3    H2 3451   3.371   5.671   2.801
 1149TIP3   OH2 3452   4.263   1.669   4.052
 1149TIP3    H1 3453   4.222   1.755   4.063
 1149TIP3    H2 3454   4.189   1.608   4.045
 1150TIP3   OH2 3455   1.345   2.553   0.569
 1150TIP3    H1 3456   1.433   2.558   0.605
 1150TIP3    H2 3457   1.348   2.478   0.509
 1151TIP3   OH2 3458   4.453   4.369   4.440
 1151TIP3    H1 3459   4.513   4.337   4.372
 1151TIP3    H2 3460   4.443   4.296   4.500
 1152TIP3   OH2 3461   1.889   4.786   2.194
 1152TIP3    H1 3462   1.798   4.777   2.168
 1152TIP3    H2 3463   1.890   4.765   2.287
 1153TIP3   OH2 3464   4.930   5.148   2.545
 1153TIP3    H1 3465   4.938   5.243   2.538
 1153TIP3    H2 3466   5.002   5.114   2.491
 1154TIP3   OH2 3467   1.146   5.811   0.501
 1154TIP3    H1 3468   1.157   5.717   0.518
 1154TIP3    H2 3469   1.087   5.841   0.570
 1155TIP3   OH2 3470   4.941   0.119   0.633
 1155TIP3    H1 3471   4.866   0.079   0.676
 1155TIP3    H2 3472   4.929   0.100   0.540
 1156TIP3   OH2 3473   3.085   0.060   1.578
 1156TIP3    H1 3474   3.010   0.117   1.597
 1156TIP3    H2 3475   3.052  -0.002   1.513
 1157TIP3   OH2 3476   0.661   2.115   2.153
 1157TIP3    H1 3477   0.657   2.080   2.242
 1157TIP3    H2 3478   0.719   2.055   2.106
 1158TIP3   OH2 3479   4.889   2.721   5.105
 1158TIP3    H1 3480   4.968   2.670   5.082
 1158TIP3    H2 3481   4.908   2.809   5.074
 1159TIP3   OH2 3482   4.989   0.335   1.644
 1159TIP3    H1 3483   4.906   0.357   1.600
 1159TIP3    H2 3484   5.033   0.276   1.583
 1160TIP3   OH2 3485   2.752   5.702   4.339
 1160TIP3    H1 3486   2.769   5.794   4.322
 1160TIP3    H2 3487   2.756   5.660   4.252
 1161TIP3   OH2 3488   5.850   1.100   4.979
 1161TIP3    H1 3489   5.812   1.088   5.066
 1161TIP3    H2 3490   5.913   1.171   4.989
 1162TIP3   OH2 3491   2.046   2.597   2.244
 1162TIP3    H1 3492   1.978   2.658   2.273
 1162TIP3    H2 3493   2.020   2.574   2.155
 1163TIP3   OH2 3494   2.459   3.130   3.543
 1163TIP3    H1 3495   2.410   3.108   3.464
 1163TIP3    H2 3496   2.474   3.224   3.536
 1164TIP3   OH2 3497   1.411   2.544   2.785
 1164TIP3    H1 3498   1.322   2.543   2.820
 1164TIP3    H2 3499   1.431   2.452   2.767
 1165TIP3   OH2 3500   1.592   1.215   2.949
 1165TIP3    H1 3501   1.528   1.281   2.977
 1165TIP3    H2 3502   1.620   1.172   3.030
 1166TIP3   OH2 3503   5.341   2.297   2.502
 1166TIP3    H1 3504   5.305   2.233   2.564
 1166TIP3    H2 3505   5.264   2.332   2.457
 1167TIP3   OH2 3506   2.550   0.926   3.871
 1167TIP3    H1 3507   2.562   0.948   3.779
 1167TIP3    H2 3508   2.488   0.991   3.903
 1168TIP3   OH2 3509   3.466   5.647   0.819
 1168TIP3    H1 3510   3.381   5.669   0.855
 1168TIP3    H2 3511   3.448   5.621   0.729
 1169TIP3   OH2 3512   5.899   1.368   0.867
 1169TIP3    H1 3513   5.888   1.291   0.924
 1169TIP3    H2 3514   5.827   1.363   0.805
 1170TIP3   OH2 3515   4.445   2.286   4.126
 1170TIP3    H1 3516   4.443   2.355   4.192
 1170TIP3    H2 3517   4.533   2.290   4.089
 1171TIP3   OH2 3518   2.436   2.506   1.893
 1171TIP3    H1 3519   2.390   2.588   1.875
 1171TIP3    H2 3520   2.485   2.523   1.974
 1172TIP3   OH2 3521   4.394   0.356   1.388
 1172TIP3    H1 3522   4.311   0.368   1.341
 1172TIP3    H2 3523   4.462   0.372   1.322
 1173TIP3   OH2 3524   2.692   1.626   4.250
 1173TIP3    H1 3525   2.606   1.590   4.276
 1173TIP3    H2 3526   2.733   1.555   4.201
 1174TIP3   OH2 3527   0.742   3.720   0.226
 1174TIP3    H1 3528   0.652   3.749   0.210
 1174TIP3    H2 3529   0.765   3.760   0.310
 1175TIP3   OH2 3530   5.028   3.099   0.205
 1175TIP3    H1 3531   5.078   3.027   0.242
 1175TIP3    H2 3532   5.086   3.175   0.213
 1176TIP3   OH2 3533   6.144   4.887   3.770
 1176TIP3    H1 3534   6.086   4.817   3.799
 1176TIP3    H2 3535   6.094   4.967   3.783
 1177TIP3   OH2 3536   3.951   5.255   1.758
 1177TIP3    H1 3537   3.940   5.175   1.809
 1177TIP3    H2 3538   3.964   5.323   1.823
 1178TIP3   OH2 3539   4.995   4.784   1.988
 1178TIP3    H1 3540   4.938   4.715   1.954
 1178TIP3    H2 3541   5.018   4.755   2.077
 1179TIP3   OH2 3542   0.497   1.715   2.833
 1179TIP3    H1 3543   0.470   1.807   2.826
 1179TIP3    H2 3544   0.559   1.703   2.760
 1180TIP3   OH2 3545   3.824   2.307   0.647
 1180TIP3    H1 3546   3.838   2.247   0.719
 1180TIP3    H2 3547   3.813   2.251   0.570
 1181TIP3   OH2 3548   3.269   4.482   4.887
 1181TIP3    H1 3549   3.311   4.453   4.968
 1181TIP3    H2 3550   3.339   4.527   4.839
 1182TIP3   OH2 3551   3.436   0.213   1.194
 1182TIP3    H1 3552   3.370   0.215   1.125
 1182TIP3    H2 3553   3.389   0.183   1.272
 1183TIP3   OH2 3554   3.458   1.729   2.858
 1183TIP3    H1 3555   3.426   1.806   2.905
 1183TIP3    H2 3556   3.420   1.736   2.771
 1184TIP3   OH2 3557   5.175   2.440   2.908
 1184TIP3    H1 3558   5.184   2.531   2.936
 1184TIP3    H2 3559   5.263   2.403   2.918
 1185TIP3   OH2 3560   1.392   0.897   4.467
 1185TIP3    H1 3561   1.315   0.862   4.422
 1185TIP3    H2 3562   1.386   0.992   4.455
 1186TIP3   OH2 3563   1.038   4.033   2.548
 1186TIP3    H1 3564   0.978   4.005   2.617
 1186TIP3    H2 3565   1.123   3.996   2.574
 1187TIP3   OH2 3566   0.750   4.857   2.945
 1187TIP3    H1 3567   0.721   4.769   2.971
 1187TIP3    H2 3568   0.723   4.864   2.853
 1188TIP3   OH2 3569   5.117   2.554   4.945
 1188TIP3    H1 3570   5.192   2.614   4.938
 1188TIP3    H2 3571   5.050   2.592   4.887
 1189TIP3   OH2 3572   1.463   3.126   3.769
 1189TIP3    H1 3573   1.463   3.112   3.864
 1189TIP3    H2 3574   1.552   3.154   3.749
 1190TIP3   OH2 3575   4.234   3.863   0.261
 1190TIP3    H1 3576   4.160   3.812   0.227
 1190TIP3    H2 3577   4.193   3.934   0.310
 1191TIP3   OH2 3578   5.338   0.839   3.976
 1191TIP3    H1 3579   5.260   0.871   3.929
 1191TIP3    H2 3580   5.304   0.788   4.049
 1192TIP3   OH2 3581   3.283   1.043   3.260
 1192TIP3    H1 3582   3.276   1.119   3.318
 1192TIP3    H2 3583   3.300   1.080   3.174
 1193TIP3   OH2 3584   4.922   5.390   2.414
 1193TIP3    H1 3585   4.918   5.483   2.438
 1193TIP3    H2 3586   4.957   5.390   2.325
 1194TIP3   OH2 3587   4.880   2.228   3.605
 1194TIP3    H1 3588   4.821   2.300   3.582
 1194TIP3    H2 3589   4.829   2.149   3.587
 1195TIP3   OH2 3590  -0.013   3.822   3.842
 1195TIP3    H1 3591   0.055   3.822   3.909
 1195TIP3    H2 3592  -0.079   3.883   3.875
 1196TIP3   OH2 3593   0.891   5.829   3.366
 1196TIP3    H1 3594   0.966   5.886   3.386
 1196TIP3    H2 3595   0.903   5.753   3.423
 1197TIP3   OH2 3596   3.704   1.448   0.836
 1197TIP3    H1 3597   3.762   1.384   0.877
 1197TIP3    H2 3598   3.647   1.395   0.779
 1198TIP3   OH2 3599   2.982   3.181   4.715
 1198TIP3    H1 3600   2.919   3.123   4.757
 1198TIP3    H2 3601   2.985   3.258   4.773
 1199TIP3   OH2 3602   5.738   1.697   3.417
 1199TIP3    H1 3603   5.677   1.623   3.421
 1199TIP3    H2 3604   5.788   1.691   3.498
 1200TIP3   OH2 3605   3.125   5.109   1.716
 1200TIP3    H1 3606   3.038   5.148   1.713
 1200TIP3    H2 3607   3.161   5.137   1.800
 1201TIP3   OH2 3608   3.737   5.559   3.510
 1201TIP3    H1 3609   3.814   5.615   3.501
 1201TIP3    H2 3610   3.694   5.563   3.424
 1202TIP3   OH2 3611   1.766   1.229   1.665
 1202TIP3    H1 3612   1.676   1.196   1.659
 1202TIP3    H2 3613   1.763   1.315   1.623
 1203TIP3   OH2 3614   6.102   2.146   0.794
 1203TIP3    H1 3615   6.018   2.124   0.754
 1203TIP3    H2 3616   6.082   2.212   0.859
 1204TIP3   OH2 3617   5.495   3.206   1.566
 1204TIP3    H1 3618   5.499   3.187   1.659
 1204TIP3    H2 3619   5.448   3.290   1.560
 1205TIP3   OH2 3620   2.275   0.003   3.414
 1205TIP3    H1 3621   2.277  -0.013   3.320
 1205TIP3    H2 3622   2.362   0.036   3.435
 1206TIP3   OH2 3623   2.115   4.724   5.188
 1206TIP3    H1 3624   2.042   4.709   5.128
 1206TIP3    H2 3625   2.079   4.706   5.275
 1207TIP3   OH2 3626   5.955   0.790   0.003
 1207TIP3    H1 3627   5.955   0.858   0.071
 1207TIP3    H2 3628   6.046   0.787  -0.027
 1208TIP3   OH2 3629   4.833   0.611   3.754
 1208TIP3    H1 3630   4.879   0.566   3.825
 1208TIP3    H2 3631   4.752   0.641   3.794
 1209TIP3   OH2 3632   0.470   5.816   1.664
 1209TIP3    H1 3633   0.394   5.869   1.690
 1209TIP3    H2 3634   0.545   5.874   1.677
 1210TIP3   OH2 3635   1.872   3.993   0.879
 1210TIP3    H1 3636   1.924   3.980   0.958
 1210TIP3    H2 3637   1.811   4.064   0.901
 1211TIP3   OH2 3638   4.302   4.420   2.461
 1211TIP3    H1 3639   4.358   4.496   2.478
 1211TIP3    H2 3640   4.216   4.457   2.445
 1212TIP3   OH2 3641   2.751   4.561   3.386
 1212TIP3    H1 3642   2.745   4.517   3.471
 1212TIP3    H2 3643   2.730   4.653   3.405
 1213TIP3   OH2 3644   6.035   3.873   2.709
 1213TIP3    H1 3645   6.047   3.894   2.802
 1213TIP3    H2 3646   6.124   3.863   2.675
 1214TIP3   OH2 3647   1.716   3.307   3.990
 1214TIP3    H1 3648   1.676   3.222   4.007
 1214TIP3    H2 3649   1.807   3.286   3.968
 1215TIP3   OH2 3650   6.292   2.107   4.089
 1215TIP3    H1 3651   6.229   2.089   4.158
 1215TIP3    H2 3652   6.300   2.025   4.041
 1216TIP3   OH2 3653   1.048   4.346   4.360
 1216TIP3    H1 3654   1.048   4.360   4.455
 1216TIP3    H2 3655   0.957   4.326   4.339
 1217TIP3   OH2 3656   5.227   3.468   2.648
 1217TIP3    H1 3657   5.235   3.466   2.552
 1217TIP3    H2 3658   5.142   3.429   2.666
 1218TIP3   OH2 3659   6.033   2.182   3.963
 1218TIP3    H1 3660   6.077   2.250   4.015
 1218TIP3    H2 3661   5.957   2.156   4.015
 1219TIP3   OH2 3662   1.542   4.958   1.093
 1219TIP3    H1 3663   1.485   5.002   1.157
 1219TIP3    H2 3664   1.533   5.011   1.014
 1220TIP3   OH2 3665   2.620   4.872   4.320
 1220TIP3    H1 3666   2.688   4.899   4.382
 1220TIP3    H2 3667   2.638   4.923   4.241
 1221TIP3   OH2 3668   4.044   0.647   1.865
 1221TIP3    H1 3669   4.058   0.660   1.958
 1221TIP3    H2 3670   4.025   0.734   1.831
 1222TIP3   OH2 3671   5.368   0.184   0.843
 1222TIP3    H1 3672   5.318   0.232   0.909
 1222TIP3    H2 3673   5.307   0.175   0.769
 1223TIP3   OH2 3674   6.270   5.152   0.000
 1223TIP3    H1 3675   6.240   5.121  -0.085
 1223TIP3    H2 3676   6.204   5.120   0.062
 1224TIP3   OH2 3677   2.243   5.021   4.133
 1224TIP3    H1 3678   2.312   5.002   4.069
 1224TIP3    H2 3679   2.174   4.957   4.113
 1225TIP3   OH2 3680   6.203   1.402   0.859
 1225TIP3    H1 3681   6.235   1.351   0.934
 1225TIP3    H2 3682   6.108   1.393   0.863
 1226TIP3   OH2 3683   0.823   0.578   3.386
 1226TIP3    H1 3684   0.911   0.605   3.360
 1226TIP3    H2 3685   0.809   0.618   3.472
 1227TIP3   OH2 3686   4.461   4.801   1.851
 1227TIP3    H1 3687   4.506   4.806   1.936
 1227TIP3    H2 3688   4.442   4.893   1.829
 1228TIP3   OH2 3689   5.342   3.698   1.022
 1228TIP3    H1 3690   5.280   3.764   1.053
 1228TIP3    H2 3691   5.292   3.616   1.022
 1229TIP3   OH2 3692   0.574   3.474   3.587
 1229TIP3    H1 3693   0.517   3.491   3.512
 1229TIP3    H2 3694   0.547   3.539   3.652
 1230TIP3   OH2 3695   1.567   1.544   2.910
 1230TIP3    H1 3696   1.547   1.470   2.853
 1230TIP3    H2 3697   1.490   1.552   2.966
 1231TIP3   OH2 3698   2.471   1.915   1.572
 1231TIP3    H1 3699   2.479   1.998   1.525
 1231TIP3    H2 3700   2.503   1.849   1.511
 1232TIP3   OH2 3701   4.481   3.909   4.743
 1232TIP3    H1 3702   4.555   3.848   4.746
 1232TIP3    H2 3703   4.411   3.863   4.789
 1233TIP3   OH2 3704   4.019   3.640   2.729
 1233TIP3    H1 3705   4.081   3.594   2.785
 1233TIP3    H2 3706   3.936   3.636   2.777
 1234TIP3   OH2 3707   3.978   0.435   2.974
 1234TIP3    H1 3708   3.982   0.494   2.899
 1234TIP3    H2 3709   3.886   0.438   3.002
 1235TIP3   OH2 3710   6.282   3.565   0.835
 1235TIP3    H1 3711   6.243   3.637   0.786
 1235TIP3    H2 3712   6.207   3.510   0.860
 1236TIP3   OH2 3713   4.121   3.235   0.738
 1236TIP3    H1 3714   4.124   3.172   0.810
 1236TIP3    H2 3715   4.203   3.283   0.746
 1237TIP3   OH2 3716   6.105   2.176   0.398
 1237TIP3    H1 3717   6.173   2.222   0.447
 1237TIP3    H2 3718   6.152   2.110   0.347
 1238TIP3   OH2 3719   4.532   4.131   1.847
 1238TIP3    H1 3720   4.599   4.100   1.787
 1238TIP3    H2 3721   4.466   4.172   1.792
 1239TIP3   OH2 3722   5.223   0.303   4.624
 1239TIP3    H1 3723   5.281   0.325   4.551
 1239TIP3    H2 3724   5.240   0.370   4.690
 1240TIP3   OH2 3725   2.517   1.072   2.688
 1240TIP3    H1 3726   2.539   1.053   2.780
 1240TIP3    H2 3727   2.543   1.163   2.675
 1241TIP3   OH2 3728   2.351   5.447   4.226
 1241TIP3    H1 3729   2.317   5.406   4.306
 1241TIP3    H2 3730   2.315   5.393   4.155
 1242TIP3   OH2 3731   4.553   1.764   1.015
 1242TIP3    H1 3732   4.487   1.810   1.066
 1242TIP3    H2 3733   4.553   1.808   0.930
 1243TIP3   OH2 3734   0.227   5.329   2.757
 1243TIP3    H1 3735   0.181   5.249   2.782
 1243TIP3    H2 3736   0.188   5.355   2.674
 1244TIP3   OH2 3737   4.897   1.592   3.764
 1244TIP3    H1 3738   4.828   1.656   3.780
 1244TIP3    H2 3739   4.969   1.619   3.820
 1245TIP3   OH2 3740   1.109   5.507   2.060
 1245TIP3    H1 3741   1.144   5.594   2.042
 1245TIP3    H2 3742   1.058   5.485   1.982
 1246TIP3   OH2 3743   0.145   1.196   3.670
 1246TIP3    H1 3744   0.090   1.264   3.632
 1246TIP3    H2 3745   0.152   1.129   3.602
 1247TIP3   OH2 3746   4.439   4.999   1.213
 1247TIP3    H1 3747   4.465   4.913   1.179
 1247TIP3    H2 3748   4.381   5.035   1.145
 1248TIP3   OH2 3749   3.964   0.598   2.756
 1248TIP3    H1 3750   3.904   0.612   2.683
 1248TIP3    H2 3751   3.973   0.684   2.797
 1249TIP3   OH2 3752   0.975   4.559   1.827
 1249TIP3    H1 3753   0.890   4.522   1.849
 1249TIP3    H2 3754   1.021   4.564   1.911
 1250TIP3   OH2 3755   3.393   3.817   1.549
 1250TIP3    H1 3756   3.346   3.795   1.629
 1250TIP3    H2 3757   3.360   3.903   1.524
 1251TIP3   OH2 3758   4.539   1.017   1.137
 1251TIP3    H1 3759   4.580   1.085   1.189
 1251TIP3    H2 3760   4.485   0.968   1.199
 1252TIP3   OH2 3761   0.568   1.445   1.209
 1252TIP3    H1 3762   0.493   1.433   1.151
 1252TIP3    H2 3763   0.588   1.538   1.203
 1253TIP3   OH2 3764   4.349   2.512   1.856
 1253TIP3    H1 3765   4.313   2.592   1.817
 1253TIP3    H2 3766   4.324   2.443   1.795
 1254TIP3   OH2 3767   0.631   3.516   0.965
 1254TIP3    H1 3768   0.716   3.497   0.924
 1254TIP3    H2 3769   0.640   3.605   0.998
 1255TIP3   OH2 3770   0.513   0.372   4.048
 1255TIP3    H1 3771   0.493   0.278   4.049
 1255TIP3    H2 3772   0.589   0.381   4.106
 1256TIP3   OH2 3773   3.607   2.338   3.602
 1256TIP3    H1 3774   3.576   2.269   3.543
 1256TIP3    H2 3775   3.528   2.388   3.625
 1257TIP3   OH2 3776   1.680   3.593   1.994
 1257TIP3    H1 3777   1.773   3.575   2.005
 1257TIP3    H2 3778   1.675   3.686   1.972
 1258TIP3   OH2 3779   2.866   3.556   4.516
 1258TIP3    H1 3780   2.925   3.481   4.513
 1258TIP3    H2 3781   2.913   3.623   4.566
 1259TIP3   OH2 3782   3.387   4.576   0.818
 1259TIP3    H1 3783   3.453   4.642   0.799
 1259TIP3    H2 3784   3.330   4.617   0.883
 1260TIP3   OH2 3785   4.430   3.075   2.545
 1260TIP3    H1 3786   4.437   3.160   2.501
 1260TIP3    H2 3787   4.341   3.074   2.579
 1261TIP3   OH2 3788   1.382   3.698   3.802
 1261TIP3    H1 3789   1.363   3.780   3.757
 1261TIP3    H2 3790   1.398   3.724   3.893
 1262TIP3   OH2 3791   1.080   3.037   2.941
 1262TIP3    H1 3792   1.006   3.026   2.881
 1262TIP3    H2 3793   1.124   3.116   2.910
 1263TIP3   OH2 3794   1.100   3.139   2.024
 1263TIP3    H1 3795   1.018   3.171   1.987
 1263TIP3    H2 3796   1.154   3.117   1.948
 1264TIP3   OH2 3797   2.082   2.563   1.145
 1264TIP3    H1 3798   2.168   2.524   1.160
 1264TIP3    H2 3799   2.097   2.657   1.151
 1265TIP3   OH2 3800   4.714   5.459   3.985
 1265TIP3    H1 3801   4.797   5.506   3.990
 1265TIP3    H2 3802   4.736   5.369   4.007
 1266TIP3   OH2 3803   5.848   0.463   1.831
 1266TIP3    H1 3804   5.820   0.550   1.804
 1266TIP3    H2 3805   5.784   0.437   1.897
 1267TIP3   OH2 3806   5.330   4.329   1.710
 1267TIP3    H1 3807   5.249   4.379   1.706
 1267TIP3    H2 3808   5.372   4.342   1.625
 1268TIP3   OH2 3809   4.125   2.604   1.493
 1268TIP3    H1 3810   4.154   2.690   1.525
 1268TIP3    H2 3811   4.030   2.606   1.502
 1269TIP3   OH2 3812   2.922   1.323   1.641
 1269TIP3    H1 3813   2.917   1.244   1.695
 1269TIP3    H2 3814   2.831   1.345   1.621
 1270TIP3   OH2 3815   1.818   1.651   4.531
 1270TIP3    H1 3816   1.858   1.737   4.548
 1270TIP3    H2 3817   1.824   1.605   4.615
 1271TIP3   OH2 3818   4.687   1.921   3.260
 1271TIP3    H1 3819   4.704   1.950   3.170
 1271TIP3    H2 3820   4.711   1.996   3.314
 1272TIP3   OH2 3821   4.452   4.845   3.528
 1272TIP3    H1 3822   4.427   4.854   3.620
 1272TIP3    H2 3823   4.406   4.767   3.498
 1273TIP3   OH2 3824   4.265   3.005   2.302
 1273TIP3    H1 3825   4.341   3.054   2.330
 1273TIP3    H2 3826   4.213   2.993   2.381
 1274TIP3   OH2 3827   5.431   3.709   2.312
 1274TIP3    H1 3828   5.414   3.755   2.230
 1274TIP3    H2 3829   5.501   3.760   2.354
 1275TIP3   OH2 3830   2.552   3.650   1.531
 1275TIP3    H1 3831   2.487   3.588   1.565
 1275TIP3    H2 3832   2.507   3.696   1.460
 1276TIP3   OH2 3833   5.549   2.600   4.913
 1276TIP3    H1 3834   5.480   2.624   4.850
 1276TIP3    H2 3835   5.625   2.650   4.885
 1277TIP3   OH2 3836   0.994   4.021   1.969
 1277TIP3    H1 3837   1.086   4.024   1.945
 1277TIP3    H2 3838   0.978   3.930   1.991
 1278TIP3   OH2 3839   0.066   5.295   4.588
 1278TIP3    H1 3840  -0.029   5.302   4.577
 1278TIP3    H2 3841   0.084   5.343   4.669
 1279TIP3   OH2 3842   0.895   1.959   2.437
 1279TIP3    H1 3843   0.832   1.921   2.376
 1279TIP3    H2 3844   0.973   1.976   2.384
 1280TIP3   OH2 3845   0.307   5.321   4.822
 1280TIP3    H1 3846   0.217   5.340   4.849
 1280TIP3    H2 3847   0.328   5.390   4.759
 1281TIP3   OH2 3848   2.632   1.060   0.854
 1281TIP3    H1 3849   2.579   0.981   0.843
 1281TIP3    H2 3850   2.611   1.113   0.778
 1282TIP3   OH2 3851   2.627   0.854   2.574
 1282TIP3    H1 3852   2.577   0.884   2.650
 1282TIP3    H2 3853   2.700   0.917   2.568
 1283TIP3   OH2 3854   3.651   1.372   0.464
 1283TIP3    H1 3855   3.713   1.299   0.471
 1283TIP3    H2 3856   3.707   1.449   0.453
 1284TIP3   OH2 3857   0.292   3.958   0.314
 1284TIP3    H1 3858   0.242   3.998   0.242
 1284TIP3    H2 3859   0.352   4.026   0.342
 1285TIP3   OH2 3860   1.716   0.416   5.056
 1285TIP3    H1 3861   1.664   0.491   5.084
 1285TIP3    H2 3862   1.684   0.342   5.108
 1286TIP3   OH2 3863   6.350   2.634   0.566
 1286TIP3    H1 3864   6.305   2.580   0.631
 1286TIP3    H2 3865   6.369   2.574   0.494
 1287TIP3   OH2 3866   4.966   1.667   3.358
 1287TIP3    H1 3867   4.971   1.759   3.386
 1287TIP3    H2 3868   5.036   1.624   3.407
 1288TIP3   OH2 3869   5.881   0.307   3.288
 1288TIP3    H1 3870   5.929   0.369   3.234
 1288TIP3    H2 3871   5.941   0.285   3.359
 1289TIP3   OH2 3872   4.392   5.062   3.226
 1289TIP3    H1 3873   4.362   5.032   3.312
 1289TIP3    H2 3874   4.380   5.157   3.229
 1290TIP3   OH2 3875   5.078   4.745   0.818
 1290TIP3    H1 3876   5.011   4.681   0.792
 1290TIP3    H2 3877   5.156   4.692   0.833
 1291TIP3   OH2 3878   3.473   2.357   0.507
 1291TIP3    H1 3879   3.531   2.433   0.498
 1291TIP3    H2 3880   3.486   2.308   0.426
 1292TIP3   OH2 3881   2.424   4.463   1.309
 1292TIP3    H1 3882   2.428   4.368   1.301
 1292TIP3    H2 3883   2.386   4.493   1.227
 1293TIP3   OH2 3884   0.200   1.480   3.096
 1293TIP3    H1 3885   0.154   1.409   3.052
 1293TIP3    H2 3886   0.249   1.437   3.166
 1294TIP3   OH2 3887   2.288   0.879   3.562
 1294TIP3    H1 3888   2.315   0.818   3.631
 1294TIP3    H2 3889   2.239   0.824   3.500
 1295TIP3   OH2 3890   1.695   2.379   3.138
 1295TIP3    H1 3891   1.748   2.437   3.082
 1295TIP3    H2 3892   1.652   2.438   3.200
 1296TIP3   OH2 3893   0.508   3.211   1.933
 1296TIP3    H1 3894   0.512   3.165   1.849
 1296TIP3    H2 3895   0.568   3.285   1.923
 1297TIP3   OH2 3896   0.370   5.012  -0.036
 1297TIP3    H1 3897   0.325   5.096  -0.047
 1297TIP3    H2 3898   0.428   5.026   0.039
 1298TIP3   OH2 3899   0.821   4.076   3.971
 1298TIP3    H1 3900   0.779   4.162   3.967
 1298TIP3    H2 3901   0.829   4.058   4.065
 1299TIP3   OH2 3902   1.013   3.661   3.648
 1299TIP3    H1 3903   0.980   3.585   3.600
 1299TIP3    H2 3904   1.035   3.627   3.734
 1300TIP3   OH2 3905   3.331   1.059   4.578
 1300TIP3    H1 3906   3.380   1.074   4.659
 1300TIP3    H2 3907   3.335   1.142   4.532
 1301TIP3   OH2 3908   4.739   2.650   3.619
 1301TIP3    H1 3909   4.826   2.610   3.609
 1301TIP3    H2 3910   4.679   2.576   3.621
 1302TIP3   OH2 3911   3.571   5.319   0.824
 1302TIP3    H1 3912   3.535   5.311   0.736
 1302TIP3    H2 3913   3.497   5.347   0.877
 1303TIP3   OH2 3914   0.402   4.682   4.421
 1303TIP3    H1 3915   0.324   4.685   4.476
 1303TIP3    H2 3916   0.449   4.604   4.451
 1304TIP3   OH2 3917   2.326   4.329   2.825
 1304TIP3    H1 3918   2.286   4.350   2.910
 1304TIP3    H2 3919   2.294   4.397   2.766
 1305TIP3   OH2 3920   2.033   2.704   3.726
 1305TIP3    H1 3921   2.080   2.775   3.768
 1305TIP3    H2 3922   2.032   2.633   3.791
 1306TIP3   OH2 3923   1.412   5.152   2.815
 1306TIP3    H1 3924   1.331   5.103   2.827
 1306TIP3    H2 3925   1.384   5.244   2.818
 1307TIP3   OH2 3926   6.140   4.048   0.884
 1307TIP3    H1 3927   6.087   3.970   0.899
 1307TIP3    H2 3928   6.077   4.120   0.880
 1308TIP3   OH2 3929   5.970   3.877   0.548
 1308TIP3    H1 3930   5.933   3.788   0.550
 1308TIP3    H2 3931   5.921   3.922   0.480
 1309TIP3   OH2 3932   2.788   2.012   2.727
 1309TIP3    H1 3933   2.716   1.956   2.698
 1309TIP3    H2 3934   2.756   2.053   2.807
 1310TIP3   OH2 3935   2.746   3.734   2.524
 1310TIP3    H1 3936   2.789   3.649   2.537
 1310TIP3    H2 3937   2.747   3.775   2.611
 1311TIP3   OH2 3938   1.683   4.199   1.032
 1311TIP3    H1 3939   1.706   4.291   1.046
 1311TIP3    H2 3940   1.590   4.201   1.011
 1312TIP3   OH2 3941   1.677   1.336   1.213
 1312TIP3    H1 3942   1.602   1.381   1.252
 1312TIP3    H2 3943   1.703   1.392   1.140
 1313TIP3   OH2 3944   3.558   0.369   3.591
 1313TIP3    H1 3945   3.513   0.324   3.662
 1313TIP3    H2 3946   3.583   0.454   3.628
 1314TIP3   OH2 3947   0.919   5.455   1.854
 1314TIP3    H1 3948   0.980   5.455   1.780
 1314TIP3    H2 3949   0.867   5.376   1.841
 1315TIP3   OH2 3950   3.592   4.576   4.535
 1315TIP3    H1 3951   3.679   4.546   4.509
 1315TIP3    H2 3952   3.565   4.635   4.464
 1316TIP3   OH2 3953   5.867   2.733   0.529
 1316TIP3    H1 3954   5.799   2.685   0.481
 1316TIP3    H2 3955   5.829   2.819   0.545
 1317TIP3   OH2 3956   5.671   0.867   2.821
 1317TIP3    H1 3957   5.611   0.878   2.894
 1317TIP3    H2 3958   5.664   0.948   2.770
 1318TIP3   OH2 3959   4.914   5.573   3.600
 1318TIP3    H1 3960   4.917   5.588   3.694
 1318TIP3    H2 3961   4.943   5.656   3.561
 1319TIP3   OH2 3962   4.494   3.365   4.750
 1319TIP3    H1 3963   4.498   3.320   4.665
 1319TIP3    H2 3964   4.419   3.424   4.742
 1320TIP3   OH2 3965   0.672   2.174   2.743
 1320TIP3    H1 3966   0.666   2.213   2.656
 1320TIP3    H2 3967   0.691   2.248   2.801
 1321TIP3   OH2 3968   1.810   4.978   1.085
 1321TIP3    H1 3969   1.818   4.973   0.990
 1321TIP3    H2 3970   1.717   4.966   1.102
 1322TIP3   OH2 3971   0.846   5.689   1.205
 1322TIP3    H1 3972   0.885   5.605   1.182
 1322TIP3    H2 3973   0.769   5.695   1.149
 1323TIP3   OH2 3974   4.717   3.760   4.747
 1323TIP3    H1 3975   4.707   3.666   4.764
 1323TIP3    H2 3976   4.745   3.765   4.656
 1324TIP3   OH2 3977   1.458   5.652   3.400
 1324TIP3    H1 3978   1.451   5.640   3.306
 1324TIP3    H2 3979   1.508   5.576   3.431
 1325TIP3   OH2 3980   4.982   5.605   0.823
 1325TIP3    H1 3981   4.888   5.606   0.805
 1325TIP3    H2 3982   5.002   5.695   0.848
 1326TIP3   OH2 3983   6.317   2.566   4.994
 1326TIP3    H1 3984   6.285   2.477   4.985
 1326TIP3    H2 3985   6.412   2.557   5.000
 1327TIP3   OH2 3986   3.613   2.984   0.942
 1327TIP3    H1 3987   3.562   3.059   0.972
 1327TIP3    H2 3988   3.693   2.987   0.994
 1328TIP3   OH2 3989   5.448   1.626   2.084
 1328TIP3    H1 3990   5.528   1.605   2.132
 1328TIP3    H2 3991   5.479   1.653   1.997
 1329TIP3   OH2 3992   0.205   3.312   3.658
 1329TIP3    H1 3993   0.155   3.392   3.643
 1329TIP3    H2 3994   0.138   3.247   3.682
 1330TIP3   OH2 3995   4.253   3.241   0.081
 1330TIP3    H1 3996   4.301   3.250  -0.002
 1330TIP3    H2 3997   4.162   3.228   0.054
 1331TIP3   OH2 3998   1.572   1.923   4.060
 1331TIP3    H1 3999   1.603   1.939   4.149
 1331TIP3    H2 4000   1.653   1.919   4.007
 1332TIP3   OH2 4001   4.486   5.803   4.427
 1332TIP3    H1 4002   4.485   5.848   4.511
 1332TIP3    H2 4003   4.482   5.710   4.449
 1333TIP3   OH2 4004   0.792   2.538   1.186
 1333TIP3    H1 4005   0.829   2.611   1.237
 1333TIP3    H2 4006   0.698   2.550   1.192
 1334TIP3   OH2 4007   3.519   4.002   0.218
 1334TIP3    H1 4008   3.536   4.050   0.299
 1334TIP3    H2 4009   3.600   4.013   0.167
 1335TIP3   OH2 4010   3.344   0.037   1.456
 1335TIP3    H1 4011   3.258   0.031   1.497
 1335TIP3    H2 4012   3.379   0.121   1.487
 1336TIP3   OH2 4013   4.964   4.826   3.410
 1336TIP3    H1 4014   4.935   4.823   3.319
 1336TIP3    H2 4015   4.887   4.854   3.459
 1337TIP3   OH2 4016   3.396   4.059   5.150
 1337TIP3    H1 4017   3.420   4.000   5.079
 1337TIP3    H2 4018   3.472   4.057   5.209
 1338TIP3   OH2 4019   6.386   1.761   1.943
 1338TIP3    H1 4020   6.352   1.677   1.911
 1338TIP3    H2 4021   6.476   1.763   1.911
 1339TIP3   OH2 4022   0.439   1.448   4.044
 1339TIP3    H1 4023   0.527   1.484   4.057
 1339TIP3    H2 4024   0.429   1.382   4.112
 1340TIP3   OH2 4025   2.733   3.137   3.383
 1340TIP3    H1 4026   2.803   3.104   3.439
 1340TIP3    H2 4027   2.660   3.077   3.398
 1341TIP3   OH2 4028   4.496   4.266   0.284
 1341TIP3    H1 4029   4.427   4.293   0.344
 1341TIP3    H2 4030   4.503   4.338   0.221
 1342TIP3   OH2 4031   5.103   5.364   2.016
 1342TIP3    H1 4032   5.180   5.357   2.073
 1342TIP3    H2 4033   5.058   5.281   2.026
 1343TIP3   OH2 4034   0.912   3.098   2.276
 1343TIP3    H1 4035   0.963   3.176   2.255
 1343TIP3    H2 4036   0.832   3.107   2.225
 1344TIP3   OH2 4037   3.323   3.409   4.335
 1344TIP3    H1 4038   3.322   3.343   4.404
 1344TIP3    H2 4039   3.252   3.383   4.276
 1345TIP3   OH2 4040   1.125   0.226   2.344
 1345TIP3    H1 4041   1.030   0.215   2.355
 1345TIP3    H2 4042   1.143   0.195   2.255
 1346TIP3   OH2 4043   4.878   3.975   4.834
 1346TIP3    H1 4044   4.955   3.977   4.777
 1346TIP3    H2 4045   4.842   3.887   4.822
 1347TIP3   OH2 4046   1.242   0.914   1.630
 1347TIP3    H1 4047   1.304   0.842   1.641
 1347TIP3    H2 4048   1.260   0.973   1.704
 1348TIP3   OH2 4049   2.721   5.073   0.346
 1348TIP3    H1 4050   2.661   5.042   0.278
 1348TIP3    H2 4051   2.678   5.150   0.382
 1349TIP3   OH2 4052   4.227   0.917   2.226
 1349TIP3    H1 4053   4.133   0.929   2.213
 1349TIP3    H2 4054   4.239   0.929   2.321
 1350TIP3   OH2 4055   5.251   1.952   0.321
 1350TIP3    H1 4056   5.291   1.882   0.269
 1350TIP3    H2 4057   5.202   1.906   0.390
 1351TIP3   OH2 4058   0.287   5.577   3.223
 1351TIP3    H1 4059   0.291   5.618   3.137
 1351TIP3    H2 4060   0.223   5.506   3.214
 1352TIP3   OH2 4061   2.685   3.644   1.020
 1352TIP3    H1 4062   2.757   3.591   0.987
 1352TIP3    H2 4063   2.710   3.667   1.110
 1353TIP3   OH2 4064   3.666   1.299   3.725
 1353TIP3    H1 4065   3.630   1.330   3.641
 1353TIP3    H2 4066   3.668   1.377   3.780
 1354TIP3   OH2 4067   6.284   4.500   4.066
 1354TIP3    H1 4068   6.251   4.587   4.086
 1354TIP3    H2 4069   6.206   4.451   4.039
 1355TIP3   OH2 4070   6.164   5.171   1.600
 1355TIP3    H1 4071   6.097   5.152   1.534
 1355TIP3    H2 4072   6.184   5.086   1.639
 1356TIP3   OH2 4073   1.674   2.630   2.512
 1356TIP3    H1 4074   1.685   2.629   2.607
 1356TIP3    H2 4075   1.668   2.723   2.489
 1357TIP3   OH2 4076   2.891   1.892   4.957
 1357TIP3    H1 4077   2.970   1.879   5.010
 1357TIP3    H2 4078   2.894   1.984   4.931
 1358TIP3   OH2 4079   0.593   1.720   3.101
 1358TIP3    H1 4080   0.635   1.806   3.100
 1358TIP3    H2 4081   0.526   1.724   3.033
 1359TIP3   OH2 4082   6.182   1.810   2.724
 1359TIP3    H1 4083   6.189   1.832   2.631
 1359TIP3    H2 4084   6.261   1.847   2.763
 1360TIP3   OH2 4085   0.376   4.308   4.746
 1360TIP3    H1 4086   0.317   4.305   4.822
 1360TIP3    H2 4087   0.415   4.220   4.744
 1361TIP3   OH2 4088   4.377   3.123   3.535
 1361TIP3    H1 4089   4.333   3.199   3.574
 1361TIP3    H2 4090   4.422   3.159   3.459
 1362TIP3   OH2 4091   3.841   0.786   1.462
 1362TIP3    H1 4092   3.790   0.706   1.448
 1362TIP3    H2 4093   3.847   0.826   1.375
 1363TIP3   OH2 4094   5.773   0.631   2.082
 1363TIP3    H1 4095   5.711   0.571   2.041
 1363TIP3    H2 4096   5.728   0.715   2.083
 1364TIP3   OH2 4097   4.541   1.274   5.106
 1364TIP3    H1 4098   4.589   1.356   5.118
 1364TIP3    H2 4099   4.449   1.301   5.096
 1365TIP3   OH2 4100   2.850   5.053   0.032
 1365TIP3    H1 4101   2.823   4.963   0.013
 1365TIP3    H2 4102   2.932   5.045   0.079
 1366TIP3   OH2 4103   1.402   4.506   5.104
 1366TIP3    H1 4104   1.391   4.567   5.177
 1366TIP3    H2 4105   1.355   4.547   5.031
 1367TIP3   OH2 4106   0.692   2.311   2.511
 1367TIP3    H1 4107   0.650   2.357   2.438
 1367TIP3    H2 4108   0.764   2.263   2.470
 1368TIP3   OH2 4109   3.327   5.638   3.339
 1368TIP3    H1 4110   3.373   5.578   3.281
 1368TIP3    H2 4111   3.389   5.710   3.353
 1369TIP3   OH2 4112   1.894   4.513   3.896
 1369TIP3    H1 4113   1.807   4.551   3.907
 1369TIP3    H2 4114   1.933   4.515   3.983
 1370TIP3   OH2 4115   4.506   3.850   0.911
 1370TIP3    H1 4116   4.574   3.837   0.844
 1370TIP3    H2 4117   4.424   3.842   0.863
 1371TIP3   OH2 4118   3.373   1.754   0.718
 1371TIP3    H1 4119   3.289   1.714   0.695
 1371TIP3    H2 4120   3.433   1.726   0.648
 1372TIP3   OH2 4121   0.376   1.706   1.216
 1372TIP3    H1 4122   0.303   1.764   1.237
 1372TIP3    H2 4123   0.427   1.754   1.151
 1373TIP3   OH2 4124   0.246   0.471   1.730
 1373TIP3    H1 4125   0.293   0.553   1.715
 1373TIP3    H2 4126   0.255   0.423   1.648
 1374TIP3   OH2 4127   3.774   3.482   4.248
 1374TIP3    H1 4128   3.699   3.534   4.218
 1374TIP3    H2 4129   3.749   3.391   4.232
 1375TIP3   OH2 4130   4.497   0.370   3.635
 1375TIP3    H1 4131   4.518   0.361   3.728
 1375TIP3    H2 4132   4.573   0.413   3.596
 1376TIP3   OH2 4133   1.321   1.655   1.592
 1376TIP3    H1 4134   1.380   1.708   1.539
 1376TIP3    H2 4135   1.236   1.662   1.548
 1377TIP3   OH2 4136   3.607   5.952   0.533
 1377TIP3    H1 4137   3.667   5.969   0.460
 1377TIP3    H2 4138   3.536   5.901   0.495
 1378TIP3   OH2 4139   2.508   0.481   1.057
 1378TIP3    H1 4140   2.461   0.562   1.075
 1378TIP3    H2 4141   2.596   0.508   1.035
 1379TIP3   OH2 4142   5.994   4.598   1.723
 1379TIP3    H1 4143   5.974   4.659   1.652
 1379TIP3    H2 4144   5.909   4.560   1.745
 1380TIP3   OH2 4145   3.442   5.401   0.029
 1380TIP3    H1 4146   3.466   5.493   0.035
 1380TIP3    H2 4147   3.496   5.366  -0.041
 1381TIP3   OH2 4148   4.389   1.595   4.533
 1381TIP3    H1 4149   4.471   1.636   4.505
 1381TIP3    H2 4150   4.322   1.660   4.512
 1382TIP3   OH2 4151   2.939   2.895   2.879
 1382TIP3    H1 4152   2.943   2.802   2.901
 1382TIP3    H2 4153   2.936   2.940   2.964
 1383TIP3   OH2 4154   1.841   4.065   2.564
 1383TIP3    H1 4155   1.857   4.155   2.538
 1383TIP3    H2 4156   1.888   4.055   2.647
 1384TIP3   OH2 4157   5.085   4.273   0.147
 1384TIP3    H1 4158   5.127   4.351   0.110
 1384TIP3    H2 4159   5.009   4.307   0.194
 1385TIP3   OH2 4160   4.142   5.772   0.496
 1385TIP3    H1 4161   4.220   5.731   0.536
 1385TIP3    H2 4162   4.144   5.742   0.405
 1386TIP3   OH2 4163   3.991   1.338   3.200
 1386TIP3    H1 4164   3.898   1.319   3.191
 1386TIP3    H2 4165   3.996   1.432   3.218
 1387TIP3   OH2 4166   1.357   2.811   0.700
 1387TIP3    H1 4167   1.300   2.877   0.662
 1387TIP3    H2 4168   1.323   2.728   0.667
 1388TIP3   OH2 4169   1.331   1.250   5.110
 1388TIP3    H1 4170   1.252   1.202   5.135
 1388TIP3    H2 4171   1.308   1.342   5.121
 1389TIP3   OH2 4172   2.421   1.293   3.296
 1389TIP3    H1 4173   2.392   1.203   3.310
 1389TIP3    H2 4174   2.513   1.286   3.271
 1390TIP3   OH2 4175   5.638   3.628   1.920
 1390TIP3    H1 4176   5.651   3.536   1.898
 1390TIP3    H2 4177   5.644   3.674   1.836
 1391TIP3   OH2 4178   4.825   3.577   0.139
 1391TIP3    H1 4179   4.774   3.551   0.062
 1391TIP3    H2 4180   4.761   3.618   0.197
 1392TIP3   OH2 4181   1.219   4.960   2.982
 1392TIP3    H1 4182   1.183   5.045   2.954
 1392TIP3    H2 4183   1.145   4.900   2.975
 1393TIP3   OH2 4184   4.962   4.313   5.065
 1393TIP3    H1 4185   4.938   4.311   4.972
 1393TIP3    H2 4186   4.882   4.343   5.109
 1394TIP3   OH2 4187   2.679   5.941   2.565
 1394TIP3    H1 4188   2.677   6.033   2.540
 1394TIP3    H2 4189   2.722   5.897   2.492
 1395TIP3   OH2 4190   2.787   1.309   2.481
 1395TIP3    H1 4191   2.715   1.363   2.451
 1395TIP3    H2 4192   2.819   1.353   2.560
 1396TIP3   OH2 4193   5.119   5.159   0.908
 1396TIP3    H1 4194   5.185   5.228   0.897
 1396TIP3    H2 4195   5.087   5.170   0.997
 1397TIP3   OH2 4196   5.027   5.442   1.665
 1397TIP3    H1 4197   5.117   5.452   1.633
 1397TIP3    H2 4198   5.021   5.350   1.692
 1398TIP3   OH2 4199   0.655   1.954   0.565
 1398TIP3    H1 4200   0.684   1.929   0.477
 1398TIP3    H2 4201   0.736   1.963   0.615
 1399TIP3   OH2 4202   2.749   5.726   4.024
 1399TIP3    H1 4203   2.811   5.654   4.035
 1399TIP3    H2 4204   2.788   5.798   4.073
 1400TIP3   OH2 4205   4.019   3.796   4.179
 1400TIP3    H1 4206   3.952   3.816   4.114
 1400TIP3    H2 4207   4.098   3.839   4.146
 1401TIP3   OH2 4208   0.248   1.066   0.277
 1401TIP3    H1 4209   0.340   1.063   0.302
 1401TIP3    H2 4210   0.200   1.039   0.356
 1402TIP3   OH2 4211   5.905   4.724   0.288
 1402TIP3    H1 4212   5.848   4.800   0.299
 1402TIP3    H2 4213   5.991   4.754   0.319
 1403TIP3   OH2 4214   0.700   4.866   1.277
 1403TIP3    H1 4215   0.793   4.869   1.302
 1403TIP3    H2 4216   0.661   4.943   1.318
 1404TIP3   OH2 4217   5.866   0.087   3.613
 1404TIP3    H1 4218   5.873   0.008   3.667
 1404TIP3    H2 4219   5.780   0.082   3.574
 1405TIP3   OH2 4220   2.144   2.361   4.830
 1405TIP3    H1 4221   2.089   2.320   4.897
 1405TIP3    H2 4222   2.198   2.289   4.797
 1406TIP3   OH2 4223   6.308   5.797   4.470
 1406TIP3    H1 4224   6.235   5.812   4.411
 1406TIP3    H2 4225   6.343   5.711   4.444
 1407TIP3   OH2 4226   1.781   3.018   4.644
 1407TIP3    H1 4227   1.775   3.110   4.617
 1407TIP3    H2 4228   1.758   2.969   4.566
 1408TIP3   OH2 4229   5.493   2.705   1.237
 1408TIP3    H1 4230   5.576   2.704   1.284
 1408TIP3    H2 4231   5.518   2.719   1.146
 1409TIP3   OH2 4232   0.794   0.838   2.833
 1409TIP3    H1 4233   0.808   0.751   2.795
 1409TIP3    H2 4234   0.823   0.829   2.923
 1410TIP3   OH2 4235   0.934   2.601   2.441
 1410TIP3    H1 4236   0.848   2.643   2.454
 1410TIP3    H2 4237   0.916   2.530   2.380
 1411TIP3   OH2 4238   1.884   0.472   4.545
 1411TIP3    H1 4239   1.895   0.435   4.457
 1411TIP3    H2 4240   1.933   0.412   4.602
 1412TIP3   OH2 4241   2.508   4.414   4.048
 1412TIP3    H1 4242   2.550   4.399   3.963
 1412TIP3    H2 4243   2.581   4.427   4.108
 1413TIP3   OH2 4244   1.186   2.349   3.744
 1413TIP3    H1 4245   1.116   2.408   3.718
 1413TIP3    H2 4246   1.205   2.297   3.665
 1414TIP3   OH2 4247   2.331   0.016   5.187
 1414TIP3    H1 4248   2.399   0.015   5.254
 1414TIP3    H2 4249   2.378   0.022   5.104
 1415TIP3   OH2 4250   6.137   4.409   1.005
 1415TIP3    H1 4251   6.157   4.358   1.084
 1415TIP3    H2 4252   6.128   4.499   1.036
 1416TIP3   OH2 4253   5.135   1.607   2.901
 1416TIP3    H1 4254   5.040   1.601   2.890
 1416TIP3    H2 4255   5.150   1.587   2.993
 1417TIP3   OH2 4256   1.279   1.100   0.298
 1417TIP3    H1 4257   1.184   1.097   0.301
 1417TIP3    H2 4258   1.303   1.032   0.235
 1418TIP3   OH2 4259   3.259   4.342   0.726
 1418TIP3    H1 4260   3.252   4.427   0.683
 1418TIP3    H2 4261   3.237   4.278   0.658
 1419TIP3   OH2 4262   2.042   3.786   3.086
 1419TIP3    H1 4263   2.070   3.723   3.153
 1419TIP3    H2 4264   1.979   3.737   3.032
 1420TIP3   OH2 4265   0.910   2.295   3.966
 1420TIP3    H1 4266   0.817   2.314   3.972
 1420TIP3    H2 4267   0.947   2.366   3.915
 1421TIP3   OH2 4268   1.741   1.100   1.317
 1421TIP3    H1 4269   1.710   1.186   1.289
 1421TIP3    H2 4270   1.791   1.117   1.396
 1422TIP3   OH2 4271   5.619   1.411   1.551
 1422TIP3    H1 4272   5.710   1.411   1.521
 1422TIP3    H2 4273   5.626   1.413   1.647
 1423TIP3   OH2 4274   5.404   0.917   0.534
 1423TIP3    H1 4275   5.369   0.994   0.490
 1423TIP3    H2 4276   5.498   0.935   0.545
 1424TIP3   OH2 4277   3.147   3.955   3.788
 1424TIP3    H1 4278   3.127   4.048   3.783
 1424TIP3    H2 4279   3.064   3.913   3.812
 1425TIP3   OH2 4280   3.368   5.849   3.062
 1425TIP3    H1 4281   3.351   5.906   3.137
 1425TIP3    H2 4282   3.440   5.792   3.091
 1426TIP3   OH2 4283   3.660   4.231   2.179
 1426TIP3    H1 4284   3.674   4.308   2.124
 1426TIP3    H2 4285   3.599   4.261   2.246
 1427TIP3   OH2 4286   5.119   3.139   4.145
 1427TIP3    H1 4287   5.138   3.207   4.081
 1427TIP3    H2 4288   5.128   3.183   4.230
 1428TIP3   OH2 4289   0.905   0.724   3.073
 1428TIP3    H1 4290   0.921   0.780   3.149
 1428TIP3    H2 4291   0.835   0.665   3.101
 1429TIP3   OH2 4292   1.391   2.413   4.171
 1429TIP3    H1 4293   1.309   2.461   4.159
 1429TIP3    H2 4294   1.459   2.479   4.166
 1430TIP3   OH2 4295   1.406   2.929   3.575
 1430TIP3    H1 4296   1.433   2.837   3.578
 1430TIP3    H2 4297   1.437   2.966   3.658
 1431TIP3   OH2 4298   2.244   1.142   1.868
 1431TIP3    H1 4299   2.151   1.164   1.863
 1431TIP3    H2 4300   2.247   1.047   1.872
 1432TIP3   OH2 4301   0.682   4.866   2.688
 1432TIP3    H1 4302   0.698   4.955   2.656
 1432TIP3    H2 4303   0.719   4.809   2.621
 1433TIP3   OH2 4304   1.933   4.061   2.831
 1433TIP3    H1 4305   1.972   4.126   2.890
 1433TIP3    H2 4306   1.839   4.070   2.844
 1434TIP3   OH2 4307   5.996   1.163   4.118
 1434TIP3    H1 4308   6.049   1.097   4.163
 1434TIP3    H2 4309   5.953   1.114   4.048
 1435TIP3   OH2 4310   3.198   4.493   4.044
 1435TIP3    H1 4311   3.132   4.562   4.045
 1435TIP3    H2 4312   3.150   4.415   4.072
 1436TIP3   OH2 4313   5.669   1.234   4.279
 1436TIP3    H1 4314   5.723   1.173   4.228
 1436TIP3    H2 4315   5.723   1.313   4.285
 1437TIP3   OH2 4316   3.766   2.451   4.347
 1437TIP3    H1 4317   3.853   2.412   4.339
 1437TIP3    H2 4318   3.782   2.544   4.358
 1438TIP3   OH2 4319   3.857   1.995   3.030
 1438TIP3    H1 4320   3.925   2.054   3.062
 1438TIP3    H2 4321   3.801   2.050   2.976
 1439TIP3   OH2 4322   5.783   5.124   4.900
 1439TIP3    H1 4323   5.765   5.043   4.852
 1439TIP3    H2 4324   5.700   5.172   4.898
 1440TIP3   OH2 4325   0.326   4.565   4.977
 1440TIP3    H1 4326   0.334   4.658   4.958
 1440TIP3    H2 4327   0.234   4.553   5.001
 1441TIP3   OH2 4328   1.637   1.549   2.269
 1441TIP3    H1 4329   1.719   1.529   2.225
 1441TIP3    H2 4330   1.574   1.487   2.233
 1442TIP3   OH2 4331   4.360   5.864   3.585
 1442TIP3    H1 4332   4.349   5.954   3.616
 1442TIP3    H2 4333   4.446   5.838   3.618
 1443TIP3   OH2 4334   2.879   3.532   2.649
 1443TIP3    H1 4335   2.847   3.455   2.695
 1443TIP3    H2 4336   2.960   3.502   2.606
 1444TIP3   OH2 4337   4.942   3.857   3.695
 1444TIP3    H1 4338   4.935   3.838   3.788
 1444TIP3    H2 4339   4.852   3.875   3.667
 1445TIP3   OH2 4340   1.823   0.902   3.928
 1445TIP3    H1 4341   1.889   0.876   3.863
 1445TIP3    H2 4342   1.852   0.860   4.009
 1446TIP3   OH2 4343   6.094   0.287   2.988
 1446TIP3    H1 4344   5.999   0.287   2.976
 1446TIP3    H2 4345   6.109   0.351   3.057
 1447TIP3   OH2 4346   3.439   5.435   1.734
 1447TIP3    H1 4347   3.379   5.425   1.660
 1447TIP3    H2 4348   3.475   5.347   1.748
 1448TIP3   OH2 4349   0.854   5.085   3.633
 1448TIP3    H1 4350   0.820   5.094   3.544
 1448TIP3    H2 4351   0.779   5.053   3.684
 1449TIP3   OH2 4352   3.881   5.146   2.783
 1449TIP3    H1 4353   3.833   5.176   2.706
 1449TIP3    H2 4354   3.840   5.193   2.856
 1450TIP3   OH2 4355   3.589   1.254   4.730
 1450TIP3    H1 4356   3.648   1.313   4.777
 1450TIP3    H2 4357   3.622   1.166   4.749
 1451TIP3   OH2 4358   1.158   2.774   2.928
 1451TIP3    H1 4359   1.253   2.780   2.926
 1451TIP3    H2 4360   1.128   2.865   2.934
 1452TIP3   OH2 4361   0.788   5.225   2.360
 1452TIP3    H1 4362   0.832   5.285   2.300
 1452TIP3    H2 4363   0.695   5.243   2.347
 1453TIP3   OH2 4364   2.612   3.114   1.841
 1453TIP3    H1 4365   2.671   3.187   1.855
 1453TIP3    H2 4366   2.544   3.149   1.783
 1454TIP3   OH2 4367   1.078   1.691   1.506
 1454TIP3    H1 4368   1.027   1.689   1.425
 1454TIP3    H2 4369   1.035   1.629   1.563
 1455TIP3   OH2 4370   2.516   0.793   5.049
 1455TIP3    H1 4371   2.548   0.709   5.082
 1455TIP3    H2 4372   2.550   0.798   4.959
 1456TIP3   OH2 4373   5.065   3.531   3.423
 1456TIP3    H1 4374   5.005   3.556   3.352
 1456TIP3    H2 4375   5.108   3.612   3.449
 1457TIP3   OH2 4376   6.326   4.379   3.208
 1457TIP3    H1 4377   6.314   4.466   3.246
 1457TIP3    H2 4378   6.417   4.356   3.229
 1458TIP3   OH2 4379   4.667   0.212   2.474
 1458TIP3    H1 4380   4.621   0.190   2.555
 1458TIP3    H2 4381   4.617   0.286   2.439
 1459TIP3   OH2 4382   1.648   3.268  -0.022
 1459TIP3    H1 4383   1.655   3.176   0.003
 1459TIP3    H2 4384   1.554   3.285  -0.026
 1460TIP3   OH2 4385   5.050   2.331   4.746
 1460TIP3    H1 4386   5.127   2.306   4.797
 1460TIP3    H2 4387   4.976   2.297   4.796
 1461TIP3   OH2 4388   2.800   3.257   4.259
 1461TIP3    H1 4389   2.833   3.167   4.258
 1461TIP3    H2 4390   2.863   3.305   4.314
 1462TIP3   OH2 4391   0.414   5.024   2.859
 1462TIP3    H1 4392   0.323   5.021   2.890
 1462TIP3    H2 4393   0.466   5.024   2.939
 1463TIP3   OH2 4394   6.211   2.991   4.082
 1463TIP3    H1 4395   6.145   2.967   4.146
 1463TIP3    H2 4396   6.179   3.074   4.045
 1464TIP3   OH2 4397   2.724   1.574   4.945
 1464TIP3    H1 4398   2.744   1.624   4.865
 1464TIP3    H2 4399   2.803   1.582   4.999
 1465TIP3   OH2 4400   5.348   5.853   1.243
 1465TIP3    H1 4401   5.408   5.779   1.252
 1465TIP3    H2 4402   5.299   5.855   1.325
 1466TIP3   OH2 4403   0.594   1.151   1.475
 1466TIP3    H1 4404   0.584   1.067   1.520
 1466TIP3    H2 4405   0.597   1.129   1.382
 1467TIP3   OH2 4406   5.490   0.432   3.592
 1467TIP3    H1 4407   5.488   0.369   3.664
 1467TIP3    H2 4408   5.421   0.495   3.614
 1468TIP3   OH2 4409   2.028   4.787   1.690
 1468TIP3    H1 4410   1.951   4.769   1.745
 1468TIP3    H2 4411   1.998   4.856   1.630
 1469TIP3   OH2 4412   3.120   0.994   0.424
 1469TIP3    H1 4413   3.080   1.081   0.418
 1469TIP3    H2 4414   3.115   0.972   0.517
 1470TIP3   OH2 4415   5.115   4.777   4.770
 1470TIP3    H1 4416   5.027   4.766   4.732
 1470TIP3    H2 4417   5.141   4.688   4.795
 1471TIP3   OH2 4418   2.813   3.562   4.089
 1471TIP3    H1 4419   2.894   3.524   4.054
 1471TIP3    H2 4420   2.842   3.617   4.162
 1472TIP3   OH2 4421   3.270   3.803   0.707
 1472TIP3    H1 4422   3.278   3.713   0.739
 1472TIP3    H2 4423   3.194   3.839   0.752
 1473TIP3   OH2 4424   2.101   1.446   1.981
 1473TIP3    H1 4425   2.147   1.396   1.914
 1473TIP3    H2 4426   2.151   1.527   1.990
 1474TIP3   OH2 4427   1.032   3.474   0.914
 1474TIP3    H1 4428   1.074   3.542   0.862
 1474TIP3    H2 4429   1.010   3.406   0.851
 1475TIP3   OH2 4430   2.815   4.301   0.738
 1475TIP3    H1 4431   2.783   4.310   0.649
 1475TIP3    H2 4432   2.775   4.373   0.786
 1476TIP3   OH2 4433   2.741   3.102   0.661
 1476TIP3    H1 4434   2.796   3.179   0.646
 1476TIP3    H2 4435   2.710   3.112   0.751
 1477TIP3   OH2 4436   4.659   1.962   4.028
 1477TIP3    H1 4437   4.681   2.028   4.093
 1477TIP3    H2 4438   4.622   1.889   4.079
 1478TIP3   OH2 4439   2.160   3.762   4.890
 1478TIP3    H1 4440   2.179   3.753   4.797
 1478TIP3    H2 4441   2.198   3.846   4.914
 1479TIP3   OH2 4442   0.667   1.663   4.008
 1479TIP3    H1 4443   0.698   1.585   3.962
 1479TIP3    H2 4444   0.676   1.734   3.944
 1480TIP3   OH2 4445   0.289   3.332   2.870
 1480TIP3    H1 4446   0.302   3.271   2.942
 1480TIP3    H2 4447   0.361   3.312   2.809
 1481TIP3   OH2 4448   3.328   1.244   5.010
 1481TIP3    H1 4449   3.380   1.181   4.960
 1481TIP3    H2 4450   3.296   1.195   5.085
 1482TIP3   OH2 4451   4.479   1.756   3.254
 1482TIP3    H1 4452   4.540   1.831   3.256
 1482TIP3    H2 4453   4.405   1.784   3.308
 1483TIP3   OH2 4454   2.934   5.340   4.070
 1483TIP3    H1 4455   2.940   5.435   4.080
 1483TIP3    H2 4456   2.891   5.327   3.985
 1484TIP3   OH2 4457   4.202   1.472   2.945
 1484TIP3    H1 4458   4.188   1.561   2.976
 1484TIP3    H2 4459   4.297   1.463   2.938
 1485TIP3   OH2 4460   4.734   5.692   0.743
 1485TIP3    H1 4461   4.781   5.690   0.659
 1485TIP3    H2 4462   4.649   5.730   0.722
 1486TIP3   OH2 4463   2.938   4.346   4.355
 1486TIP3    H1 4464   2.900   4.267   4.394
 1486TIP3    H2 4465   3.007   4.372   4.417
 1487TIP3   OH2 4466   3.504   0.893   1.258
 1487TIP3    H1 4467   3.508   0.853   1.345
 1487TIP3    H2 4468   3.432   0.956   1.264
 1488TIP3   OH2 4469   2.149   2.814   0.544
 1488TIP3    H1 4470   2.058   2.842   0.555
 1488TIP3    H2 4471   2.192   2.889   0.503
 1489TIP3   OH2 4472   5.705   0.905   3.761
 1489TIP3    H1 4473   5.655   0.929   3.683
 1489TIP3    H2 4474   5.649   0.843   3.807
 1490TIP3   OH2 4475   4.670   2.066   0.895
 1490TIP3    H1 4476   4.695   2.120   0.970
 1490TIP3    H2 4477   4.739   2.081   0.831
 1491TIP3   OH2 4478   1.313   3.741   3.174
 1491TIP3    H1 4479   1.225   3.715   3.201
 1491TIP3    H2 4480   1.332   3.687   3.097
 1492TIP3   OH2 4481   2.769   3.335   1.830
 1492TIP3    H1 4482   2.804   3.386   1.757
 1492TIP3    H2 4483   2.758   3.399   1.900
 1493TIP3   OH2 4484   5.819   1.734   4.174
 1493TIP3    H1 4485   5.745   1.719   4.233
 1493TIP3    H2 4486   5.896   1.716   4.227
 1494TIP3   OH2 4487   2.068   3.518   4.625
 1494TIP3    H1 4488   2.028   3.433   4.645
 1494TIP3    H2 4489   2.160   3.507   4.649
 1495TIP3   OH2 4490   4.893   3.614   2.136
 1495TIP3    H1 4491   4.973   3.566   2.115
 1495TIP3    H2 4492   4.823   3.560   2.098
 1496TIP3   OH2 4493   4.433   2.239   0.803
 1496TIP3    H1 4494   4.411   2.324   0.766
 1496TIP3    H2 4495   4.519   2.251   0.841
 1497TIP3   OH2 4496   2.919   5.262   2.462
 1497TIP3    H1 4497   2.931   5.248   2.556
 1497TIP3    H2 4498   2.866   5.187   2.433
 1498TIP3   OH2 4499   5.722   1.036   4.084
 1498TIP3    H1 4500   5.762   0.949   4.079
 1498TIP3    H2 4501   5.671   1.043   4.003
 1499TIP3   OH2 4502   3.039   5.364   0.984
 1499TIP3    H1 4503   2.967   5.420   1.013
 1499TIP3    H2 4504   3.004   5.319   0.907
 1500TIP3   OH2 4505   0.651   1.595   4.815
 1500TIP3    H1 4506   0.688   1.532   4.877
 1500TIP3    H2 4507   0.563   1.562   4.797
 1501TIP3   OH2 4508   5.455   5.321   1.194
 1501TIP3    H1 4509   5.371   5.336   1.237
 1501TIP3    H2 4510   5.439   5.344   1.102
 1502TIP3   OH2 4511   3.308   3.201   1.113
 1502TIP3    H1 4512   3.393   3.247   1.111
 1502TIP3    H2 4513   3.326   3.120   1.161
 1503TIP3   OH2 4514   6.077   5.179   1.326
 1503TIP3    H1 4515   5.989   5.142   1.325
 1503TIP3    H2 4516   6.133   5.109   1.293
 1504TIP3   OH2 4517   4.525   0.770   0.939
 1504TIP3    H1 4518   4.485   0.683   0.942
 1504TIP3    H2 4519   4.619   0.753   0.939
 1505TIP3   OH2 4520   5.750   2.000   4.534
 1505TIP3    H1 4521   5.728   1.951   4.614
 1505TIP3    H2 4522   5.666   2.029   4.500
 1506TIP3   OH2 4523   1.567   4.704   1.410
 1506TIP3    H1 4524   1.608   4.720   1.495
 1506TIP3    H2 4525   1.636   4.721   1.346
 1507TIP3   OH2 4526   0.151   5.614   0.061
 1507TIP3    H1 4527   0.082   5.680   0.068
 1507TIP3    H2 4528   0.229   5.656   0.098
 1508TIP3   OH2 4529   4.656   3.484   3.083
 1508TIP3    H1 4530   4.718   3.412   3.087
 1508TIP3    H2 4531   4.668   3.531   3.165
 1509TIP3   OH2 4532   5.427   2.629   3.256
 1509TIP3    H1 4533   5.449   2.592   3.342
 1509TIP3    H2 4534   5.438   2.723   3.267
 1510TIP3   OH2 4535   0.457   3.767   0.735
 1510TIP3    H1 4536   0.456   3.671   0.736
 1510TIP3    H2 4537   0.377   3.792   0.782
 1511TIP3   OH2 4538   6.292   1.027   3.071
 1511TIP3    H1 4539   6.228   1.085   3.112
 1511TIP3    H2 4540   6.365   1.084   3.047
 1512TIP3   OH2 4541   0.760   3.330   1.223
 1512TIP3    H1 4542   0.683   3.273   1.227
 1512TIP3    H2 4543   0.779   3.351   1.314
 1513TIP3   OH2 4544   1.812   2.903   4.893
 1513TIP3    H1 4545   1.894   2.950   4.911
 1513TIP3    H2 4546   1.790   2.926   4.803
 1514TIP3   OH2 4547   5.464   4.829   0.036
 1514TIP3    H1 4548   5.535   4.770   0.061
 1514TIP3    H2 4549   5.504   4.889  -0.028
 1515TIP3   OH2 4550   0.941   2.211   1.783
 1515TIP3    H1 4551   0.960   2.147   1.715
 1515TIP3    H2 4552   0.851   2.239   1.765
 1516TIP3   OH2 4553   2.354   5.176   2.424
 1516TIP3    H1 4554   2.293   5.212   2.488
 1516TIP3    H2 4555   2.374   5.249   2.365
 1517TIP3   OH2 4556   6.089   5.432   1.219
 1517TIP3    H1 4557   6.062   5.350   1.259
 1517TIP3    H2 4558   6.162   5.409   1.163
 1518TIP3   OH2 4559   1.834   4.538   0.026
 1518TIP3    H1 4560   1.875   4.624   0.036
 1518TIP3    H2 4561   1.740   4.556   0.022
 1519TIP3   OH2 4562   1.680   2.029   0.328
 1519TIP3    H1 4563   1.653   2.055   0.416
 1519TIP3    H2 4564   1.701   2.111   0.284
 1520TIP3   OH2 4565   6.259   1.229   4.434
 1520TIP3    H1 4566   6.302   1.147   4.412
 1520TIP3    H2 4567   6.330   1.292   4.445
 1521TIP3   OH2 4568   6.178   2.661   2.550
 1521TIP3    H1 4569   6.103   2.675   2.608
 1521TIP3    H2 4570   6.176   2.735   2.489
 1522TIP3   OH2 4571   0.981   0.650   1.261
 1522TIP3    H1 4572   1.014   0.719   1.318
 1522TIP3    H2 4573   0.935   0.590   1.319
 1523TIP3   OH2 4574   4.436   2.040   4.241
 1523TIP3    H1 4575   4.411   2.110   4.181
 1523TIP3    H2 4576   4.465   2.086   4.320
 1524TIP3   OH2 4577   6.050   0.154   0.737
 1524TIP3    H1 4578   5.956   0.169   0.731
 1524TIP3    H2 4579   6.060   0.059   0.741
 1525TIP3   OH2 4580   0.988   2.736   4.816
 1525TIP3    H1 4581   0.913   2.704   4.866
 1525TIP3    H2 4582   1.020   2.659   4.768
 1526TIP3   OH2 4583   4.101   2.064   1.084
 1526TIP3    H1 4584   4.046   2.120   1.139
 1526TIP3    H2 4585   4.050   1.984   1.072
 1527TIP3   OH2 4586   4.994   0.497   2.369
 1527TIP3    H1 4587   4.996   0.427   2.434
 1527TIP3    H2 4588   4.900   0.515   2.356
 1528TIP3   OH2 4589   5.289   3.219   1.014
 1528TIP3    H1 4590   5.362   3.272   1.047
 1528TIP3    H2 4591   5.328   3.136   0.990
 1529TIP3   OH2 4592   4.370   6.026   1.256
 1529TIP3    H1 4593   4.422   6.028   1.337
 1529TIP3    H2 4594   4.433   6.005   1.187
 1530TIP3   OH2 4595   2.055   1.515   0.653
 1530TIP3    H1 4596   2.068   1.586   0.590
 1530TIP3    H2 4597   2.129   1.457   0.639
 1531TIP3   OH2 4598   0.050   3.911   3.254
 1531TIP3    H1 4599  -0.027   3.875   3.211
 1531TIP3    H2 4600   0.048   4.004   3.231
 1532TIP3   OH2 4601   5.162   0.043   4.890
 1532TIP3    H1 4602   5.170   0.055   4.985
 1532TIP3    H2 4603   5.078   0.082   4.867
 1533TIP3   OH2 4604   6.140   2.351   1.524
 1533TIP3    H1 4605   6.131   2.309   1.610
 1533TIP3    H2 4606   6.053   2.345   1.486
 1534TIP3   OH2 4607   1.807   2.892   3.982
 1534TIP3    H1 4608   1.801   2.796   3.986
 1534TIP3    H2 4609   1.889   2.909   3.936
 1535TIP3   OH2 4610   0.673   1.304   3.373
 1535TIP3    H1 4611   0.656   1.398   3.379
 1535TIP3    H2 4612   0.738   1.296   3.304
 1536TIP3   OH2 4613   4.514   3.583   0.949
 1536TIP3    H1 4614   4.500   3.675   0.927
 1536TIP3    H2 4615   4.598   3.562   0.910
 1537TIP3   OH2 4616   3.128   2.015   3.264
 1537TIP3    H1 4617   3.056   2.073   3.287
 1537TIP3    H2 4618   3.153   1.973   3.346
 1538TIP3   OH2 4619   0.945   3.672  -0.038
 1538TIP3    H1 4620   0.913   3.751   0.007
 1538TIP3    H2 4621   1.019   3.703  -0.090
 1539TIP3   OH2 4622   2.774   3.784   3.314
 1539TIP3    H1 4623   2.865   3.756   3.327
 1539TIP3    H2 4624   2.778   3.879   3.315
 1540TIP3   OH2 4625   2.307   5.868   4.239
 1540TIP3    H1 4626   2.368   5.803   4.273
 1540TIP3    H2 4627   2.228   5.857   4.293
 1541TIP3   OH2 4628   2.019   4.810   4.892
 1541TIP3    H1 4629   2.107   4.784   4.866
 1541TIP3    H2 4630   1.979   4.843   4.811
 1542TIP3   OH2 4631   3.998   4.674   2.007
 1542TIP3    H1 4632   4.061   4.696   1.938
 1542TIP3    H2 4633   3.916   4.658   1.960
 1543TIP3   OH2 4634   0.261   1.129   0.783
 1543TIP3    H1 4635   0.199   1.079   0.836
 1543TIP3    H2 4636   0.209   1.200   0.746
 1544TIP3   OH2 4637   4.914   3.393   4.169
 1544TIP3    H1 4638   4.917   3.298   4.168
 1544TIP3    H2 4639   4.837   3.415   4.115
 1545TIP3   OH2 4640   0.346   3.782   5.033
 1545TIP3    H1 4641   0.273   3.813   5.087
 1545TIP3    H2 4642   0.424   3.802   5.085
 1546TIP3   OH2 4643   6.230   4.045   3.536
 1546TIP3    H1 4644   6.293   4.116   3.547
 1546TIP3    H2 4645   6.148   4.088   3.512
 1547TIP3   OH2 4646   3.954   1.404   1.231
 1547TIP3    H1 4647   4.000   1.424   1.149
 1547TIP3    H2 4648   3.992   1.465   1.295
 1548TIP3   OH2 4649   2.014   2.491   2.628
 1548TIP3    H1 4650   2.047   2.455   2.711
 1548TIP3    H2 4651   1.925   2.522   2.650
 1549TIP3   OH2 4652   0.158   1.928   2.996
 1549TIP3    H1 4653   0.086   1.968   3.045
 1549TIP3    H2 4654   0.169   1.842   3.037
 1550TIP3   OH2 4655   1.758   5.641   3.192
 1550TIP3    H1 4656   1.728   5.724   3.229
 1550TIP3    H2 4657   1.741   5.576   3.260
 1551TIP3   OH2 4658   6.093   4.553   4.921
 1551TIP3    H1 4659   6.152   4.496   4.872
 1551TIP3    H2 4660   6.114   4.641   4.889
 1552TIP3   OH2 4661   2.605   5.973   3.307
 1552TIP3    H1 4662   2.669   5.919   3.353
 1552TIP3    H2 4663   2.533   5.983   3.370
 1553TIP3   OH2 4664   2.898   5.248   1.749
 1553TIP3    H1 4665   2.838   5.277   1.681
 1553TIP3    H2 4666   2.841   5.207   1.815
 1554TIP3   OH2 4667   4.387   5.627   0.547
 1554TIP3    H1 4668   4.469   5.650   0.503
 1554TIP3    H2 4669   4.389   5.532   0.554
 1555TIP3   OH2 4670   1.052   0.877   4.645
 1555TIP3    H1 4671   1.032   0.858   4.737
 1555TIP3    H2 4672   1.103   0.801   4.616
 1556TIP3   OH2 4673   0.099   0.948   0.970
 1556TIP3    H1 4674   0.076   0.984   1.056
 1556TIP3    H2 4675   0.057   0.862   0.969
 1557TIP3   OH2 4676   1.915   3.495   2.049
 1557TIP3    H1 4677   1.926   3.442   1.970
 1557TIP3    H2 4678   1.987   3.558   2.046
 1558TIP3   OH2 4679   2.495   0.955   1.695
 1558TIP3    H1 4680   2.534   0.908   1.621
 1558TIP3    H2 4681   2.415   0.906   1.714
 1559TIP3   OH2 4682   3.158   0.172   4.167
 1559TIP3    H1 4683   3.165   0.089   4.214
 1559TIP3    H2 4684   3.086   0.219   4.210
 1560TIP3   OH2 4685   0.597   2.396   4.560
 1560TIP3    H1 4686   0.532   2.467   4.566
 1560TIP3    H2 4687   0.575   2.337   4.632
 1561TIP3   OH2 4688   0.431   2.862   2.803
 1561TIP3    H1 4689   0.355   2.863   2.862
 1561TIP3    H2 4690   0.470   2.949   2.814
 1562TIP3   OH2 4691   3.690   1.539   3.858
 1562TIP3    H1 4692   3.757   1.595   3.819
 1562TIP3    H2 4693   3.629   1.599   3.900
 1563TIP3   OH2 4694   4.960   0.667   1.663
 1563TIP3    H1 4695   5.051   0.679   1.637
 1563TIP3    H2 4696   4.955   0.576   1.693
 1564TIP3   OH2 4697   4.559   5.968   1.523
 1564TIP3    H1 4698   4.587   5.892   1.473
 1564TIP3    H2 4699   4.636   6.026   1.523
 1565TIP3   OH2 4700   2.064   5.088   1.779
 1565TIP3    H1 4701   2.137   5.145   1.802
 1565TIP3    H2 4702   2.086   5.053   1.693
 1566TIP3   OH2 4703   3.502   0.704   0.474
 1566TIP3    H1 4704   3.420   0.661   0.496
 1566TIP3    H2 4705   3.493   0.728   0.382
 1567TIP3   OH2 4706   3.071   1.761   1.208
 1567TIP3    H1 4707   3.051   1.831   1.146
 1567TIP3    H2 4708   2.993   1.756   1.264
 1568TIP3   OH2 4709   3.544   1.420   3.451
 1568TIP3    H1 4710   3.528   1.498   3.505
 1568TIP3    H2 4711   3.458   1.377   3.446
 1569TIP3   OH2 4712   3.591   3.466   4.913
 1569TIP3    H1 4713   3.650   3.449   4.839
 1569TIP3    H2 4714   3.646   3.454   4.991
 1570TIP3   OH2 4715   6.132   5.027   4.095
 1570TIP3    H1 4716   6.037   5.032   4.101
 1570TIP3    H2 4717   6.158   5.109   4.053
 1571TIP3   OH2 4718   0.438   5.079   4.873
 1571TIP3    H1 4719   0.377   5.152   4.863
 1571TIP3    H2 4720   0.453   5.073   4.967
 1572TIP3   OH2 4721   3.080   5.048   3.788
 1572TIP3    H1 4722   3.158   4.993   3.797
 1572TIP3    H2 4723   3.028   5.006   3.720
 1573TIP3   OH2 4724   0.037   0.247   1.487
 1573TIP3    H1 4725   0.007   0.325   1.440
 1573TIP3    H2 4726  -0.011   0.175   1.446
 1574TIP3   OH2 4727   5.701   5.966   4.901
 1574TIP3    H1 4728   5.715   5.993   4.810
 1574TIP3    H2 4729   5.619   6.009   4.927
 1575TIP3   OH2 4730   6.263   2.892   2.111
 1575TIP3    H1 4731   6.359   2.887   2.111
 1575TIP3    H2 4732   6.238   2.870   2.021
 1576TIP3   OH2 4733   4.526   4.040   0.114
 1576TIP3    H1 4734   4.556   3.967   0.167
 1576TIP3    H2 4735   4.541   4.117   0.170
 1577TIP3   OH2 4736   3.436   5.273   2.062
 1577TIP3    H1 4737   3.508   5.285   2.124
 1577TIP3    H2 4738   3.476   5.282   1.976
 1578TIP3   OH2 4739   4.277   1.275   0.804
 1578TIP3    H1 4740   4.369   1.303   0.797
 1578TIP3    H2 4741   4.266   1.214   0.731
 1579TIP3   OH2 4742   6.276   3.054   4.441
 1579TIP3    H1 4743   6.187   3.044   4.407
 1579TIP3    H2 4744   6.323   2.977   4.409
 1580TIP3   OH2 4745   2.187   2.663   4.257
 1580TIP3    H1 4746   2.165   2.755   4.244
 1580TIP3    H2 4747   2.252   2.644   4.190
 1581TIP3   OH2 4748   5.752   2.771   1.582
 1581TIP3    H1 4749   5.839   2.808   1.566
 1581TIP3    H2 4750   5.738   2.711   1.510
 1582TIP3   OH2 4751   5.951   2.553   1.097
 1582TIP3    H1 4752   6.046   2.559   1.107
 1582TIP3    H2 4753   5.928   2.633   1.049
 1583TIP3   OH2 4754   4.738   3.003   1.701
 1583TIP3    H1 4755   4.705   2.995   1.611
 1583TIP3    H2 4756   4.822   3.047   1.692
 1584TIP3   OH2 4757   0.805   1.119   4.498
 1584TIP3    H1 4758   0.747   1.054   4.539
 1584TIP3    H2 4759   0.813   1.188   4.564
 1585TIP3   OH2 4760   0.049   1.864   2.200
 1585TIP3    H1 4761   0.099   1.792   2.239
 1585TIP3    H2 4762   0.027   1.834   2.112
 1586TIP3   OH2 4763   2.365   5.346   4.956
 1586TIP3    H1 4764   2.387   5.300   4.875
 1586TIP3    H2 4765   2.450   5.369   4.993
 1587TIP3   OH2 4766   3.740   4.713   2.329
 1587TIP3    H1 4767   3.788   4.637   2.297
 1587TIP3    H2 4768   3.662   4.676   2.371
 1588TIP3   OH2 4769   4.887   5.656   2.415
 1588TIP3    H1 4770   4.842   5.720   2.469
 1588TIP3    H2 4771   4.857   5.674   2.326
 1589TIP3   OH2 4772   1.668   2.245   4.159
 1589TIP3    H1 4773   1.687   2.157   4.193
 1589TIP3    H2 4774   1.675   2.302   4.236
 1590TIP3   OH2 4775   1.354   2.746   4.799
 1590TIP3    H1 4776   1.290   2.743   4.728
 1590TIP3    H2 4777   1.405   2.665   4.789
 1591TIP3   OH2 4778  -0.013   5.715   3.245
 1591TIP3    H1 4779  -0.016   5.662   3.325
 1591TIP3    H2 4780   0.070   5.761   3.250
 1592TIP3   OH2 4781   0.545   2.689   3.369
 1592TIP3    H1 4782   0.518   2.705   3.459
 1592TIP3    H2 4783   0.638   2.711   3.368
 1593TIP3   OH2 4784   2.918   5.229   0.780
 1593TIP3    H1 4785   2.910   5.304   0.720
 1593TIP3    H2 4786   2.832   5.187   0.777
 1594TIP3   OH2 4787   6.039   3.717   2.422
 1594TIP3    H1 4788   5.970   3.652   2.412
 1594TIP3    H2 4789   6.014   3.768   2.499
 1595TIP3   OH2 4790   3.446   0.300   3.127
 1595TIP3    H1 4791   3.452   0.395   3.116
 1595TIP3    H2 4792   3.358   0.278   3.097
 1596TIP3   OH2 4793   0.370   0.874   1.008
 1596TIP3    H1 4794   0.435   0.907   1.069
 1596TIP3    H2 4795   0.287   0.911   1.038
 1597TIP3   OH2 4796   1.672   0.601   1.392
 1597TIP3    H1 4797   1.630   0.600   1.307
 1597TIP3    H2 4798   1.705   0.690   1.402
 1598TIP3   OH2 4799   6.034   3.607   1.034
 1598TIP3    H1 4800   6.083   3.659   1.098
 1598TIP3    H2 4801   5.981   3.548   1.088
 1599TIP3   OH2 4802   2.203   0.951   4.397
 1599TIP3    H1 4803   2.177   0.983   4.311
 1599TIP3    H2 4804   2.297   0.931   4.388
 1600TIP3   OH2 4805   4.383   0.666   0.297
 1600TIP3    H1 4806   4.467   0.629   0.268
 1600TIP3    H2 4807   4.330   0.671   0.218
 1601TIP3   OH2 4808   4.911   5.880   1.182
 1601TIP3    H1 4809   4.841   5.860   1.120
 1601TIP3    H2 4810   4.988   5.835   1.147
 1602TIP3   OH2 4811   4.526   5.826   3.333
 1602TIP3    H1 4812   4.508   5.772   3.256
 1602TIP3    H2 4813   4.439   5.854   3.363
 1603TIP3   OH2 4814   2.577   5.390   2.616
 1603TIP3    H1 4815   2.555   5.420   2.705
 1603TIP3    H2 4816   2.621   5.465   2.576
 1604TIP3   OH2 4817   4.042   2.678   3.254
 1604TIP3    H1 4818   3.999   2.763   3.265
 1604TIP3    H2 4819   4.123   2.686   3.304
 1605TIP3   OH2 4820   3.601   5.540   4.213
 1605TIP3    H1 4821   3.550   5.595   4.153
 1605TIP3    H2 4822   3.691   5.546   4.180
 1606TIP3   OH2 4823   0.434   4.974   1.091
 1606TIP3    H1 4824   0.355   5.023   1.069
 1606TIP3    H2 4825   0.415   4.884   1.061
 1607TIP3   OH2 4826   1.466   0.494   0.881
 1607TIP3    H1 4827   1.510   0.420   0.922
 1607TIP3    H2 4828   1.536   0.553   0.854
 1608TIP3   OH2 4829   5.999   1.281   4.372
 1608TIP3    H1 4830   5.994   1.270   4.277
 1608TIP3    H2 4831   6.090   1.263   4.393
 1609TIP3   OH2 4832   5.831   2.466   4.470
 1609TIP3    H1 4833   5.909   2.436   4.517
 1609TIP3    H2 4834   5.807   2.549   4.512
 1610TIP3   OH2 4835   0.739   1.755   1.116
 1610TIP3    H1 4836   0.812   1.748   1.055
 1610TIP3    H2 4837   0.662   1.738   1.063
 1611TIP3   OH2 4838   2.530   1.886   0.857
 1611TIP3    H1 4839   2.573   1.971   0.861
 1611TIP3    H2 4840   2.468   1.886   0.930
 1612TIP3   OH2 4841   6.332   2.873   0.958
 1612TIP3    H1 4842   6.365   2.878   0.868
 1612TIP3    H2 4843   6.278   2.951   0.968
 1613TIP3   OH2 4844   4.246   3.096   0.537
 1613TIP3    H1 4845   4.197   3.097   0.455
 1613TIP3    H2 4846   4.183   3.127   0.603
 1614TIP3   OH2 4847   5.902   5.180   2.526
 1614TIP3    H1 4848   5.879   5.262   2.482
 1614TIP3    H2 4849   5.912   5.204   2.618
 1615TIP3   OH2 4850   4.241   5.826   3.004
 1615TIP3    H1 4851   4.179   5.870   2.946
 1615TIP3    H2 4852   4.316   5.807   2.948
 1616TIP3   OH2 4853   4.694   0.689   1.819
 1616TIP3    H1 4854   4.759   0.734   1.765
 1616TIP3    H2 4855   4.611   0.732   1.798
 1617TIP3   OH2 4856   5.763   1.778   1.542
 1617TIP3    H1 4857   5.748   1.871   1.557
 1617TIP3    H2 4858   5.803   1.746   1.623
 1618TIP3   OH2 4859   6.108   1.942   3.871
 1618TIP3    H1 4860   6.090   2.035   3.888
 1618TIP3    H2 4861   6.164   1.915   3.944
 1619TIP3   OH2 4862   1.831   1.434   0.419
 1619TIP3    H1 4863   1.913   1.464   0.458
 1619TIP3    H2 4864   1.778   1.407   0.494
 1620TIP3   OH2 4865   6.227   4.012   4.005
 1620TIP3    H1 4866   6.278   4.007   4.086
 1620TIP3    H2 4867   6.234   4.104   3.978
 1621TIP3   OH2 4868   4.939   4.694   0.415
 1621TIP3    H1 4869   5.008   4.714   0.352
 1621TIP3    H2 4870   4.857   4.713   0.368
 1622TIP3   OH2 4871   0.340   0.459   3.147
 1622TIP3    H1 4872   0.378   0.483   3.232
 1622TIP3    H2 4873   0.394   0.505   3.083
 1623TIP3   OH2 4874   5.482   5.134   1.733
 1623TIP3    H1 4875   5.576   5.135   1.751
 1623TIP3    H2 4876   5.443   5.186   1.803
 1624TIP3   OH2 4877   2.743   1.936   3.322
 1624TIP3    H1 4878   2.699   1.897   3.397
 1624TIP3    H2 4879   2.788   2.013   3.358
 1625TIP3   OH2 4880   0.200   3.026   4.648
 1625TIP3    H1 4881   0.119   3.073   4.667
 1625TIP3    H2 4882   0.215   2.973   4.726
 1626TIP3   OH2 4883   5.266   0.429   4.172
 1626TIP3    H1 4884   5.266   0.335   4.152
 1626TIP3    H2 4885   5.231   0.435   4.261
 1627TIP3   OH2 4886   4.157   4.365   3.248
 1627TIP3    H1 4887   4.118   4.412   3.174
 1627TIP3    H2 4888   4.094   4.296   3.268
 1628TIP3   OH2 4889   0.839   3.231   0.976
 1628TIP3    H1 4890   0.773   3.162   0.968
 1628TIP3    H2 4891   0.823   3.269   1.063
 1629TIP3   OH2 4892   4.425   2.881   3.580
 1629TIP3    H1 4893   4.490   2.851   3.517
 1629TIP3    H2 4894   4.429   2.976   3.577
 1630TIP3   OH2 4895   2.181   2.269   2.501
 1630TIP3    H1 4896   2.202   2.357   2.468
 1630TIP3    H2 4897   2.097   2.280   2.545
 1631TIP3   OH2 4898   0.550   2.426   3.324
 1631TIP3    H1 4899   0.598   2.443   3.242
 1631TIP3    H2 4900   0.527   2.512   3.357
 1632TIP3   OH2 4901   3.183   5.294   0.087
 1632TIP3    H1 4902   3.234   5.215   0.104
 1632TIP3    H2 4903   3.247   5.359   0.058
 1633TIP3   OH2 4904   1.746   4.397   1.709
 1633TIP3    H1 4905   1.841   4.407   1.698
 1633TIP3    H2 4906   1.717   4.361   1.625
 1634TIP3   OH2 4907   5.311   1.271   5.099
 1634TIP3    H1 4908   5.227   1.264   5.142
 1634TIP3    H2 4909   5.348   1.183   5.105
 1635TIP3   OH2 4910   1.095   2.545   3.532
 1635TIP3    H1 4911   1.027   2.585   3.479
 1635TIP3    H2 4912   1.136   2.618   3.578
 1636TIP3   OH2 4913   5.660   3.338   2.323
 1636TIP3    H1 4914   5.654   3.415   2.267
 1636TIP3    H2 4915   5.698   3.270   2.267
 1637TIP3   OH2 4916   5.074   2.290   1.236
 1637TIP3    H1 4917   5.101   2.273   1.327
 1637TIP3    H2 4918   5.014   2.364   1.242
 1638TIP3   OH2 4919   4.466   3.546   0.079
 1638TIP3    H1 4920   4.520   3.526   0.003
 1638TIP3    H2 4921   4.378   3.558   0.043
 1639TIP3   OH2 4922   0.973   3.085   4.032
 1639TIP3    H1 4923   1.016   3.164   3.999
 1639TIP3    H2 4924   0.978   3.024   3.959
 1640TIP3   OH2 4925   1.079   3.323   3.902
 1640TIP3    H1 4926   1.002   3.321   3.845
 1640TIP3    H2 4927   1.111   3.413   3.896
 1641TIP3   OH2 4928   5.388   4.803   2.801
 1641TIP3    H1 4929   5.338   4.730   2.838
 1641TIP3    H2 4930   5.338   4.881   2.827
 1642TIP3   OH2 4931   4.762   1.312   4.577
 1642TIP3    H1 4932   4.767   1.384   4.640
 1642TIP3    H2 4933   4.692   1.256   4.610
 1643TIP3   OH2 4934   3.251   2.254   4.031
 1643TIP3    H1 4935   3.200   2.267   3.951
 1643TIP3    H2 4936   3.228   2.165   4.059
 1644TIP3   OH2 4937   4.628   0.745   3.503
 1644TIP3    H1 4938   4.659   0.656   3.522
 1644TIP3    H2 4939   4.576   0.768   3.580
 1645TIP3   OH2 4940   4.980   5.516   3.997
 1645TIP3    H1 4941   5.012   5.448   3.937
 1645TIP3    H2 4942   5.053   5.531   4.057
 1646TIP3   OH2 4943   2.407   2.850   2.588
 1646TIP3    H1 4944   2.322   2.807   2.581
 1646TIP3    H2 4945   2.387   2.942   2.605
 1647TIP3   OH2 4946   5.902   5.492   0.932
 1647TIP3    H1 4947   5.948   5.480   1.015
 1647TIP3    H2 4948   5.819   5.446   0.944
 1648TIP3   OH2 4949   0.475   5.416   0.932
 1648TIP3    H1 4950   0.550   5.361   0.913
 1648TIP3    H2 4951   0.403   5.355   0.945
 1649TIP3   OH2 4952   4.711   2.162   2.003
 1649TIP3    H1 4953   4.732   2.075   2.037
 1649TIP3    H2 4954   4.661   2.145   1.923
 1650TIP3   OH2 4955   0.217   0.258   0.743
 1650TIP3    H1 4956   0.231   0.293   0.832
 1650TIP3    H2 4957   0.122   0.257   0.732
 1651TIP3   OH2 4958   2.440   4.032   3.481
 1651TIP3    H1 4959   2.500   4.077   3.422
 1651TIP3    H2 4960   2.357   4.028   3.432
 1652TIP3   OH2 4961   5.130   1.600   0.115
 1652TIP3    H1 4962   5.102   1.662   0.048
 1652TIP3    H2 4963   5.153   1.521   0.067
 1653TIP3   OH2 4964   1.487   3.176   2.354
 1653TIP3    H1 4965   1.567   3.180   2.301
 1653TIP3    H2 4966   1.420   3.143   2.295
 1654TIP3   OH2 4967   4.397   0.834   1.324
 1654TIP3    H1 4968   4.375   0.762   1.265
 1654TIP3    H2 4969   4.315   0.855   1.368
 1655TIP3   OH2 4970   0.239   2.336   2.334
 1655TIP3    H1 4971   0.146   2.317   2.323
 1655TIP3    H2 4972   0.252   2.337   2.429
 1656TIP3   OH2 4973   1.915   1.150   0.989
 1656TIP3    H1 4974   1.919   1.080   0.924
 1656TIP3    H2 4975   1.822   1.167   1.000
 1657TIP3   OH2 4976   2.233   1.754   3.566
 1657TIP3    H1 4977   2.176   1.729   3.494
 1657TIP3    H2 4978   2.176   1.803   3.626
 1658TIP3   OH2 4979   2.866   1.743   0.829
 1658TIP3    H1 4980   2.911   1.812   0.879
 1658TIP3    H2 4981   2.835   1.681   0.895
 1659TIP3   OH2 4982   2.967   2.588   4.593
 1659TIP3    H1 4983   2.923   2.508   4.562
 1659TIP3    H2 4984   3.053   2.586   4.551
 1660TIP3   OH2 4985   2.796   3.006   3.117
 1660TIP3    H1 4986   2.706   3.019   3.148
 1660TIP3    H2 4987   2.848   3.071   3.165
 1661TIP3   OH2 4988   1.570   3.047   4.019
 1661TIP3    H1 4989   1.499   2.984   4.027
 1661TIP3    H2 4990   1.644   2.996   3.985
 1662TIP3   OH2 4991   4.494   4.084   3.631
 1662TIP3    H1 4992   4.523   4.160   3.580
 1662TIP3    H2 4993   4.551   4.012   3.602
 1663TIP3   OH2 4994   5.007   0.298   2.575
 1663TIP3    H1 4995   5.036   0.212   2.546
 1663TIP3    H2 4996   5.051   0.311   2.659
 1664TIP3   OH2 4997   0.689   4.085   1.427
 1664TIP3    H1 4998   0.710   4.103   1.518
 1664TIP3    H2 4999   0.649   4.165   1.395
 1665TIP3   OH2 5000   2.339   3.976   1.366
 1665TIP3    H1 5001   2.256   3.997   1.325
 1665TIP3    H2 5002   2.345   3.881   1.362
 1666TIP3   OH2 5003   5.953   3.031   2.949
 1666TIP3    H1 5004   5.943   2.958   3.010
 1666TIP3    H2 5005   5.864   3.052   2.921
 1667TIP3   OH2 5006   3.278   3.519   0.751
 1667TIP3    H1 5007   3.193   3.476   0.738
 1667TIP3    H2 5008   3.329   3.493   0.674
 1668TIP3   OH2 5009   1.648   1.781   3.267
 1668TIP3    H1 5010   1.631   1.862   3.315
 1668TIP3    H2 5011   1.566   1.731   3.275
 1669TIP3   OH2 5012   3.485   2.795   4.902
 1669TIP3    H1 5013   3.537   2.781   4.981
 1669TIP3    H2 5014   3.487   2.711   4.857
 1670TIP3   OH2 5015   1.108   0.253   4.637
 1670TIP3    H1 5016   1.090   0.204   4.557
 1670TIP3    H2 5017   1.044   0.221   4.700
 1671TIP3   OH2 5018   5.231   0.399   1.855
 1671TIP3    H1 5019   5.272   0.371   1.773
 1671TIP3    H2 5020   5.137   0.384   1.841
 1672TIP3   OH2 5021   0.665   0.951   4.628
 1672TIP3    H1 5022   0.692   0.863   4.654
 1672TIP3    H2 5023   0.573   0.942   4.602
 1673TIP3   OH2 5024   5.867   2.235   0.519
 1673TIP3    H1 5025   5.938   2.209   0.461
 1673TIP3    H2 5026   5.896   2.317   0.558
 1674TIP3   OH2 5027   1.767   3.398   2.363
 1674TIP3    H1 5028   1.721   3.364   2.286
 1674TIP3    H2 5029   1.860   3.389   2.341
 1675TIP3   OH2 5030   1.541   5.782   1.596
 1675TIP3    H1 5031   1.556   5.871   1.629
 1675TIP3    H2 5032   1.454   5.759   1.628
 1676TIP3   OH2 5033   5.463   4.168   1.143
 1676TIP3    H1 5034   5.502   4.102   1.085
 1676TIP3    H2 5035   5.436   4.118   1.221
 1677TIP3   OH2 5036   3.461   5.852   3.787
 1677TIP3    H1 5037   3.398   5.886   3.724
 1677TIP3    H2 5038   3.541   5.835   3.737
 1678TIP3   OH2 5039   2.731   0.207   0.833
 1678TIP3    H1 5040   2.770   0.231   0.918
 1678TIP3    H2 5041   2.770   0.268   0.771
 1679TIP3   OH2 5042   2.773   1.583   3.165
 1679TIP3    H1 5043   2.736   1.586   3.253
 1679TIP3    H2 5044   2.834   1.657   3.163
 1680TIP3   OH2 5045   6.268   4.743   0.895
 1680TIP3    H1 5046   6.217   4.695   0.961
 1680TIP3    H2 5047   6.206   4.763   0.826
 1681TIP3   OH2 5048   1.786   3.410   1.506
 1681TIP3    H1 5049   1.854   3.344   1.492
 1681TIP3    H2 5050   1.826   3.492   1.477
 1682TIP3   OH2 5051   0.057   1.040   4.301
 1682TIP3    H1 5052   0.096   1.113   4.253
 1682TIP3    H2 5053   0.051   0.970   4.236
 1683TIP3   OH2 5054   5.667   2.401   2.239
 1683TIP3    H1 5055   5.661   2.455   2.318
 1683TIP3    H2 5056   5.719   2.453   2.178
 1684TIP3   OH2 5057   5.843   4.752   2.473
 1684TIP3    H1 5058   5.844   4.821   2.407
 1684TIP3    H2 5059   5.852   4.671   2.423
 1685TIP3   OH2 5060   1.518   0.491   1.767
 1685TIP3    H1 5061   1.488   0.507   1.856
 1685TIP3    H2 5062   1.613   0.502   1.771
 1686TIP3   OH2 5063   4.544   5.675   2.469
 1686TIP3    H1 5064   4.626   5.715   2.497
 1686TIP3    H2 5065   4.476   5.732   2.504
 1687TIP3   OH2 5066   0.815   4.883   4.384
 1687TIP3    H1 5067   0.810   4.835   4.301
 1687TIP3    H2 5068   0.770   4.826   4.446
 1688TIP3   OH2 5069   2.085   1.010   0.820
 1688TIP3    H1 5070   2.157   0.974   0.767
 1688TIP3    H2 5071   2.006   0.969   0.784
 1689TIP3   OH2 5072   5.017   2.039   3.241
 1689TIP3    H1 5073   5.111   2.054   3.251
 1689TIP3    H2 5074   4.990   1.995   3.321
 1690TIP3   OH2 5075   3.696   3.721   4.988
 1690TIP3    H1 5076   3.756   3.716   4.914
 1690TIP3    H2 5077   3.636   3.648   4.975
 1691TIP3   OH2 5078   5.844   2.332   1.580
 1691TIP3    H1 5079   5.755   2.359   1.600
 1691TIP3    H2 5080   5.834   2.272   1.505
 1692TIP3   OH2 5081   1.549   3.379   2.108
 1692TIP3    H1 5082   1.602   3.445   2.063
 1692TIP3    H2 5083   1.518   3.423   2.187
 1693TIP3   OH2 5084   6.193   2.091   4.677
 1693TIP3    H1 5085   6.234   2.011   4.709
 1693TIP3    H2 5086   6.208   2.089   4.583
 1694TIP3   OH2 5087   3.877   4.368   4.945
 1694TIP3    H1 5088   3.804   4.307   4.950
 1694TIP3    H2 5089   3.943   4.332   5.005
 1695TIP3   OH2 5090   2.830   4.163   3.588
 1695TIP3    H1 5091   2.755   4.176   3.531
 1695TIP3    H2 5092   2.846   4.069   3.587
 1696TIP3   OH2 5093   2.368   0.343   3.671
 1696TIP3    H1 5094   2.343   0.435   3.682
 1696TIP3    H2 5095   2.297   0.294   3.713
 1697TIP3   OH2 5096   3.048   0.458   0.063
 1697TIP3    H1 5097   2.997   0.529   0.101
 1697TIP3    H2 5098   3.029   0.462  -0.031
 1698TIP3   OH2 5099   3.557   2.669   1.548
 1698TIP3    H1 5100   3.474   2.664   1.500
 1698TIP3    H2 5101   3.531   2.667   1.640
 1699TIP3   OH2 5102   6.363   5.992   4.119
 1699TIP3    H1 5103   6.360   5.897   4.134
 1699TIP3    H2 5104   6.383   6.001   4.026
 1700TIP3   OH2 5105   1.473   3.593   2.281
 1700TIP3    H1 5106   1.496   3.683   2.300
 1700TIP3    H2 5107   1.439   3.559   2.364
 1701TIP3   OH2 5108   0.117   1.711   3.201
 1701TIP3    H1 5109   0.134   1.631   3.150
 1701TIP3    H2 5110   0.174   1.702   3.277
 1702TIP3   OH2 5111   4.221   0.668   1.621
 1702TIP3    H1 5112   4.146   0.651   1.678
 1702TIP3    H2 5113   4.220   0.596   1.558
 1703TIP3   OH2 5114   5.845   1.055   0.141
 1703TIP3    H1 5115   5.779   1.003   0.095
 1703TIP3    H2 5116   5.898   1.094   0.071
 1704TIP3   OH2 5117   0.981   3.106   0.325
 1704TIP3    H1 5118   0.928   3.028   0.307
 1704TIP3    H2 5119   0.963   3.164   0.252
 1705TIP3   OH2 5120   4.902   0.964   2.059
 1705TIP3    H1 5121   4.911   0.908   2.137
 1705TIP3    H2 5122   4.917   1.053   2.091
 1706TIP3   OH2 5123   2.544   0.049   3.404
 1706TIP3    H1 5124   2.595  -0.019   3.361
 1706TIP3    H2 5125   2.588   0.063   3.488
 1707TIP3   OH2 5126   1.910   0.804   2.540
 1707TIP3    H1 5127   1.896   0.871   2.608
 1707TIP3    H2 5128   1.921   0.854   2.459
 1708TIP3   OH2 5129   5.547   2.407   1.029
 1708TIP3    H1 5130   5.572   2.435   0.941
 1708TIP3    H2 5131   5.568   2.313   1.031
 1709TIP3   OH2 5132   5.584   4.887   1.446
 1709TIP3    H1 5133   5.514   4.826   1.420
 1709TIP3    H2 5134   5.593   4.946   1.371
 1710TIP3   OH2 5135   2.280   1.932   2.627
 1710TIP3    H1 5136   2.303   1.858   2.570
 1710TIP3    H2 5137   2.363   1.976   2.643
 1711TIP3   OH2 5138   3.052   5.757   0.798
 1711TIP3    H1 5139   3.038   5.828   0.862
 1711TIP3    H2 5140   3.057   5.802   0.714
 1712TIP3   OH2 5141   1.307   3.910   2.051
 1712TIP3    H1 5142   1.233   3.850   2.060
 1712TIP3    H2 5143   1.331   3.906   1.959
 1713TIP3   OH2 5144   6.062   4.769   2.681
 1713TIP3    H1 5145   6.128   4.758   2.612
 1713TIP3    H2 5146   5.981   4.789   2.635
 1714TIP3   OH2 5147   3.797   1.350   4.035
 1714TIP3    H1 5148   3.763   1.424   3.984
 1714TIP3    H2 5149   3.830   1.289   3.969
 1715TIP3   OH2 5150   3.041   4.634   1.769
 1715TIP3    H1 5151   2.951   4.609   1.749
 1715TIP3    H2 5152   3.082   4.554   1.801
 1716TIP3   OH2 5153   0.860   5.098   2.850
 1716TIP3    H1 5154   0.796   5.029   2.868
 1716TIP3    H2 5155   0.807   5.175   2.832
 1717TIP3   OH2 5156   1.580   0.156   1.382
 1717TIP3    H1 5157   1.613   0.171   1.294
 1717TIP3    H2 5158   1.544   0.241   1.409
 1718TIP3   OH2 5159   0.599   2.225   3.536
 1718TIP3    H1 5160   0.572   2.309   3.497
 1718TIP3    H2 5161   0.634   2.175   3.462
 1719TIP3   OH2 5162   3.238   1.879   4.510
 1719TIP3    H1 5163   3.314   1.937   4.508
 1719TIP3    H2 5164   3.275   1.791   4.508
 1720TIP3   OH2 5165   5.393   4.800   1.927
 1720TIP3    H1 5166   5.396   4.705   1.922
 1720TIP3    H2 5167   5.430   4.821   2.013
 1721TIP3   OH2 5168   2.983   3.172   3.239
 1721TIP3    H1 5169   2.969   3.251   3.188
 1721TIP3    H2 5170   2.945   3.191   3.325
 1722TIP3   OH2 5171   4.824   5.684   2.097
 1722TIP3    H1 5172   4.887   5.754   2.082
 1722TIP3    H2 5173   4.817   5.639   2.013
 1723TIP3   OH2 5174   0.749   2.128   3.320
 1723TIP3    H1 5175   0.820   2.063   3.321
 1723TIP3    H2 5176   0.792   2.212   3.306
 1724TIP3   OH2 5177   4.382   1.497   2.016
 1724TIP3    H1 5178   4.360   1.519   1.926
 1724TIP3    H2 5179   4.476   1.514   2.022
 1725TIP3   OH2 5180   0.615   5.857   3.351
 1725TIP3    H1 5181   0.704   5.846   3.383
 1725TIP3    H2 5182   0.562   5.798   3.404
 1726TIP3   OH2 5183   4.783   3.964   0.035
 1726TIP3    H1 5184   4.820   3.888  -0.010
 1726TIP3    H2 5185   4.813   3.956   0.125
 1727TIP3   OH2 5186   4.284   1.255   1.174
 1727TIP3    H1 5187   4.280   1.348   1.196
 1727TIP3    H2 5188   4.204   1.238   1.124
 1728TIP3   OH2 5189   3.685   4.502   0.843
 1728TIP3    H1 5190   3.638   4.585   0.846
 1728TIP3    H2 5191   3.698   4.484   0.750
 1729TIP3   OH2 5192   5.431   1.636   3.739
 1729TIP3    H1 5193   5.376   1.684   3.801
 1729TIP3    H2 5194   5.515   1.680   3.741
 1730TIP3   OH2 5195   4.452   0.486   0.975
 1730TIP3    H1 5196   4.514   0.429   1.021
 1730TIP3    H2 5197   4.427   0.436   0.897
 1731TIP3   OH2 5198   1.997   4.258   1.016
 1731TIP3    H1 5199   1.979   4.249   0.922
 1731TIP3    H2 5200   2.008   4.352   1.030
 1732TIP3   OH2 5201   2.182   0.186   2.428
 1732TIP3    H1 5202   2.221   0.258   2.477
 1732TIP3    H2 5203   2.101   0.221   2.391
 1733TIP3   OH2 5204   0.334   2.403   0.416
 1733TIP3    H1 5205   0.305   2.447   0.496
 1733TIP3    H2 5206   0.323   2.310   0.435
 1734TIP3   OH2 5207   5.724   1.185   2.999
 1734TIP3    H1 5208   5.708   1.091   2.991
 1734TIP3    H2 5209   5.644   1.220   3.038
 1735TIP3   OH2 5210   6.087   0.479   2.448
 1735TIP3    H1 5211   6.042   0.548   2.400
 1735TIP3    H2 5212   6.169   0.520   2.478
 1736TIP3   OH2 5213   3.674   1.913   0.524
 1736TIP3    H1 5214   3.642   1.938   0.611
 1736TIP3    H2 5215   3.631   1.829   0.506
 1737TIP3   OH2 5216   5.515   0.971   4.256
 1737TIP3    H1 5217   5.584   0.977   4.190
 1737TIP3    H2 5218   5.505   1.061   4.288
 1738TIP3   OH2 5219   5.703   5.691   3.656
 1738TIP3    H1 5220   5.766   5.645   3.600
 1738TIP3    H2 5221   5.731   5.783   3.652
 1739TIP3   OH2 5222   3.713   0.247   4.874
 1739TIP3    H1 5223   3.657   0.177   4.840
 1739TIP3    H2 5224   3.747   0.212   4.957
 1740TIP3   OH2 5225   0.664   4.739   4.583
 1740TIP3    H1 5226   0.667   4.831   4.609
 1740TIP3    H2 5227   0.595   4.701   4.637
 1741TIP3   OH2 5228   5.437   3.192   3.374
 1741TIP3    H1 5229   5.342   3.196   3.387
 1741TIP3    H2 5230   5.467   3.127   3.436
 1742TIP3   OH2 5231   5.769   4.966   0.322
 1742TIP3    H1 5232   5.771   5.036   0.388
 1742TIP3    H2 5233   5.734   5.009   0.244
 1743TIP3   OH2 5234   5.148   3.323   3.948
 1743TIP3    H1 5235   5.210   3.393   3.927
 1743TIP3    H2 5236   5.148   3.267   3.871
 1744TIP3   OH2 5237   1.092   4.293   3.363
 1744TIP3    H1 5238   1.069   4.274   3.272
 1744TIP3    H2 5239   1.184   4.320   3.360
 1745TIP3   OH2 5240   1.681   2.247   2.144
 1745TIP3    H1 5241   1.740   2.232   2.070
 1745TIP3    H2 5242   1.710   2.185   2.211
 1746TIP3   OH2 5243   3.163   0.067   3.032
 1746TIP3    H1 5244   3.114   0.089   2.953
 1746TIP3    H2 5245   3.170   0.149   3.080
 1747TIP3   OH2 5246   2.570   4.129   2.714
 1747TIP3    H1 5247   2.665   4.138   2.720
 1747TIP3    H2 5248   2.556   4.063   2.647
 1748TIP3   OH2 5249   2.298   3.505   2.499
 1748TIP3    H1 5250   2.324   3.588   2.457
 1748TIP3    H2 5251   2.250   3.531   2.577
 1749TIP3   OH2 5252   1.401   2.806   2.676
 1749TIP3    H1 5253   1.454   2.839   2.603
 1749TIP3    H2 5254   1.422   2.713   2.680
 1750TIP3   OH2 5255   4.745   4.169   0.356
 1750TIP3    H1 5256   4.777   4.255   0.330
 1750TIP3    H2 5257   4.651   4.181   0.370
 1751TIP3   OH2 5258   3.831   1.294   0.072
 1751TIP3    H1 5259   3.864   1.216   0.028
 1751TIP3    H2 5260   3.908   1.331   0.116
 1752TIP3   OH2 5261   6.271   3.210   4.663
 1752TIP3    H1 5262   6.275   3.162   4.581
 1752TIP3    H2 5263   6.205   3.164   4.715
 1753TIP3   OH2 5264   2.252   2.863   0.174
 1753TIP3    H1 5265   2.336   2.880   0.216
 1753TIP3    H2 5266   2.188   2.906   0.230
 1754TIP3   OH2 5267   5.925   0.674   5.162
 1754TIP3    H1 5268   5.849   0.684   5.220
 1754TIP3    H2 5269   5.890   0.635   5.082
 1755TIP3   OH2 5270   0.666   2.178   0.317
 1755TIP3    H1 5271   0.722   2.109   0.280
 1755TIP3    H2 5272   0.639   2.230   0.241
 1756TIP3   OH2 5273   1.552   0.031   0.662
 1756TIP3    H1 5274   1.496   0.077   0.724
 1756TIP3    H2 5275   1.633   0.014   0.710
 1757TIP3   OH2 5276   0.444   4.719   2.796
 1757TIP3    H1 5277   0.510   4.672   2.745
 1757TIP3    H2 5278   0.472   4.810   2.795
 1758TIP3   OH2 5279   0.157   2.626   2.940
 1758TIP3    H1 5280   0.220   2.560   2.910
 1758TIP3    H2 5281   0.072   2.584   2.931
 1759TIP3   OH2 5282   2.365   2.708   0.916
 1759TIP3    H1 5283   2.292   2.755   0.875
 1759TIP3    H2 5284   2.357   2.618   0.884
 1760TIP3   OH2 5285   3.678   1.910   2.693
 1760TIP3    H1 5286   3.587   1.894   2.668
 1760TIP3    H2 5287   3.674   1.982   2.755
 1761TIP3   OH2 5288   1.744   1.102   4.256
 1761TIP3    H1 5289   1.704   1.164   4.195
 1761TIP3    H2 5290   1.838   1.110   4.238
 1762TIP3   OH2 5291   0.068   5.910   2.570
 1762TIP3    H1 5292   0.050   5.857   2.492
 1762TIP3    H2 5293   0.096   5.994   2.535
 1763TIP3   OH2 5294   1.274   4.981   3.518
 1763TIP3    H1 5295   1.208   4.964   3.585
 1763TIP3    H2 5296   1.244   4.932   3.442
 1764TIP3   OH2 5297   2.181   5.972   3.389
 1764TIP3    H1 5298   2.208   5.880   3.399
 1764TIP3    H2 5299   2.224   6.018   3.461
 1765TIP3   OH2 5300   0.986   0.246   3.858
 1765TIP3    H1 5301   1.004   0.336   3.882
 1765TIP3    H2 5302   0.891   0.243   3.845
 1766TIP3   OH2 5303   0.012   1.716   0.558
 1766TIP3    H1 5304   0.024   1.678   0.645
 1766TIP3    H2 5305  -0.068   1.768   0.567
 1767TIP3   OH2 5306   3.259   5.960   1.626
 1767TIP3    H1 5307   3.328   6.026   1.638
 1767TIP3    H2 5308   3.258   5.911   1.708
 1768TIP3   OH2 5309   2.559   4.176   1.447
 1768TIP3    H1 5310   2.482   4.120   1.437
 1768TIP3    H2 5311   2.614   4.130   1.511
 1769TIP3   OH2 5312   5.697   2.602   0.363
 1769TIP3    H1 5313   5.703   2.507   0.356
 1769TIP3    H2 5314   5.606   2.621   0.340
 1770TIP3   OH2 5315   4.491   4.721   4.718
 1770TIP3    H1 5316   4.487   4.625   4.715
 1770TIP3    H2 5317   4.431   4.750   4.649
 1771TIP3   OH2 5318   1.418   3.828   1.771
 1771TIP3    H1 5319   1.394   3.849   1.681
 1771TIP3    H2 5320   1.396   3.735   1.781
 1772TIP3   OH2 5321   5.164   4.643   3.365
 1772TIP3    H1 5322   5.098   4.575   3.350
 1772TIP3    H2 5323   5.114   4.719   3.392
 1773TIP3   OH2 5324   2.843   1.740   4.743
 1773TIP3    H1 5325   2.856   1.821   4.793
 1773TIP3    H2 5326   2.931   1.716   4.714
 1774TIP3   OH2 5327   2.545   5.963   1.004
 1774TIP3    H1 5328   2.547   6.020   1.081
 1774TIP3    H2 5329   2.481   5.895   1.027
 1775TIP3   OH2 5330   1.769   0.550   3.642
 1775TIP3    H1 5331   1.799   0.507   3.562
 1775TIP3    H2 5332   1.749   0.477   3.702
 1776TIP3   OH2 5333   0.528   1.273   0.324
 1776TIP3    H1 5334   0.489   1.289   0.239
 1776TIP3    H2 5335   0.495   1.343   0.380
 1777TIP3   OH2 5336   5.674   2.936   4.421
 1777TIP3    H1 5337   5.710   2.949   4.333
 1777TIP3    H2 5338   5.580   2.956   4.411
 1778TIP3   OH2 5339   6.355   2.812   3.885
 1778TIP3    H1 5340   6.329   2.902   3.904
 1778TIP3    H2 5341   6.336   2.800   3.792
 1779TIP3   OH2 5342   3.368   5.215   2.718
 1779TIP3    H1 5343   3.376   5.172   2.803
 1779TIP3    H2 5344   3.368   5.309   2.738
 1780TIP3   OH2 5345   5.064   4.468   1.044
 1780TIP3    H1 5346   5.118   4.391   1.026
 1780TIP3    H2 5347   5.001   4.470   0.973
 1781TIP3   OH2 5348   0.557   3.729   0.481
 1781TIP3    H1 5349   0.549   3.731   0.576
 1781TIP3    H2 5350   0.597   3.644   0.462
 1782TIP3   OH2 5351   5.498   0.492   1.546
 1782TIP3    H1 5352   5.432   0.472   1.611
 1782TIP3    H2 5353   5.559   0.551   1.590
 1783TIP3   OH2 5354   3.854   2.318   2.101
 1783TIP3    H1 5355   3.787   2.308   2.168
 1783TIP3    H2 5356   3.937   2.312   2.149
 1784TIP3   OH2 5357   2.283   4.729   4.812
 1784TIP3    H1 5358   2.346   4.786   4.856
 1784TIP3    H2 5359   2.336   4.675   4.753
 1785TIP3   OH2 5360   2.919   5.921   2.103
 1785TIP3    H1 5361   2.968   5.840   2.118
 1785TIP3    H2 5362   2.987   5.987   2.089
 1786TIP3   OH2 5363   2.294   2.552   2.353
 1786TIP3    H1 5364   2.220   2.597   2.312
 1786TIP3    H2 5365   2.310   2.601   2.434
 1787TIP3   OH2 5366   5.896   0.265   0.123
 1787TIP3    H1 5367   5.844   0.252   0.202
 1787TIP3    H2 5368   5.859   0.343   0.082
 1788TIP3   OH2 5369   5.679   1.945   4.818
 1788TIP3    H1 5370   5.687   2.037   4.841
 1788TIP3    H2 5371   5.750   1.902   4.865
 1789TIP3   OH2 5372   4.341   2.160   4.931
 1789TIP3    H1 5373   4.374   2.107   4.859
 1789TIP3    H2 5374   4.252   2.127   4.947
 1790TIP3   OH2 5375   4.877   4.996   0.066
 1790TIP3    H1 5376   4.855   4.905   0.088
 1790TIP3    H2 5377   4.886   4.996  -0.029
 1791TIP3   OH2 5378   0.557   3.998   2.805
 1791TIP3    H1 5379   0.484   4.051   2.774
 1791TIP3    H2 5380   0.516   3.926   2.854
 1792TIP3   OH2 5381   5.805   2.930   0.218
 1792TIP3    H1 5382   5.850   2.855   0.181
 1792TIP3    H2 5383   5.869   2.969   0.278
 1793TIP3   OH2 5384   1.411   0.135   2.785
 1793TIP3    H1 5385   1.413   0.212   2.842
 1793TIP3    H2 5386   1.330   0.090   2.809
 1794TIP3   OH2 5387   5.416   1.856   3.193
 1794TIP3    H1 5388   5.479   1.862   3.122
 1794TIP3    H2 5389   5.364   1.936   3.187
 1795TIP3   OH2 5390   1.153   5.242   4.680
 1795TIP3    H1 5391   1.145   5.277   4.769
 1795TIP3    H2 5392   1.063   5.223   4.654
 1796TIP3   OH2 5393   5.064   1.030   3.152
 1796TIP3    H1 5394   5.052   1.125   3.151
 1796TIP3    H2 5395   5.110   1.011   3.070
 1797TIP3   OH2 5396   2.961   2.979   0.076
 1797TIP3    H1 5397   2.892   3.039   0.106
 1797TIP3    H2 5398   2.935   2.893   0.110
 1798TIP3   OH2 5399   3.981   1.103   1.468
 1798TIP3    H1 5400   3.976   1.174   1.532
 1798TIP3    H2 5401   3.890   1.088   1.442
 1799TIP3   OH2 5402   4.692   1.234   0.391
 1799TIP3    H1 5403   4.756   1.163   0.386
 1799TIP3    H2 5404   4.655   1.239   0.303
 1800TIP3   OH2 5405   3.480   2.383   2.936
 1800TIP3    H1 5406   3.504   2.471   2.967
 1800TIP3    H2 5407   3.469   2.332   3.015
 1801TIP3   OH2 5408   3.203   1.547   3.966
 1801TIP3    H1 5409   3.189   1.513   4.054
 1801TIP3    H2 5410   3.288   1.512   3.939
 1802TIP3   OH2 5411   2.268   1.767   1.708
 1802TIP3    H1 5412   2.269   1.722   1.792
 1802TIP3    H2 5413   2.211   1.714   1.652
 1803TIP3   OH2 5414   1.783   5.683   0.953
 1803TIP3    H1 5415   1.875   5.692   0.976
 1803TIP3    H2 5416   1.745   5.770   0.969
 1804TIP3   OH2 5417   0.974   5.944   4.388
 1804TIP3    H1 5418   0.888   5.984   4.403
 1804TIP3    H2 5419   1.019   5.952   4.472
 1805TIP3   OH2 5420   1.837   0.824   0.268
 1805TIP3    H1 5421   1.888   0.864   0.338
 1805TIP3    H2 5422   1.747   0.826   0.299
 1806TIP3   OH2 5423   4.401   4.958   2.954
 1806TIP3    H1 5424   4.358   4.969   3.039
 1806TIP3    H2 5425   4.394   5.044   2.912
 1807TIP3   OH2 5426   1.380   0.679   1.625
 1807TIP3    H1 5427   1.341   0.612   1.569
 1807TIP3    H2 5428   1.434   0.630   1.687
 1808TIP3   OH2 5429   5.413   5.580   1.786
 1808TIP3    H1 5430   5.407   5.652   1.723
 1808TIP3    H2 5431   5.328   5.582   1.832
 1809TIP3   OH2 5432   0.243   3.542   4.131
 1809TIP3    H1 5433   0.247   3.505   4.220
 1809TIP3    H2 5434   0.249   3.466   4.074
 1810TIP3   OH2 5435   6.171   3.378   1.201
 1810TIP3    H1 5436   6.099   3.437   1.222
 1810TIP3    H2 5437   6.247   3.435   1.190
 1811TIP3   OH2 5438   5.131   3.910   1.356
 1811TIP3    H1 5439   5.218   3.946   1.372
 1811TIP3    H2 5440   5.071   3.985   1.363
 1812TIP3   OH2 5441   3.665   4.571   4.985
 1812TIP3    H1 5442   3.745   4.522   5.004
 1812TIP3    H2 5443   3.662   4.640   5.051
 1813TIP3   OH2 5444   5.834   3.338   2.638
 1813TIP3    H1 5445   5.779   3.391   2.581
 1813TIP3    H2 5446   5.834   3.385   2.722
 1814TIP3   OH2 5447   2.730   3.173   2.461
 1814TIP3    H1 5448   2.736   3.126   2.544
 1814TIP3    H2 5449   2.820   3.199   2.442
 1815TIP3   OH2 5450   4.046   4.827   4.059
 1815TIP3    H1 5451   4.073   4.736   4.044
 1815TIP3    H2 5452   4.012   4.857   3.975
 1816TIP3   OH2 5453   5.997   4.211   2.552
 1816TIP3    H1 5454   6.021   4.265   2.627
 1816TIP3    H2 5455   6.008   4.121   2.583
 1817TIP3   OH2 5456   4.621   3.537   2.067
 1817TIP3    H1 5457   4.642   3.625   2.099
 1817TIP3    H2 5458   4.636   3.541   1.972
 1818TIP3   OH2 5459   4.898   2.122   2.715
 1818TIP3    H1 5460   4.919   2.215   2.728
 1818TIP3    H2 5461   4.857   2.119   2.628
 1819TIP3   OH2 5462   5.838   5.799   1.057
 1819TIP3    H1 5463   5.834   5.895   1.060
 1819TIP3    H2 5464   5.914   5.780   1.001
 1820TIP3   OH2 5465   4.828   2.669   1.020
 1820TIP3    H1 5466   4.828   2.590   0.966
 1820TIP3    H2 5467   4.850   2.638   1.108
 1821TIP3   OH2 5468   2.973   5.597   4.125
 1821TIP3    H1 5469   2.994   5.587   4.218
 1821TIP3    H2 5470   3.057   5.614   4.083
 1822TIP3   OH2 5471   0.254   3.217   4.444
 1822TIP3    H1 5472   0.247   3.138   4.497
 1822TIP3    H2 5473   0.180   3.212   4.383
 1823TIP3   OH2 5474   2.095   4.366   3.514
 1823TIP3    H1 5475   2.019   4.409   3.553
 1823TIP3    H2 5476   2.057   4.294   3.463
 1824TIP3   OH2 5477   4.263   4.304   5.063
 1824TIP3    H1 5478   4.354   4.281   5.079
 1824TIP3    H2 5479   4.219   4.219   5.053
 1825TIP3   OH2 5480   3.257   1.071   4.137
 1825TIP3    H1 5481   3.197   1.112   4.199
 1825TIP3    H2 5482   3.231   1.106   4.052
 1826TIP3   OH2 5483   0.348   4.605   1.018
 1826TIP3    H1 5484   0.308   4.672   1.075
 1826TIP3    H2 5485   0.415   4.565   1.073
 1827TIP3   OH2 5486   1.484   1.841   0.238
 1827TIP3    H1 5487   1.398   1.884   0.249
 1827TIP3    H2 5488   1.547   1.910   0.255
 1828TIP3   OH2 5489   5.514   2.035   4.154
 1828TIP3    H1 5490   5.447   2.100   4.132
 1828TIP3    H2 5491   5.465   1.956   4.175
 1829TIP3   OH2 5492   1.936   2.804   2.849
 1829TIP3    H1 5493   2.026   2.826   2.875
 1829TIP3    H2 5494   1.930   2.833   2.758
 1830TIP3   OH2 5495   5.336   1.162   3.722
 1830TIP3    H1 5496   5.274   1.091   3.708
 1830TIP3    H2 5497   5.337   1.210   3.639
 1831TIP3   OH2 5498   4.572   5.653   5.177
 1831TIP3    H1 5499   4.534   5.663   5.264
 1831TIP3    H2 5500   4.587   5.559   5.167
 1832TIP3   OH2 5501   3.482   0.109   0.839
 1832TIP3    H1 5502   3.430   0.128   0.760
 1832TIP3    H2 5503   3.572   0.108   0.808
 1833TIP3   OH2 5504   1.841   2.560   0.301
 1833TIP3    H1 5505   1.851   2.629   0.236
 1833TIP3    H2 5506   1.926   2.554   0.344
 1834TIP3   OH2 5507   5.004   1.860   0.189
 1834TIP3    H1 5508   5.041   1.774   0.165
 1834TIP3    H2 5509   5.013   1.864   0.284
 1835TIP3   OH2 5510   4.072   3.562   4.995
 1835TIP3    H1 5511   4.107   3.576   5.082
 1835TIP3    H2 5512   4.131   3.497   4.955
 1836TIP3   OH2 5513   2.806   2.129   0.190
 1836TIP3    H1 5514   2.872   2.187   0.152
 1836TIP3    H2 5515   2.725   2.153   0.145
 1837TIP3   OH2 5516   0.878   5.393   2.933
 1837TIP3    H1 5517   0.811   5.410   2.867
 1837TIP3    H2 5518   0.948   5.455   2.913
 1838TIP3   OH2 5519   6.220   0.353   4.987
 1838TIP3    H1 5520   6.292   0.290   4.980
 1838TIP3    H2 5521   6.186   0.361   4.897
 1839TIP3   OH2 5522   1.427   5.729   4.886
 1839TIP3    H1 5523   1.492   5.736   4.816
 1839TIP3    H2 5524   1.475   5.691   4.959
 1840TIP3   OH2 5525   0.711   5.405   4.318
 1840TIP3    H1 5526   0.692   5.498   4.329
 1840TIP3    H2 5527   0.804   5.397   4.335
 1841TIP3   OH2 5528   5.994   0.773   1.904
 1841TIP3    H1 5529   5.935   0.719   1.957
 1841TIP3    H2 5530   6.035   0.712   1.843
 1842TIP3   OH2 5531   0.712   1.165   4.096
 1842TIP3    H1 5532   0.652   1.144   4.025
 1842TIP3    H2 5533   0.764   1.086   4.108
 1843TIP3   OH2 5534   1.072   3.552   1.587
 1843TIP3    H1 5535   0.994   3.544   1.642
 1843TIP3    H2 5536   1.063   3.639   1.547
 1844TIP3   OH2 5537   2.148   3.851   1.839
 1844TIP3    H1 5538   2.134   3.929   1.786
 1844TIP3    H2 5539   2.213   3.878   1.905
 1845TIP3   OH2 5540   1.051   3.458   3.292
 1845TIP3    H1 5541   1.020   3.438   3.380
 1845TIP3    H2 5542   1.115   3.390   3.273
 1846TIP3   OH2 5543   4.936   1.889   3.024
 1846TIP3    H1 5544   4.960   1.946   3.097
 1846TIP3    H2 5545   4.919   1.804   3.066
 1847TIP3   OH2 5546   2.333   0.437   2.303
 1847TIP3    H1 5547   2.315   0.509   2.243
 1847TIP3    H2 5548   2.250   0.421   2.347
 1848TIP3   OH2 5549   4.568   6.009   2.283
 1848TIP3    H1 5550   4.619   5.989   2.204
 1848TIP3    H2 5551   4.634   6.032   2.349
 1849TIP3   OH2 5552   0.350   3.453   0.192
 1849TIP3    H1 5553   0.397   3.401   0.257
 1849TIP3    H2 5554   0.360   3.543   0.222
 1850TIP3   OH2 5555   4.463   0.818   1.729
 1850TIP3    H1 5556   4.376   0.842   1.763
 1850TIP3    H2 5557   4.465   0.855   1.641
 1851TIP3   OH2 5558   1.421   3.961   5.170
 1851TIP3    H1 5559   1.375   3.898   5.115
 1851TIP3    H2 5560   1.425   4.041   5.118
 1852TIP3   OH2 5561   1.908   2.589   3.390
 1852TIP3    H1 5562   1.908   2.680   3.422
 1852TIP3    H2 5563   1.890   2.596   3.297
 1853TIP3   OH2 5564   0.958   1.866   5.024
 1853TIP3    H1 5565   0.867   1.843   5.005
 1853TIP3    H2 5566   0.978   1.819   5.105
 1854TIP3   OH2 5567   2.815   5.059   1.461
 1854TIP3    H1 5568   2.725   5.038   1.436
 1854TIP3    H2 5569   2.816   5.155   1.470
 1855TIP3   OH2 5570   0.417   2.509   1.504
 1855TIP3    H1 5571   0.498   2.513   1.556
 1855TIP3    H2 5572   0.443   2.468   1.422
 1856TIP3   OH2 5573   0.519   1.215   2.271
 1856TIP3    H1 5574   0.594   1.155   2.274
 1856TIP3    H2 5575   0.442   1.158   2.275
 1857TIP3   OH2 5576   4.988   1.895   3.496
 1857TIP3    H1 5577   5.065   1.900   3.553
 1857TIP3    H2 5578   4.915   1.923   3.551
 1858TIP3   OH2 5579   3.214   5.764   4.086
 1858TIP3    H1 5580   3.172   5.846   4.059
 1858TIP3    H2 5581   3.285   5.751   4.024
 1859TIP3   OH2 5582   3.378   5.890   0.388
 1859TIP3    H1 5583   3.291   5.855   0.370
 1859TIP3    H2 5584   3.412   5.916   0.302
 1860TIP3   OH2 5585   1.782   2.618   4.011
 1860TIP3    H1 5586   1.721   2.616   4.084
 1860TIP3    H2 5587   1.756   2.545   3.955
 1861TIP3   OH2 5588   2.820   5.608   3.404
 1861TIP3    H1 5589   2.902   5.637   3.364
 1861TIP3    H2 5590   2.786   5.541   3.345
 1862TIP3   OH2 5591   1.195   2.130   4.297
 1862TIP3    H1 5592   1.127   2.197   4.306
 1862TIP3    H2 5593   1.152   2.048   4.322
 1863TIP3   OH2 5594   1.144   5.809   4.803
 1863TIP3    H1 5595   1.236   5.813   4.828
 1863TIP3    H2 5596   1.136   5.729   4.752
 1864TIP3   OH2 5597   1.293   3.633   5.089
 1864TIP3    H1 5598   1.331   3.684   5.017
 1864TIP3    H2 5599   1.258   3.555   5.046
 1865TIP3   OH2 5600   4.846   3.103   4.124
 1865TIP3    H1 5601   4.932   3.073   4.093
 1865TIP3    H2 5602   4.784   3.038   4.090
 1866TIP3   OH2 5603   2.719   4.803   0.743
 1866TIP3    H1 5604   2.774   4.830   0.669
 1866TIP3    H2 5605   2.667   4.730   0.709
 1867TIP3   OH2 5606   2.328   3.692   1.363
 1867TIP3    H1 5607   2.267   3.636   1.412
 1867TIP3    H2 5608   2.343   3.645   1.281
 1868TIP3   OH2 5609   6.248   5.796   1.397
 1868TIP3    H1 5610   6.166   5.829   1.436
 1868TIP3    H2 5611   6.310   5.795   1.470
 1869TIP3   OH2 5612   4.093   5.071   4.650
 1869TIP3    H1 5613   4.103   4.986   4.693
 1869TIP3    H2 5614   4.029   5.056   4.581
 1870TIP3   OH2 5615   0.388   0.761   5.015
 1870TIP3    H1 5616   0.318   0.702   5.042
 1870TIP3    H2 5617   0.465   0.705   5.004
 1871TIP3   OH2 5618   4.251   2.392   1.077
 1871TIP3    H1 5619   4.232   2.350   0.994
 1871TIP3    H2 5620   4.341   2.424   1.068
 1872TIP3   OH2 5621   4.278   5.583   3.486
 1872TIP3    H1 5622   4.264   5.631   3.404
 1872TIP3    H2 5623   4.334   5.640   3.538
 1873TIP3   OH2 5624   2.564   5.230   4.453
 1873TIP3    H1 5625   2.603   5.310   4.488
 1873TIP3    H2 5626   2.578   5.236   4.358
 1874TIP3   OH2 5627   4.590   1.284   0.639
 1874TIP3    H1 5628   4.634   1.232   0.572
 1874TIP3    H2 5629   4.657   1.343   0.672
 1875TIP3   OH2 5630   6.237   0.453   4.177
 1875TIP3    H1 5631   6.189   0.478   4.098
 1875TIP3    H2 5632   6.177   0.396   4.224
 1876TIP3   OH2 5633   6.336   3.668   1.833
 1876TIP3    H1 5634   6.385   3.681   1.752
 1876TIP3    H2 5635   6.244   3.671   1.807
 1877TIP3   OH2 5636   4.029   2.435   0.052
 1877TIP3    H1 5637   3.972   2.382  -0.004
 1877TIP3    H2 5638   4.001   2.414   0.141
 1878TIP3   OH2 5639   2.814   3.430   4.800
 1878TIP3    H1 5640   2.813   3.525   4.793
 1878TIP3    H2 5641   2.889   3.410   4.856
 1879TIP3   OH2 5642   0.720   4.103   2.171
 1879TIP3    H1 5643   0.751   4.034   2.113
 1879TIP3    H2 5644   0.796   4.127   2.224
 1880TIP3   OH2 5645   5.432   5.444   4.224
 1880TIP3    H1 5646   5.461   5.411   4.139
 1880TIP3    H2 5647   5.409   5.365   4.273
 1881TIP3   OH2 5648   3.281   1.184   1.926
 1881TIP3    H1 5649   3.294   1.199   2.020
 1881TIP3    H2 5650   3.201   1.131   1.921
 1882TIP3   OH2 5651   1.817   0.575   4.276
 1882TIP3    H1 5652   1.746   0.634   4.253
 1882TIP3    H2 5653   1.890   0.632   4.299
 1883TIP3   OH2 5654   5.355   1.921   1.831
 1883TIP3    H1 5655   5.438   1.942   1.874
 1883TIP3    H2 5656   5.323   2.005   1.798
 1884TIP3   OH2 5657   3.071   3.114   0.342
 1884TIP3    H1 5658   3.102   3.203   0.324
 1884TIP3    H2 5659   3.000   3.100   0.278
 1885TIP3   OH2 5660   2.929   2.179   4.929
 1885TIP3    H1 5661   2.906   2.268   4.959
 1885TIP3    H2 5662   2.905   2.178   4.836
 1886TIP3   OH2 5663   2.414   1.244   2.971
 1886TIP3    H1 5664   2.465   1.163   2.965
 1886TIP3    H2 5665   2.463   1.300   3.031
 1887TIP3   OH2 5666   3.416   1.645   4.484
 1887TIP3    H1 5667   3.484   1.688   4.535
 1887TIP3    H2 5668   3.392   1.569   4.536
 1888TIP3   OH2 5669   1.373   4.817   0.167
 1888TIP3    H1 5670   1.448   4.875   0.151
 1888TIP3    H2 5671   1.411   4.741   0.211
 1889TIP3   OH2 5672   5.489   4.539   3.824
 1889TIP3    H1 5673   5.522   4.628   3.834
 1889TIP3    H2 5674   5.517   4.513   3.737
 1890TIP3   OH2 5675   2.274   5.140   2.157
 1890TIP3    H1 5676   2.305   5.147   2.247
 1890TIP3    H2 5677   2.249   5.048   2.147
 1891TIP3   OH2 5678   0.463   5.113   5.158
 1891TIP3    H1 5679   0.396   5.140   5.220
 1891TIP3    H2 5680   0.546   5.137   5.200
 1892TIP3   OH2 5681   6.118   3.479   0.519
 1892TIP3    H1 5682   6.168   3.550   0.560
 1892TIP3    H2 5683   6.027   3.505   0.529
 1893TIP3   OH2 5684   5.374   3.286   4.284
 1893TIP3    H1 5685   5.435   3.305   4.355
 1893TIP3    H2 5686   5.301   3.347   4.297
 1894TIP3   OH2 5687   6.397   4.875   3.886
 1894TIP3    H1 5688   6.389   4.854   3.979
 1894TIP3    H2 5689   6.309   4.906   3.861
 1895TIP3   OH2 5690   3.443   0.199   4.151
 1895TIP3    H1 5691   3.349   0.213   4.144
 1895TIP3    H2 5692   3.455   0.159   4.238
 1896TIP3   OH2 5693   0.791   1.245   3.795
 1896TIP3    H1 5694   0.842   1.165   3.783
 1896TIP3    H2 5695   0.701   1.214   3.809
 1897TIP3   OH2 5696   3.372   3.170   4.462
 1897TIP3    H1 5697   3.424   3.110   4.409
 1897TIP3    H2 5698   3.319   3.113   4.518
 1898TIP3   OH2 5699   3.243   3.294   1.863
 1898TIP3    H1 5700   3.232   3.378   1.907
 1898TIP3    H2 5701   3.248   3.316   1.770
 1899TIP3   OH2 5702   4.465   3.226   4.521
 1899TIP3    H1 5703   4.371   3.246   4.518
 1899TIP3    H2 5704   4.501   3.268   4.443
 1900TIP3   OH2 5705   0.617   5.219   4.529
 1900TIP3    H1 5706   0.663   5.293   4.490
 1900TIP3    H2 5707   0.525   5.237   4.516
 1901TIP3   OH2 5708   3.583   4.741   0.122
 1901TIP3    H1 5709   3.667   4.718   0.083
 1901TIP3    H2 5710   3.589   4.836   0.136
 1902TIP3   OH2 5711   5.915   4.569   2.282
 1902TIP3    H1 5712   6.002   4.603   2.261
 1902TIP3    H2 5713   5.907   4.488   2.231
 1903TIP3   OH2 5714   3.489   3.433   1.130
 1903TIP3    H1 5715   3.582   3.453   1.132
 1903TIP3    H2 5716   3.452   3.495   1.068
 1904TIP3   OH2 5717   1.662   3.042   1.659
 1904TIP3    H1 5718   1.577   3.082   1.643
 1904TIP3    H2 5719   1.706   3.044   1.574
 1905TIP3   OH2 5720   5.396   5.190   0.528
 1905TIP3    H1 5721   5.390   5.225   0.440
 1905TIP3    H2 5722   5.338   5.246   0.580
 1906TIP3   OH2 5723   3.769   0.547   0.151
 1906TIP3    H1 5724   3.854   0.548   0.195
 1906TIP3    H2 5725   3.787   0.510   0.065
 1907TIP3   OH2 5726   3.048   5.842   0.543
 1907TIP3    H1 5727   3.106   5.855   0.469
 1907TIP3    H2 5728   2.973   5.899   0.525
 1908TIP3   OH2 5729   5.600   2.983   1.453
 1908TIP3    H1 5730   5.618   2.918   1.521
 1908TIP3    H2 5731   5.564   3.058   1.500
 1909TIP3   OH2 5732   1.597   4.771   2.968
 1909TIP3    H1 5733   1.673   4.714   2.977
 1909TIP3    H2 5734   1.598   4.799   2.877
 1910TIP3   OH2 5735   4.016   1.692   0.495
 1910TIP3    H1 5736   3.968   1.685   0.577
 1910TIP3    H2 5737   3.966   1.639   0.433
 1911TIP3   OH2 5738   0.483   3.087   1.063
 1911TIP3    H1 5739   0.470   3.090   1.158
 1911TIP3    H2 5740   0.448   3.171   1.032
 1912TIP3   OH2 5741   0.318   0.583   4.028
 1912TIP3    H1 5742   0.367   0.630   4.095
 1912TIP3    H2 5743   0.337   0.490   4.046
 1913TIP3   OH2 5744   6.193   3.718   0.622
 1913TIP3    H1 5745   6.129   3.789   0.615
 1913TIP3    H2 5746   6.245   3.725   0.542
 1914TIP3   OH2 5747   0.743   0.249   3.532
 1914TIP3    H1 5748   0.679   0.320   3.539
 1914TIP3    H2 5749   0.693   0.175   3.496
 1915TIP3   OH2 5750   4.110   5.262   4.393
 1915TIP3    H1 5751   4.199   5.251   4.362
 1915TIP3    H2 5752   4.068   5.177   4.378
 1916TIP3   OH2 5753   0.686   4.836   0.026
 1916TIP3    H1 5754   0.720   4.918  -0.010
 1916TIP3    H2 5755   0.627   4.863   0.096
 1917TIP3   OH2 5756   0.986   2.382   3.072
 1917TIP3    H1 5757   0.967   2.384   3.166
 1917TIP3    H2 5758   1.051   2.451   3.060
 1918TIP3   OH2 5759   4.995   1.481   4.682
 1918TIP3    H1 5760   5.073   1.496   4.734
 1918TIP3    H2 5761   4.922   1.499   4.741
 1919TIP3   OH2 5762   2.833   1.066   1.768
 1919TIP3    H1 5763   2.769   1.023   1.824
 1919TIP3    H2 5764   2.780   1.125   1.713
 1920TIP3   OH2 5765   1.654   4.077   2.859
 1920TIP3    H1 5766   1.582   4.118   2.810
 1920TIP3    H2 5767   1.617   3.993   2.888
 1921TIP3   OH2 5768   3.363   2.242   2.210
 1921TIP3    H1 5769   3.419   2.189   2.153
 1921TIP3    H2 5770   3.375   2.331   2.179
 1922TIP3   OH2 5771   5.426   5.385   5.083
 1922TIP3    H1 5772   5.376   5.311   5.118
 1922TIP3    H2 5773   5.378   5.462   5.114
 1923TIP3   OH2 5774   3.829   3.106   2.408
 1923TIP3    H1 5775   3.877   3.031   2.372
 1923TIP3    H2 5776   3.893   3.176   2.414
 1924TIP3   OH2 5777   4.309   1.189   0.058
 1924TIP3    H1 5778   4.273   1.242  -0.013
 1924TIP3    H2 5779   4.260   1.215   0.135
 1925TIP3   OH2 5780   2.931   2.566   0.912
 1925TIP3    H1 5781   3.009   2.619   0.930
 1925TIP3    H2 5782   2.859   2.629   0.912
 1926TIP3   OH2 5783   0.521   3.124   2.497
 1926TIP3    H1 5784   0.475   3.079   2.568
 1926TIP3    H2 5785   0.613   3.102   2.510
 1927TIP3   OH2 5786   1.735   3.722   2.740
 1927TIP3    H1 5787   1.774   3.684   2.662
 1927TIP3    H2 5788   1.806   3.723   2.804
 1928TIP3   OH2 5789   2.430   1.258   3.913
 1928TIP3    H1 5790   2.520   1.284   3.896
 1928TIP3    H2 5791   2.386   1.271   3.829
 1929TIP3   OH2 5792   2.434   3.328   2.319
 1929TIP3    H1 5793   2.381   3.281   2.255
 1929TIP3    H2 5794   2.370   3.378   2.371
 1930TIP3   OH2 5795   3.330   4.991   0.004
 1930TIP3    H1 5796   3.411   5.014   0.049
 1930TIP3    H2 5797   3.359   4.951  -0.078
 1931TIP3   OH2 5798   0.297   3.454   1.664
 1931TIP3    H1 5799   0.328   3.545   1.664
 1931TIP3    H2 5800   0.286   3.432   1.757
 1932TIP3   OH2 5801   1.829   1.827   1.275
 1932TIP3    H1 5802   1.827   1.890   1.203
 1932TIP3    H2 5803   1.774   1.866   1.342
 1933TIP3   OH2 5804   5.950   4.820   4.475
 1933TIP3    H1 5805   5.879   4.763   4.447
 1933TIP3    H2 5806   5.906   4.891   4.521
 1934TIP3   OH2 5807   3.852   2.618   4.031
 1934TIP3    H1 5808   3.814   2.706   4.038
 1934TIP3    H2 5809   3.787   2.568   3.982
 1935TIP3   OH2 5810   3.837   4.561   1.579
 1935TIP3    H1 5811   3.771   4.624   1.551
 1935TIP3    H2 5812   3.801   4.475   1.555
 1936TIP3   OH2 5813   4.319   0.143   4.230
 1936TIP3    H1 5814   4.259   0.154   4.156
 1936TIP3    H2 5815   4.347   0.052   4.225
 1937TIP3   OH2 5816   3.536   0.540   1.705
 1937TIP3    H1 5817   3.528   0.636   1.698
 1937TIP3    H2 5818   3.592   0.526   1.781
 1938TIP3   OH2 5819   5.687   3.830   4.048
 1938TIP3    H1 5820   5.635   3.845   3.969
 1938TIP3    H2 5821   5.716   3.740   4.041
 1939TIP3   OH2 5822   3.201   2.354   3.518
 1939TIP3    H1 5823   3.140   2.419   3.552
 1939TIP3    H2 5824   3.187   2.355   3.424
 1940TIP3   OH2 5825   5.947   0.827   3.086
 1940TIP3    H1 5826   5.898   0.830   3.004
 1940TIP3    H2 5827   6.038   0.842   3.059
 1941TIP3   OH2 5828   1.472   5.712   4.064
 1941TIP3    H1 5829   1.454   5.779   4.130
 1941TIP3    H2 5830   1.401   5.722   4.000
 1942TIP3   OH2 5831   0.110   1.806   2.683
 1942TIP3    H1 5832   0.148   1.795   2.770
 1942TIP3    H2 5833   0.083   1.718   2.657
 1943TIP3   OH2 5834   0.107   0.577   0.717
 1943TIP3    H1 5835   0.054   0.516   0.769
 1943TIP3    H2 5836   0.181   0.598   0.774
 1944TIP3   OH2 5837   5.452   4.425   2.314
 1944TIP3    H1 5838   5.444   4.506   2.364
 1944TIP3    H2 5839   5.366   4.384   2.319
 1945TIP3   OH2 5840   3.884   0.450   1.756
 1945TIP3    H1 5841   3.937   0.511   1.807
 1945TIP3    H2 5842   3.914   0.364   1.783
 1946TIP3   OH2 5843   2.684   4.835   5.127
 1946TIP3    H1 5844   2.654   4.873   5.044
 1946TIP3    H2 5845   2.776   4.815   5.111
 1947TIP3   OH2 5846   1.512   2.996   0.263
 1947TIP3    H1 5847   1.535   2.962   0.177
 1947TIP3    H2 5848   1.574   3.067   0.279
 1948TIP3   OH2 5849   5.089   4.210   2.077
 1948TIP3    H1 5850   5.127   4.292   2.044
 1948TIP3    H2 5851   5.130   4.142   2.024
 1949TIP3   OH2 5852   1.004   4.783   2.972
 1949TIP3    H1 5853   0.914   4.813   2.989
 1949TIP3    H2 5854   1.044   4.777   3.058
 1950TIP3   OH2 5855   5.743   5.471   2.913
 1950TIP3    H1 5856   5.663   5.520   2.898
 1950TIP3    H2 5857   5.812   5.538   2.916
 1951TIP3   OH2 5858   6.143   4.710   4.656
 1951TIP3    H1 5859   6.197   4.784   4.683
 1951TIP3    H2 5860   6.073   4.750   4.605
 1952TIP3   OH2 5861   3.154   3.956   0.896
 1952TIP3    H1 5862   3.133   4.037   0.850
 1952TIP3    H2 5863   3.224   3.981   0.957
 1953TIP3   OH2 5864   1.131   0.358   4.328
 1953TIP3    H1 5865   1.087   0.311   4.257
 1953TIP3    H2 5866   1.081   0.336   4.407
 1954TIP3   OH2 5867   0.437   3.793   2.631
 1954TIP3    H1 5868   0.513   3.841   2.664
 1954TIP3    H2 5869   0.420   3.829   2.544
 1955TIP3   OH2 5870   0.345   5.457   0.558
 1955TIP3    H1 5871   0.424   5.422   0.517
 1955TIP3    H2 5872   0.359   5.551   0.562
 1956TIP3   OH2 5873   2.789   1.775   2.901
 1956TIP3    H1 5874   2.754   1.756   2.814
 1956TIP3    H2 5875   2.715   1.812   2.949
 1957TIP3   OH2 5876   0.133   5.070   4.326
 1957TIP3    H1 5877   0.224   5.056   4.349
 1957TIP3    H2 5878   0.109   4.995   4.272
 1958TIP3   OH2 5879   0.540   5.284   4.127
 1958TIP3    H1 5880   0.593   5.329   4.192
 1958TIP3    H2 5881   0.569   5.193   4.131
 1959TIP3   OH2 5882   5.412   2.674   4.407
 1959TIP3    H1 5883   5.477   2.706   4.345
 1959TIP3    H2 5884   5.328   2.702   4.370
 1960TIP3   OH2 5885   4.178   4.796   1.827
 1960TIP3    H1 5886   4.272   4.786   1.816
 1960TIP3    H2 5887   4.143   4.795   1.738
 1961TIP3   OH2 5888   1.803   3.161   0.257
 1961TIP3    H1 5889   1.737   3.229   0.249
 1961TIP3    H2 5890   1.801   3.136   0.350
 1962TIP3   OH2 5891   0.276   1.163   1.322
 1962TIP3    H1 5892   0.309   1.169   1.232
 1962TIP3    H2 5893   0.322   1.233   1.368
 1963TIP3   OH2 5894   3.136   3.051   1.949
 1963TIP3    H1 5895   3.076   3.080   2.018
 1963TIP3    H2 5896   3.155   3.131   1.900
 1964TIP3   OH2 5897   0.596   5.573   5.127
 1964TIP3    H1 5898   0.634   5.629   5.059
 1964TIP3    H2 5899   0.576   5.633   5.199
 1965TIP3   OH2 5900   5.483   5.943   0.333
 1965TIP3    H1 5901   5.397   5.909   0.307
 1965TIP3    H2 5902   5.531   5.952   0.250
 1966TIP3   OH2 5903   1.216   4.327   2.806
 1966TIP3    H1 5904   1.263   4.378   2.871
 1966TIP3    H2 5905   1.124   4.333   2.832
 1967TIP3   OH2 5906   3.439   2.055   4.578
 1967TIP3    H1 5907   3.529   2.061   4.546
 1967TIP3    H2 5908   3.437   2.114   4.653
 1968TIP3   OH2 5909   2.934   5.482   4.663
 1968TIP3    H1 5910   2.934   5.545   4.736
 1968TIP3    H2 5911   3.014   5.431   4.675
 1969TIP3   OH2 5912   2.134   4.178   0.056
 1969TIP3    H1 5913   2.047   4.148   0.082
 1969TIP3    H2 5914   2.194   4.125   0.109
 1970TIP3   OH2 5915   5.177   2.811   0.664
 1970TIP3    H1 5916   5.178   2.805   0.569
 1970TIP3    H2 5917   5.153   2.902   0.682
 1971TIP3   OH2 5918   5.150   3.347   0.293
 1971TIP3    H1 5919   5.110   3.379   0.374
 1971TIP3    H2 5920   5.225   3.296   0.323
 1972TIP3   OH2 5921   3.366   4.842   4.690
 1972TIP3    H1 5922   3.417   4.770   4.725
 1972TIP3    H2 5923   3.372   4.832   4.595
 1973TIP3   OH2 5924   0.583   4.089   0.111
 1973TIP3    H1 5925   0.574   4.032   0.187
 1973TIP3    H2 5926   0.573   4.031   0.035
 1974TIP3   OH2 5927   2.464   3.386   0.155
 1974TIP3    H1 5928   2.390   3.446   0.148
 1974TIP3    H2 5929   2.424   3.303   0.183
 1975TIP3   OH2 5930   2.297   1.636   1.946
 1975TIP3    H1 5931   2.379   1.592   1.967
 1975TIP3    H2 5932   2.276   1.685   2.026
 1976TIP3   OH2 5933   2.655   0.099   4.155
 1976TIP3    H1 5934   2.656   0.008   4.183
 1976TIP3    H2 5935   2.642   0.149   4.235
 1977TIP3   OH2 5936   3.112   0.906   4.580
 1977TIP3    H1 5937   3.200   0.945   4.576
 1977TIP3    H2 5938   3.055   0.971   4.540
 1978TIP3   OH2 5939   2.704   3.832   2.804
 1978TIP3    H1 5940   2.643   3.893   2.846
 1978TIP3    H2 5941   2.736   3.777   2.876
 1979TIP3   OH2 5942   0.503   2.623   3.882
 1979TIP3    H1 5943   0.463   2.565   3.947
 1979TIP3    H2 5944   0.507   2.708   3.925
 1980TIP3   OH2 5945   1.965   1.139   1.830
 1980TIP3    H1 5946   1.901   1.161   1.763
 1980TIP3    H2 5947   1.981   1.045   1.819
 1981TIP3   OH2 5948   4.919   3.041   4.495
 1981TIP3    H1 5949   4.869   3.070   4.571
 1981TIP3    H2 5950   4.959   3.122   4.462
 1982TIP3   OH2 5951   3.936   0.994   2.164
 1982TIP3    H1 5952   3.951   0.997   2.258
 1982TIP3    H2 5953   3.844   1.015   2.153
 1983TIP3   OH2 5954   0.858   0.380   3.193
 1983TIP3    H1 5955   0.862   0.410   3.283
 1983TIP3    H2 5956   0.936   0.325   3.182
 1984TIP3   OH2 5957   2.808   5.716   5.204
 1984TIP3    H1 5958   2.786   5.733   5.295
 1984TIP3    H2 5959   2.725   5.687   5.164
 1985TIP3   OH2 5960   2.792   4.063   2.239
 1985TIP3    H1 5961   2.805   4.051   2.145
 1985TIP3    H2 5962   2.698   4.079   2.248
 1986TIP3   OH2 5963   1.190   3.377   4.933
 1986TIP3    H1 5964   1.161   3.352   5.021
 1986TIP3    H2 5965   1.276   3.337   4.923
 1987TIP3   OH2 5966   3.676   3.307   0.578
 1987TIP3    H1 5967   3.663   3.402   0.577
 1987TIP3    H2 5968   3.768   3.296   0.599
 1988TIP3   OH2 5969   5.218   1.890   3.648
 1988TIP3    H1 5970   5.192   1.902   3.739
 1988TIP3    H2 5971   5.308   1.858   3.653
 1989TIP3   OH2 5972   3.724   3.158   1.391
 1989TIP3    H1 5973   3.730   3.242   1.437
 1989TIP3    H2 5974   3.812   3.121   1.397
 1990TIP3   OH2 5975   2.263   2.992   5.093
 1990TIP3    H1 5976   2.311   2.962   5.016
 1990TIP3    H2 5977   2.202   3.058   5.059
 1991TIP3   OH2 5978   3.996   1.570   4.852
 1991TIP3    H1 5979   4.084   1.556   4.817
 1991TIP3    H2 5980   4.011   1.609   4.938
 1992TIP3   OH2 5981   2.717   6.007   5.071
 1992TIP3    H1 5982   2.740   5.984   4.981
 1992TIP3    H2 5983   2.707   5.923   5.115
 1993TIP3   OH2 5984   5.219   0.159   0.082
 1993TIP3    H1 5985   5.148   0.095   0.082
 1993TIP3    H2 5986   5.299   0.107   0.071
 1994TIP3   OH2 5987   0.457   3.572   1.916
 1994TIP3    H1 5988   0.391   3.555   1.984
 1994TIP3    H2 5989   0.510   3.643   1.951
 1995TIP3   OH2 5990   5.981   3.467   4.413
 1995TIP3    H1 5991   5.969   3.475   4.507
 1995TIP3    H2 5992   6.075   3.450   4.402
 1996TIP3   OH2 5993   3.181   4.216   0.491
 1996TIP3    H1 5994   3.254   4.160   0.516
 1996TIP3    H2 5995   3.136   4.167   0.423
 1997TIP3   OH2 5996   0.637   5.842   0.942
 1997TIP3    H1 5997   0.563   5.872   0.888
 1997TIP3    H2 5998   0.639   5.747   0.928
 1998TIP3   OH2 5999   4.369   5.161   4.546
 1998TIP3    H1 6000   4.292   5.121   4.587
 1998TIP3    H2 6001   4.335   5.202   4.466
 1999TIP3   OH2 6002   3.970   4.945   5.112
 1999TIP3    H1 6003   3.883   4.954   5.151
 1999TIP3    H2 6004   3.975   4.852   5.087
 2000TIP3   OH2 6005   0.096   4.165   2.189
 2000TIP3    H1 6006   0.034   4.092   2.188
 2000TIP3    H2 6007   0.080   4.209   2.272
 2001TIP3   OH2 6008   5.357   0.664   4.638
 2001TIP3    H1 6009   5.414   0.726   4.591
 2001TIP3    H2 6010   5.296   0.720   4.686
 2002TIP3   OH2 6011   2.204   5.274   3.148
 2002TIP3    H1 6012   2.284   5.326   3.142
 2002TIP3    H2 6013   2.135   5.338   3.166
 2003TIP3   OH2 6014   3.686   1.028   1.575
 2003TIP3    H1 6015   3.594   1.001   1.580
 2003TIP3    H2 6016   3.732   0.967   1.633
 2004TIP3   OH2 6017   1.915   5.465   1.486
 2004TIP3    H1 6018   1.857   5.423   1.423
 2004TIP3    H2 6019   1.863   5.471   1.566
 2005TIP3   OH2 6020   5.730   0.521   2.336
 2005TIP3    H1 6021   5.738   0.534   2.242
 2005TIP3    H2 6022   5.795   0.582   2.374
 2006TIP3   OH2 6023   1.726   4.857   2.647
 2006TIP3    H1 6024   1.700   4.937   2.694
 2006TIP3    H2 6025   1.676   4.860   2.565
 2007TIP3   OH2 6026   3.266   1.657   0.320
 2007TIP3    H1 6027   3.321   1.684   0.247
 2007TIP3    H2 6028   3.265   1.561   0.315
 2008TIP3   OH2 6029   0.692   1.203   1.221
 2008TIP3    H1 6030   0.637   1.280   1.236
 2008TIP3    H2 6031   0.762   1.235   1.164
 2009TIP3   OH2 6032   5.388   4.678   1.422
 2009TIP3    H1 6033   5.328   4.726   1.479
 2009TIP3    H2 6034   5.345   4.678   1.336
 2010TIP3   OH2 6035   5.036   4.327   4.422
 2010TIP3    H1 6036   4.954   4.299   4.463
 2010TIP3    H2 6037   5.100   4.260   4.447
 2011TIP3   OH2 6038   4.193   1.323   0.291
 2011TIP3    H1 6039   4.145   1.404   0.307
 2011TIP3    H2 6040   4.250   1.313   0.367
 2012TIP3   OH2 6041   2.163   3.647   0.445
 2012TIP3    H1 6042   2.182   3.575   0.384
 2012TIP3    H2 6043   2.125   3.603   0.521
 2013TIP3   OH2 6044   5.765   1.278   3.773
 2013TIP3    H1 6045   5.673   1.255   3.780
 2013TIP3    H2 6046   5.772   1.365   3.813
 2014TIP3   OH2 6047   0.673   5.720   4.835
 2014TIP3    H1 6048   0.716   5.786   4.888
 2014TIP3    H2 6049   0.744   5.671   4.794
 2015TIP3   OH2 6050   0.465   0.638   4.266
 2015TIP3    H1 6051   0.528   0.578   4.307
 2015TIP3    H2 6052   0.512   0.721   4.260
 2016TIP3   OH2 6053   1.099   0.622   0.576
 2016TIP3    H1 6054   1.035   0.675   0.622
 2016TIP3    H2 6055   1.082   0.638   0.483
 2017TIP3   OH2 6056   2.478   2.436   4.235
 2017TIP3    H1 6057   2.421   2.403   4.304
 2017TIP3    H2 6058   2.476   2.367   4.168
 2018TIP3   OH2 6059   3.378   1.446   1.341
 2018TIP3    H1 6060   3.369   1.540   1.360
 2018TIP3    H2 6061   3.297   1.407   1.375
 2019TIP3   OH2 6062   0.715   5.100   2.070
 2019TIP3    H1 6063   0.716   5.053   1.987
 2019TIP3    H2 6064   0.807   5.124   2.085
 2020TIP3   OH2 6065   0.708   0.110   1.850
 2020TIP3    H1 6066   0.766   0.167   1.798
 2020TIP3    H2 6067   0.632   0.095   1.794
 2021TIP3   OH2 6068   2.496   3.865   1.017
 2021TIP3    H1 6069   2.413   3.818   1.024
 2021TIP3    H2 6070   2.556   3.803   0.976
 2022TIP3   OH2 6071   2.257   0.886   5.113
 2022TIP3    H1 6072   2.243   0.885   5.207
 2022TIP3    H2 6073   2.239   0.796   5.085
 2023TIP3   OH2 6074   1.009   5.135   4.967
 2023TIP3    H1 6075   0.972   5.217   5.000
 2023TIP3    H2 6076   0.991   5.071   5.036
 2024TIP3   OH2 6077   0.023   3.478   1.573
 2024TIP3    H1 6078   0.050   3.443   1.658
 2024TIP3    H2 6079   0.105   3.494   1.526
 2025TIP3   OH2 6080   3.083   1.297   3.061
 2025TIP3    H1 6081   3.017   1.315   2.994
 2025TIP3    H2 6082   3.164   1.286   3.012
 2026TIP3   OH2 6083   4.530   5.719   1.353
 2026TIP3    H1 6084   4.503   5.675   1.273
 2026TIP3    H2 6085   4.624   5.735   1.341
 2027TIP3   OH2 6086   5.501   0.211   2.537
 2027TIP3    H1 6087   5.477   0.187   2.448
 2027TIP3    H2 6088   5.597   0.214   2.536
 2028TIP3   OH2 6089   2.912   1.938   0.573
 2028TIP3    H1 6090   2.884   1.886   0.648
 2028TIP3    H2 6091   2.986   1.889   0.537
 2029TIP3   OH2 6092   0.375   2.079   0.107
 2029TIP3    H1 6093   0.312   2.029   0.056
 2029TIP3    H2 6094   0.396   2.023   0.182
 2030TIP3   OH2 6095   6.251   0.120   4.135
 2030TIP3    H1 6096   6.261   0.028   4.158
 2030TIP3    H2 6097   6.182   0.152   4.194
 2031TIP3   OH2 6098   3.151   3.408   3.039
 2031TIP3    H1 6099   3.058   3.433   3.040
 2031TIP3    H2 6100   3.151   3.316   3.014
 2032TIP3   OH2 6101   2.718   5.705   0.766
 2032TIP3    H1 6102   2.689   5.697   0.675
 2032TIP3    H2 6103   2.813   5.713   0.761
 2033TIP3   OH2 6104   0.884   1.644   1.330
 2033TIP3    H1 6105   0.823   1.595   1.385
 2033TIP3    H2 6106   0.829   1.688   1.266
 2034TIP3   OH2 6107   0.812   1.334   4.696
 2034TIP3    H1 6108   0.749   1.275   4.737
 2034TIP3    H2 6109   0.890   1.329   4.752
 2035TIP3   OH2 6110   1.513   2.915   1.887
 2035TIP3    H1 6111   1.425   2.878   1.877
 2035TIP3    H2 6112   1.511   2.996   1.836
 2036TIP3   OH2 6113   5.208   1.492   4.190
 2036TIP3    H1 6114   5.245   1.419   4.139
 2036TIP3    H2 6115   5.262   1.494   4.269
 2037TIP3   OH2 6116   0.774   0.413   1.352
 2037TIP3    H1 6117   0.740   0.327   1.328
 2037TIP3    H2 6118   0.711   0.447   1.416
 2038TIP3   OH2 6119   0.900   2.755   1.350
 2038TIP3    H1 6120   0.980   2.754   1.404
 2038TIP3    H2 6121   0.829   2.771   1.413
 2039TIP3   OH2 6122   0.529   0.998   0.290
 2039TIP3    H1 6123   0.613   0.956   0.273
 2039TIP3    H2 6124   0.551   1.090   0.306
 2040TIP3   OH2 6125   2.178   2.023   4.997
 2040TIP3    H1 6126   2.164   1.937   4.958
 2040TIP3    H2 6127   2.101   2.039   5.051
 2041TIP3   OH2 6128   0.711   1.582   0.875
 2041TIP3    H1 6129   0.735   1.505   0.824
 2041TIP3    H2 6130   0.782   1.644   0.859
 2042TIP3   OH2 6131   5.339   3.838   4.881
 2042TIP3    H1 6132   5.408   3.775   4.861
 2042TIP3    H2 6133   5.326   3.888   4.800
 2043TIP3   OH2 6134   2.304   0.920   2.597
 2043TIP3    H1 6135   2.255   0.887   2.672
 2043TIP3    H2 6136   2.379   0.966   2.635
 2044TIP3   OH2 6137   5.839   0.555   3.652
 2044TIP3    H1 6138   5.928   0.584   3.676
 2044TIP3    H2 6139   5.798   0.535   3.736
 2045TIP3   OH2 6140   4.092   0.844   2.690
 2045TIP3    H1 6141   4.148   0.772   2.660
 2045TIP3    H2 6142   4.004   0.817   2.665
 2046TIP3   OH2 6143   2.184   4.926   3.707
 2046TIP3    H1 6144   2.088   4.919   3.711
 2046TIP3    H2 6145   2.215   4.844   3.746
 2047TIP3   OH2 6146   1.275   0.061   1.110
 2047TIP3    H1 6147   1.203  -0.002   1.110
 2047TIP3    H2 6148   1.286   0.084   1.202
 2048TIP3   OH2 6149   3.510   1.292   1.167
 2048TIP3    H1 6150   3.446   1.349   1.210
 2048TIP3    H2 6151   3.565   1.260   1.239
 2049TIP3   OH2 6152   2.224   1.415   2.552
 2049TIP3    H1 6153   2.281   1.349   2.592
 2049TIP3    H2 6154   2.136   1.392   2.581
 2050TIP3   OH2 6155   5.797   4.356   4.761
 2050TIP3    H1 6156   5.825   4.364   4.669
 2050TIP3    H2 6157   5.741   4.279   4.762
 2051TIP3   OH2 6158   0.337   3.368   2.546
 2051TIP3    H1 6159   0.382   3.290   2.579
 2051TIP3    H2 6160   0.335   3.356   2.451
 2052TIP3   OH2 6161   5.816   3.505   3.740
 2052TIP3    H1 6162   5.821   3.412   3.718
 2052TIP3    H2 6163   5.794   3.548   3.657
 2053TIP3   OH2 6164   2.394   4.678   4.100
 2053TIP3    H1 6165   2.381   4.677   4.195
 2053TIP3    H2 6166   2.407   4.586   4.076
 2054TIP3   OH2 6167   2.613   3.210   4.703
 2054TIP3    H1 6168   2.630   3.162   4.784
 2054TIP3    H2 6169   2.686   3.272   4.696
 2055TIP3   OH2 6170   5.386   3.306   0.760
 2055TIP3    H1 6171   5.459   3.367   0.749
 2055TIP3    H2 6172   5.372   3.302   0.855
 2056TIP3   OH2 6173   2.651   1.844   1.748
 2056TIP3    H1 6174   2.566   1.878   1.719
 2056TIP3    H2 6175   2.641   1.749   1.746
 2057TIP3   OH2 6176   0.831   3.358   3.791
 2057TIP3    H1 6177   0.776   3.281   3.803
 2057TIP3    H2 6178   0.785   3.428   3.837
 2058TIP3   OH2 6179   0.352   4.096   5.005
 2058TIP3    H1 6180   0.386   4.043   5.078
 2058TIP3    H2 6181   0.420   4.090   4.938
 2059TIP3   OH2 6182   1.990   5.508   0.339
 2059TIP3    H1 6183   1.904   5.471   0.320
 2059TIP3    H2 6184   1.975   5.602   0.349
 2060TIP3   OH2 6185   2.896   5.361   1.289
 2060TIP3    H1 6186   2.860   5.308   1.218
 2060TIP3    H2 6187   2.991   5.347   1.283
 2061TIP3   OH2 6188   1.351   3.850   0.825
 2061TIP3    H1 6189   1.345   3.756   0.842
 2061TIP3    H2 6190   1.323   3.891   0.907
 2062TIP3   OH2 6191   5.445   2.464   2.109
 2062TIP3    H1 6192   5.359   2.429   2.086
 2062TIP3    H2 6193   5.483   2.398   2.167
 2063TIP3   OH2 6194   5.780   2.123   4.148
 2063TIP3    H1 6195   5.700   2.070   4.150
 2063TIP3    H2 6196   5.752   2.210   4.178
 2064TIP3   OH2 6197   6.221   5.047   4.802
 2064TIP3    H1 6198   6.177   5.131   4.787
 2064TIP3    H2 6199   6.268   5.030   4.720
 2065TIP3   OH2 6200   5.664   1.923   1.212
 2065TIP3    H1 6201   5.581   1.888   1.182
 2065TIP3    H2 6202   5.727   1.898   1.144
 2066TIP3   OH2 6203   6.163   1.553   3.712
 2066TIP3    H1 6204   6.148   1.459   3.703
 2066TIP3    H2 6205   6.102   1.580   3.781
 2067TIP3   OH2 6206   5.297   5.503   2.825
 2067TIP3    H1 6207   5.212   5.481   2.862
 2067TIP3    H2 6208   5.353   5.428   2.847
 2068TIP3   OH2 6209   1.419   5.829   0.551
 2068TIP3    H1 6210   1.432   5.746   0.596
 2068TIP3    H2 6211   1.338   5.817   0.502
 2069TIP3   OH2 6212   5.287   2.599   4.038
 2069TIP3    H1 6213   5.361   2.645   4.076
 2069TIP3    H2 6214   5.215   2.662   4.043
 2070TIP3   OH2 6215   4.504   3.785   0.227
 2070TIP3    H1 6216   4.509   3.705   0.176
 2070TIP3    H2 6217   4.410   3.802   0.236
 2071TIP3   OH2 6218   4.453   3.957   5.130
 2071TIP3    H1 6219   4.360   3.958   5.152
 2071TIP3    H2 6220   4.495   3.927   5.211
 2072TIP3   OH2 6221   0.984   3.126   1.278
 2072TIP3    H1 6222   1.028   3.200   1.236
 2072TIP3    H2 6223   0.927   3.166   1.343
 2073TIP3   OH2 6224   5.843   2.420   5.026
 2073TIP3    H1 6225   5.900   2.430   5.103
 2073TIP3    H2 6226   5.890   2.465   4.956
 2074TIP3   OH2 6227   2.011   0.888   0.456
 2074TIP3    H1 6228   1.968   0.862   0.537
 2074TIP3    H2 6229   2.104   0.873   0.472
 2075TIP3   OH2 6230   5.052   4.135   1.193
 2075TIP3    H1 6231   4.998   4.129   1.114
 2075TIP3    H2 6232   5.107   4.212   1.179
 2076TIP3   OH2 6233   1.581   4.203   0.221
 2076TIP3    H1 6234   1.573   4.277   0.280
 2076TIP3    H2 6235   1.610   4.131   0.277
 2077TIP3   OH2 6236   1.858   5.888   5.031
 2077TIP3    H1 6237   1.846   5.795   5.051
 2077TIP3    H2 6238   1.950   5.905   5.052
 2078TIP3   OH2 6239   4.090   2.453   3.543
 2078TIP3    H1 6240   4.069   2.455   3.636
 2078TIP3    H2 6241   4.008   2.426   3.501
 2079TIP3   OH2 6242   3.363   5.915   4.521
 2079TIP3    H1 6243   3.369   6.002   4.562
 2079TIP3    H2 6244   3.429   5.917   4.452
 2080TIP3   OH2 6245   4.695   1.390   1.646
 2080TIP3    H1 6246   4.679   1.297   1.629
 2080TIP3    H2 6247   4.729   1.424   1.563
 2081TIP3   OH2 6248   2.254   3.945   3.942
 2081TIP3    H1 6249   2.287   4.013   3.883
 2081TIP3    H2 6250   2.163   3.932   3.914
 2082TIP3   OH2 6251   2.053   5.140   4.751
 2082TIP3    H1 6252   2.134   5.103   4.717
 2082TIP3    H2 6253   2.082   5.199   4.821
 2083TIP3   OH2 6254   5.610   5.081   2.542
 2083TIP3    H1 6255   5.701   5.091   2.514
 2083TIP3    H2 6256   5.608   5.117   2.631
 2084TIP3   OH2 6257   3.063   0.956   1.417
 2084TIP3    H1 6258   3.029   0.872   1.388
 2084TIP3    H2 6259   3.086   0.942   1.509
 2085TIP3   OH2 6260   1.806   5.147   1.933
 2085TIP3    H1 6261   1.808   5.230   1.886
 2085TIP3    H2 6262   1.892   5.109   1.917
 2086TIP3   OH2 6263   4.132   2.026   3.565
 2086TIP3    H1 6264   4.214   2.029   3.615
 2086TIP3    H2 6265   4.140   2.097   3.502
 2087TIP3   OH2 6266   5.330   0.777   2.557
 2087TIP3    H1 6267   5.407   0.746   2.509
 2087TIP3    H2 6268   5.268   0.705   2.551
 2088TIP3   OH2 6269   4.415   1.545   1.104
 2088TIP3    H1 6270   4.463   1.619   1.066
 2088TIP3    H2 6271   4.477   1.472   1.100
 2089TIP3   OH2 6272   0.354   5.752   0.181
 2089TIP3    H1 6273   0.305   5.809   0.239
 2089TIP3    H2 6274   0.445   5.758   0.211
 2090TIP3   OH2 6275   5.829   1.097   3.458
 2090TIP3    H1 6276   5.758   1.059   3.509
 2090TIP3    H2 6277   5.908   1.074   3.506
 2091TIP3   OH2 6278   3.182   3.139   0.021
 2091TIP3    H1 6279   3.157   3.202   0.089
 2091TIP3    H2 6280   3.120   3.067   0.030
 2092TIP3   OH2 6281   1.348   2.053   0.605
 2092TIP3    H1 6282   1.367   2.140   0.570
 2092TIP3    H2 6283   1.271   2.024   0.557
 2093TIP3   OH2 6284   4.894   1.645   1.397
 2093TIP3    H1 6285   4.837   1.571   1.380
 2093TIP3    H2 6286   4.910   1.642   1.492
 2094TIP3   OH2 6287   2.672   3.080   2.229
 2094TIP3    H1 6288   2.593   3.027   2.231
 2094TIP3    H2 6289   2.667   3.134   2.308
 2095TIP3   OH2 6290   0.518   1.999   1.844
 2095TIP3    H1 6291   0.436   2.007   1.893
 2095TIP3    H2 6292   0.584   1.977   1.911
 2096TIP3   OH2 6293   2.262   1.452   4.064
 2096TIP3    H1 6294   2.316   1.379   4.033
 2096TIP3    H2 6295   2.172   1.423   4.051
 2097TIP3   OH2 6296   3.967   3.919   2.309
 2097TIP3    H1 6297   3.956   4.014   2.305
 2097TIP3    H2 6298   3.990   3.901   2.401
 2098TIP3   OH2 6299   1.705   5.388   4.794
 2098TIP3    H1 6300   1.725   5.302   4.756
 2098TIP3    H2 6301   1.679   5.369   4.884
 2099TIP3   OH2 6302   2.425   2.876   1.627
 2099TIP3    H1 6303   2.410   2.968   1.607
 2099TIP3    H2 6304   2.436   2.874   1.722
 2100TIP3   OH2 6305   4.923   0.303   1.259
 2100TIP3    H1 6306   4.939   0.366   1.330
 2100TIP3    H2 6307   4.915   0.357   1.181
 2101TIP3   OH2 6308   1.937   0.607   0.108
 2101TIP3    H1 6309   1.907   0.676   0.168
 2101TIP3    H2 6310   1.928   0.526   0.158
 2102TIP3   OH2 6311   4.294   0.810   3.418
 2102TIP3    H1 6312   4.212   0.769   3.393
 2102TIP3    H2 6313   4.350   0.801   3.341
 2103TIP3   OH2 6314   6.163   4.899   0.620
 2103TIP3    H1 6315   6.134   4.990   0.621
 2103TIP3    H2 6316   6.159   4.873   0.528
 2104TIP3   OH2 6317   3.969   4.261   1.333
 2104TIP3    H1 6318   3.985   4.166   1.334
 2104TIP3    H2 6319   4.049   4.299   1.369
 2105TIP3   OH2 6320   5.329   1.600   1.727
 2105TIP3    H1 6321   5.416   1.616   1.764
 2105TIP3    H2 6322   5.294   1.688   1.709
 2106TIP3   OH2 6323   1.801   5.992   4.175
 2106TIP3    H1 6324   1.800   5.896   4.166
 2106TIP3    H2 6325   1.754   6.008   4.257
 2107TIP3   OH2 6326   0.029   2.208   0.495
 2107TIP3    H1 6327   0.057   2.132   0.445
 2107TIP3    H2 6328   0.058   2.191   0.584
 2108TIP3   OH2 6329   2.199   1.393   2.840
 2108TIP3    H1 6330   2.281   1.356   2.873
 2108TIP3    H2 6331   2.223   1.478   2.804
 2109TIP3   OH2 6332   1.391   0.825   0.139
 2109TIP3    H1 6333   1.479   0.836   0.104
 2109TIP3    H2 6334   1.396   0.746   0.194
 2110TIP3   OH2 6335   2.836   4.209   1.273
 2110TIP3    H1 6336   2.792   4.258   1.203
 2110TIP3    H2 6337   2.855   4.275   1.340
 2111TIP3   OH2 6338   4.370   5.867   4.163
 2111TIP3    H1 6339   4.432   5.846   4.093
 2111TIP3    H2 6340   4.416   5.844   4.244
 2112TIP3   OH2 6341   5.959   5.119   0.968
 2112TIP3    H1 6342   6.051   5.126   0.942
 2112TIP3    H2 6343   5.922   5.206   0.950
 2113TIP3   OH2 6344   6.229   4.485   3.592
 2113TIP3    H1 6345   6.192   4.449   3.511
 2113TIP3    H2 6346   6.155   4.527   3.635
 2114TIP3   OH2 6347   6.055   0.506   3.163
 2114TIP3    H1 6348   6.144   0.536   3.144
 2114TIP3    H2 6349   6.006   0.586   3.182
 2115TIP3   OH2 6350   2.576   2.644   1.609
 2115TIP3    H1 6351   2.622   2.627   1.691
 2115TIP3    H2 6352   2.561   2.738   1.609
 2116TIP3   OH2 6353   1.036   4.311   0.326
 2116TIP3    H1 6354   0.949   4.298   0.364
 2116TIP3    H2 6355   1.019   4.351   0.241
 2117TIP3   OH2 6356   3.390   4.492   4.317
 2117TIP3    H1 6357   3.374   4.429   4.388
 2117TIP3    H2 6358   3.336   4.461   4.245
 2118TIP3   OH2 6359   4.262   5.474   2.678
 2118TIP3    H1 6360   4.310   5.546   2.720
 2118TIP3    H2 6361   4.207   5.438   2.748
 2119TIP3   OH2 6362   1.134   5.107   2.746
 2119TIP3    H1 6363   1.184   5.189   2.752
 2119TIP3    H2 6364   1.045   5.131   2.769
 2120TIP3   OH2 6365   3.819   0.952   1.220
 2120TIP3    H1 6366   3.736   0.920   1.183
 2120TIP3    H2 6367   3.797   1.037   1.258
 2121TIP3   OH2 6368   5.346   4.675   3.158
 2121TIP3    H1 6369   5.300   4.652   3.239
 2121TIP3    H2 6370   5.296   4.631   3.089
 2122TIP3   OH2 6371   2.534   4.853   1.058
 2122TIP3    H1 6372   2.615   4.902   1.044
 2122TIP3    H2 6373   2.556   4.763   1.034
 2123TIP3   OH2 6374   4.011   1.105   2.429
 2123TIP3    H1 6375   4.094   1.110   2.477
 2123TIP3    H2 6376   4.006   1.188   2.382
 2124TIP3   OH2 6377   5.941   3.850   0.907
 2124TIP3    H1 6378   5.993   3.777   0.940
 2124TIP3    H2 6379   5.908   3.821   0.822
 2125TIP3   OH2 6380   2.933   3.338   3.474
 2125TIP3    H1 6381   2.859   3.301   3.522
 2125TIP3    H2 6382   2.992   3.371   3.542
 2126TIP3   OH2 6383   4.201   3.286   4.488
 2126TIP3    H1 6384   4.110   3.296   4.518
 2126TIP3    H2 6385   4.213   3.357   4.424
 2127TIP3   OH2 6386   6.070   5.790   3.834
 2127TIP3    H1 6387   6.087   5.883   3.819
 2127TIP3    H2 6388   6.157   5.752   3.849
 2128TIP3   OH2 6389   1.600   4.892   2.388
 2128TIP3    H1 6390   1.524   4.936   2.428
 2128TIP3    H2 6391   1.643   4.960   2.337
 2129TIP3   OH2 6392   0.072   4.068   2.895
 2129TIP3    H1 6393   0.029   4.077   2.810
 2129TIP3    H2 6394   0.002   4.077   2.959
 2130TIP3   OH2 6395   1.894   2.818   2.298
 2130TIP3    H1 6396   1.898   2.911   2.276
 2130TIP3    H2 6397   1.919   2.814   2.390
 2131TIP3   OH2 6398   5.687   2.984   1.848
 2131TIP3    H1 6399   5.714   2.892   1.846
 2131TIP3    H2 6400   5.601   2.983   1.890
 2132TIP3   OH2 6401   4.642   2.988   0.198
 2132TIP3    H1 6402   4.709   3.047   0.234
 2132TIP3    H2 6403   4.616   2.934   0.273
 2133TIP3   OH2 6404   3.168   5.494   0.322
 2133TIP3    H1 6405   3.226   5.421   0.301
 2133TIP3    H2 6406   3.093   5.453   0.367
 2134TIP3   OH2 6407   1.771   0.374   3.858
 2134TIP3    H1 6408   1.808   0.303   3.910
 2134TIP3    H2 6409   1.767   0.448   3.919
 2135TIP3   OH2 6410   3.774   4.862   3.829
 2135TIP3    H1 6411   3.852   4.848   3.775
 2135TIP3    H2 6412   3.759   4.956   3.826
 2136TIP3   OH2 6413   4.529   2.834   0.396
 2136TIP3    H1 6414   4.505   2.907   0.454
 2136TIP3    H2 6415   4.560   2.766   0.456
 2137TIP3   OH2 6416   4.615   2.529   0.293
 2137TIP3    H1 6417   4.565   2.571   0.223
 2137TIP3    H2 6418   4.673   2.598   0.327
 2138TIP3   OH2 6419   0.754   5.151   0.275
 2138TIP3    H1 6420   0.827   5.102   0.237
 2138TIP3    H2 6421   0.784   5.174   0.363
 2139TIP3   OH2 6422   5.869   2.529   2.058
 2139TIP3    H1 6423   5.956   2.538   2.097
 2139TIP3    H2 6424   5.886   2.501   1.967
 2140TIP3   OH2 6425   1.357   2.794   0.353
 2140TIP3    H1 6426   1.406   2.714   0.334
 2140TIP3    H2 6427   1.418   2.865   0.332
 2141TIP3   OH2 6428   3.710   1.656   2.028
 2141TIP3    H1 6429   3.723   1.630   1.937
 2141TIP3    H2 6430   3.764   1.595   2.078
 2142TIP3   OH2 6431   5.424   1.556   1.434
 2142TIP3    H1 6432   5.499   1.503   1.462
 2142TIP3    H2 6433   5.387   1.590   1.515
 2143TIP3   OH2 6434   0.123   2.878   0.488
 2143TIP3    H1 6435   0.083   2.947   0.542
 2143TIP3    H2 6436   0.079   2.798   0.516
 2144TIP3   OH2 6437   0.294   0.102   4.534
 2144TIP3    H1 6438   0.250   0.155   4.600
 2144TIP3    H2 6439   0.223   0.055   4.489
 2145TIP3   OH2 6440   5.557   3.721   1.569
 2145TIP3    H1 6441   5.647   3.731   1.600
 2145TIP3    H2 6442   5.562   3.740   1.475
 2146TIP3   OH2 6443   1.538   2.093   5.044
 2146TIP3    H1 6444   1.503   2.027   4.984
 2146TIP3    H2 6445   1.468   2.158   5.052
 2147TIP3   OH2 6446   5.259   3.377   1.305
 2147TIP3    H1 6447   5.326   3.320   1.267
 2147TIP3    H2 6448   5.278   3.378   1.399
 2148TIP3   OH2 6449   2.326   0.320   1.893
 2148TIP3    H1 6450   2.247   0.288   1.936
 2148TIP3    H2 6451   2.322   0.282   1.805
 2149TIP3   OH2 6452   2.115   2.893   3.261
 2149TIP3    H1 6453   2.113   2.827   3.330
 2149TIP3    H2 6454   2.038   2.947   3.278
 2150TIP3   OH2 6455   3.044   3.829   3.148
 2150TIP3    H1 6456   3.069   3.921   3.144
 2150TIP3    H2 6457   2.989   3.815   3.071
 2151TIP3   OH2 6458   5.956   2.039   1.623
 2151TIP3    H1 6459   5.962   2.046   1.527
 2151TIP3    H2 6460   5.863   2.052   1.642
 2152TIP3   OH2 6461   4.274   4.570   3.441
 2152TIP3    H1 6462   4.205   4.631   3.415
 2152TIP3    H2 6463   4.234   4.516   3.509
 2153TIP3   OH2 6464   1.581   3.330   0.277
 2153TIP3    H1 6465   1.518   3.340   0.349
 2153TIP3    H2 6466   1.599   3.419   0.249
 2154TIP3   OH2 6467   4.751   1.120   2.236
 2154TIP3    H1 6468   4.678   1.110   2.298
 2154TIP3    H2 6469   4.780   1.210   2.248
 2155TIP3   OH2 6470   0.134   0.770   3.650
 2155TIP3    H1 6471   0.139   0.685   3.606
 2155TIP3    H2 6472   0.154   0.834   3.582
 2156TIP3   OH2 6473   4.649   0.102   0.525
 2156TIP3    H1 6474   4.638   0.190   0.561
 2156TIP3    H2 6475   4.663   0.046   0.601
 2157TIP3   OH2 6476   4.985   5.127   1.158
 2157TIP3    H1 6477   5.058   5.134   1.220
 2157TIP3    H2 6478   4.908   5.117   1.213
 2158TIP3   OH2 6479   1.572   5.281   4.465
 2158TIP3    H1 6480   1.569   5.244   4.376
 2158TIP3    H2 6481   1.625   5.218   4.515
 2159TIP3   OH2 6482   4.083   2.668   2.971
 2159TIP3    H1 6483   4.050   2.686   3.059
 2159TIP3    H2 6484   4.177   2.654   2.983
 2160TIP3   OH2 6485   0.120   3.564   3.569
 2160TIP3    H1 6486   0.176   3.564   3.491
 2160TIP3    H2 6487   0.070   3.645   3.563
 2161TIP3   OH2 6488   5.984   2.475   0.638
 2161TIP3    H1 6489   6.064   2.458   0.688
 2161TIP3    H2 6490   6.004   2.554   0.588
 2162TIP3   OH2 6491   3.880   4.107   0.867
 2162TIP3    H1 6492   3.888   4.147   0.953
 2162TIP3    H2 6493   3.951   4.145   0.816
 2163TIP3   OH2 6494   0.032   0.274   1.170
 2163TIP3    H1 6495   0.035   0.180   1.189
 2163TIP3    H2 6496   0.110   0.309   1.212
 2164TIP3   OH2 6497   2.562   3.580   3.005
 2164TIP3    H1 6498   2.610   3.503   3.035
 2164TIP3    H2 6499   2.560   3.572   2.910
 2165TIP3   OH2 6500   5.843   0.379   2.926
 2165TIP3    H1 6501   5.811   0.443   2.862
 2165TIP3    H2 6502   5.784   0.304   2.916
 2166TIP3   OH2 6503   1.140   2.419   0.869
 2166TIP3    H1 6504   1.100   2.462   0.944
 2166TIP3    H2 6505   1.217   2.472   0.849
 2167TIP3   OH2 6506   4.170   4.806   4.691
 2167TIP3    H1 6507   4.191   4.798   4.598
 2167TIP3    H2 6508   4.129   4.723   4.714
 2168TIP3   OH2 6509   3.360   0.427   2.019
 2168TIP3    H1 6510   3.302   0.351   2.028
 2168TIP3    H2 6511   3.443   0.391   1.989
 2169TIP3   OH2 6512   5.225   0.849   1.727
 2169TIP3    H1 6513   5.266   0.811   1.805
 2169TIP3    H2 6514   5.156   0.906   1.761
 2170TIP3   OH2 6515   1.691   3.716   4.468
 2170TIP3    H1 6516   1.646   3.796   4.441
 2170TIP3    H2 6517   1.629   3.672   4.526
 2171TIP3   OH2 6518   0.427   2.997   3.750
 2171TIP3    H1 6519   0.354   2.982   3.810
 2171TIP3    H2 6520   0.390   3.046   3.677
 2172TIP3   OH2 6521   0.492   5.972   1.922
 2172TIP3    H1 6522   0.498   5.897   1.863
 2172TIP3    H2 6523   0.573   5.969   1.973
 2173TIP3   OH2 6524   2.824   5.528   1.043
 2173TIP3    H1 6525   2.811   5.622   1.055
 2173TIP3    H2 6526   2.764   5.488   1.106
 2174TIP3   OH2 6527   1.960   1.144   0.494
 2174TIP3    H1 6528   1.905   1.140   0.572
 2174TIP3    H2 6529   1.971   1.053   0.468
 2175TIP3   OH2 6530   1.916   1.348   4.892
 2175TIP3    H1 6531   2.011   1.349   4.879
 2175TIP3    H2 6532   1.897   1.260   4.924
 2176TIP3   OH2 6533   3.663   3.133   1.993
 2176TIP3    H1 6534   3.667   3.049   1.947
 2176TIP3    H2 6535   3.749   3.141   2.035
 2177TIP3   OH2 6536   2.035   3.405   2.363
 2177TIP3    H1 6537   2.111   3.453   2.393
 2177TIP3    H2 6538   2.050   3.391   2.270
 2178TIP3   OH2 6539   3.955   0.078   2.342
 2178TIP3    H1 6540   4.050   0.083   2.353
 2178TIP3    H2 6541   3.922   0.157   2.385
 2179TIP3   OH2 6542   3.417   2.986   3.730
 2179TIP3    H1 6543   3.425   3.040   3.808
 2179TIP3    H2 6544   3.471   2.909   3.748
 2180TIP3   OH2 6545   5.234   0.349   1.003
 2180TIP3    H1 6546   5.237   0.401   1.083
 2180TIP3    H2 6547   5.143   0.358   0.973
 2181TIP3   OH2 6548   0.591   5.259   3.491
 2181TIP3    H1 6549   0.627   5.331   3.544
 2181TIP3    H2 6550   0.560   5.302   3.411
 2182TIP3   OH2 6551   0.026   4.553   2.704
 2182TIP3    H1 6552  -0.009   4.592   2.624
 2182TIP3    H2 6553   0.101   4.501   2.675
 2183TIP3   OH2 6554   0.862   3.821   2.939
 2183TIP3    H1 6555   0.947   3.845   2.977
 2183TIP3    H2 6556   0.810   3.901   2.944
 2184TIP3   OH2 6557   0.722   5.267   3.135
 2184TIP3    H1 6558   0.803   5.304   3.099
 2184TIP3    H2 6559   0.668   5.342   3.157
 2185TIP3   OH2 6560   5.000   4.039   4.384
 2185TIP3    H1 6561   5.086   4.055   4.345
 2185TIP3    H2 6562   4.956   3.982   4.321
 2186TIP3   OH2 6563   5.722   2.151   2.093
 2186TIP3    H1 6564   5.685   2.204   2.164
 2186TIP3    H2 6565   5.816   2.168   2.096
 2187TIP3   OH2 6566   3.166   1.300   4.782
 2187TIP3    H1 6567   3.205   1.281   4.867
 2187TIP3    H2 6568   3.077   1.329   4.801
 2188TIP3   OH2 6569   2.637   1.173   1.589
 2188TIP3    H1 6570   2.570   1.115   1.627
 2188TIP3    H2 6571   2.602   1.196   1.503
 2189TIP3   OH2 6572  -0.002   5.703   4.171
 2189TIP3    H1 6573  -0.032   5.691   4.080
 2189TIP3    H2 6574  -0.065   5.654   4.223
 2190TIP3   OH2 6575   5.066   4.519   4.906
 2190TIP3    H1 6576   5.041   4.463   4.979
 2190TIP3    H2 6577   5.062   4.462   4.829
 2191TIP3   OH2 6578   3.669   2.845   4.093
 2191TIP3    H1 6579   3.710   2.898   4.024
 2191TIP3    H2 6580   3.576   2.864   4.086
 2192TIP3   OH2 6581   0.224   2.259   4.770
 2192TIP3    H1 6582   0.283   2.207   4.716
 2192TIP3    H2 6583   0.191   2.327   4.710
 2193TIP3   OH2 6584   1.926   2.697   4.452
 2193TIP3    H1 6585   1.918   2.678   4.545
 2193TIP3    H2 6586   1.976   2.779   4.448
 2194TIP3   OH2 6587   4.548   0.200   4.983
 2194TIP3    H1 6588   4.505   0.249   4.913
 2194TIP3    H2 6589   4.636   0.183   4.950
 2195TIP3   OH2 6590   4.074   5.850   2.499
 2195TIP3    H1 6591   4.041   5.915   2.437
 2195TIP3    H2 6592   4.149   5.893   2.540
 2196TIP3   OH2 6593   6.071   0.671   1.325
 2196TIP3    H1 6594   6.129   0.602   1.293
 2196TIP3    H2 6595   6.008   0.684   1.254
 2197TIP3   OH2 6596   0.891   4.914   0.549
 2197TIP3    H1 6597   0.895   4.879   0.460
 2197TIP3    H2 6598   0.958   4.866   0.597
 2198TIP3   OH2 6599   0.058   3.741   4.110
 2198TIP3    H1 6600   0.090   3.819   4.157
 2198TIP3    H2 6601   0.130   3.678   4.118
 2199TIP3   OH2 6602   6.289   3.781   3.589
 2199TIP3    H1 6603   6.273   3.870   3.557
 2199TIP3    H2 6604   6.321   3.793   3.678
 2200TIP3   OH2 6605   5.065   5.141   4.516
 2200TIP3    H1 6606   5.127   5.069   4.508
 2200TIP3    H2 6607   5.117   5.220   4.504
 2201TIP3   OH2 6608   1.660   3.021   3.405
 2201TIP3    H1 6609   1.581   2.982   3.442
 2201TIP3    H2 6610   1.655   3.002   3.311
 2202TIP3   OH2 6611   5.532   4.222   4.506
 2202TIP3    H1 6612   5.485   4.306   4.513
 2202TIP3    H2 6613   5.515   4.193   4.417
 2203TIP3   OH2 6614   5.454   4.216   3.627
 2203TIP3    H1 6615   5.486   4.189   3.540
 2203TIP3    H2 6616   5.523   4.274   3.660
 2204TIP3   OH2 6617   5.785   0.121   0.743
 2204TIP3    H1 6618   5.751   0.079   0.664
 2204TIP3    H2 6619   5.727   0.196   0.758
 2205TIP3   OH2 6620   6.347   1.391   1.434
 2205TIP3    H1 6621   6.426   1.427   1.475
 2205TIP3    H2 6622   6.339   1.303   1.471
 2206TIP3   OH2 6623   0.412   1.827   4.857
 2206TIP3    H1 6624   0.382   1.744   4.894
 2206TIP3    H2 6625   0.444   1.805   4.770
 2207TIP3   OH2 6626   1.053   4.925   3.706
 2207TIP3    H1 6627   1.008   4.845   3.733
 2207TIP3    H2 6628   0.984   4.979   3.666
 2208TIP3   OH2 6629   0.300   2.037   5.016
 2208TIP3    H1 6630   0.375   2.093   5.034
 2208TIP3    H2 6631   0.334   1.970   4.956
 2209TIP3   OH2 6632   0.374   2.032   1.601
 2209TIP3    H1 6633   0.304   2.080   1.644
 2209TIP3    H2 6634   0.435   2.010   1.671
 2210TIP3   OH2 6635   2.839   5.495   0.387
 2210TIP3    H1 6636   2.872   5.406   0.376
 2210TIP3    H2 6637   2.905   5.539   0.440
 2211TIP3   OH2 6638   2.608   2.175   4.888
 2211TIP3    H1 6639   2.527   2.205   4.931
 2211TIP3    H2 6640   2.678   2.220   4.936
 2212TIP3   OH2 6641   2.090   0.641   1.859
 2212TIP3    H1 6642   2.021   0.649   1.925
 2212TIP3    H2 6643   2.085   0.550   1.829
 2213TIP3   OH2 6644   0.572   4.817   1.661
 2213TIP3    H1 6645   0.644   4.778   1.611
 2213TIP3    H2 6646   0.566   4.764   1.740
 2214TIP3   OH2 6647   3.084   0.965   1.706
 2214TIP3    H1 6648   3.003   1.012   1.727
 2214TIP3    H2 6649   3.113   0.930   1.789
 2215TIP3   OH2 6650   5.747   1.487   0.482
 2215TIP3    H1 6651   5.836   1.473   0.515
 2215TIP3    H2 6652   5.751   1.461   0.390
 2216TIP3   OH2 6653   1.455   2.197   3.275
 2216TIP3    H1 6654   1.370   2.169   3.241
 2216TIP3    H2 6655   1.487   2.261   3.211
 2217TIP3   OH2 6656   4.011   5.880   0.068
 2217TIP3    H1 6657   4.089   5.837   0.034
 2217TIP3    H2 6658   4.044   5.961   0.108
 2218TIP3   OH2 6659   1.199   1.362   1.707
 2218TIP3    H1 6660   1.230   1.337   1.620
 2218TIP3    H2 6661   1.273   1.343   1.764
 2219TIP3   OH2 6662   5.596   4.133   0.222
 2219TIP3    H1 6663   5.569   4.215   0.180
 2219TIP3    H2 6664   5.596   4.069   0.151
 2220TIP3   OH2 6665   3.473   3.695   2.937
 2220TIP3    H1 6666   3.549   3.747   2.961
 2220TIP3    H2 6667   3.400   3.758   2.937
 2221TIP3   OH2 6668   3.440   2.753   0.901
 2221TIP3    H1 6669   3.475   2.681   0.954
 2221TIP3    H2 6670   3.499   2.826   0.918
 2222TIP3   OH2 6671   3.100   0.798   4.824
 2222TIP3    H1 6672   3.154   0.723   4.798
 2222TIP3    H2 6673   3.099   0.854   4.746
 2223TIP3   OH2 6674   0.267   0.380   1.481
 2223TIP3    H1 6675   0.298   0.359   1.393
 2223TIP3    H2 6676   0.196   0.317   1.497
 2224TIP3   OH2 6677   1.954   3.267   2.608
 2224TIP3    H1 6678   1.934   3.322   2.533
 2224TIP3    H2 6679   1.968   3.180   2.571
 2225TIP3   OH2 6680   1.203   4.382   1.160
 2225TIP3    H1 6681   1.288   4.398   1.202
 2225TIP3    H2 6682   1.159   4.467   1.162
 2226TIP3   OH2 6683   2.966   3.980   0.608
 2226TIP3    H1 6684   3.001   4.057   0.653
 2226TIP3    H2 6685   2.989   3.992   0.516
 2227TIP3   OH2 6686   5.386   5.280   4.621
 2227TIP3    H1 6687   5.355   5.361   4.662
 2227TIP3    H2 6688   5.482   5.287   4.624
 2228TIP3   OH2 6689   0.884   4.859   4.085
 2228TIP3    H1 6690   0.898   4.935   4.142
 2228TIP3    H2 6691   0.964   4.807   4.096
 2229TIP3   OH2 6692   1.097   4.238   0.971
 2229TIP3    H1 6693   1.133   4.149   0.974
 2229TIP3    H2 6694   1.118   4.275   1.057
 2230TIP3   OH2 6695   1.412   1.425   2.129
 2230TIP3    H1 6696   1.403   1.430   2.034
 2230TIP3    H2 6697   1.364   1.347   2.154
 2231TIP3   OH2 6698   4.008   5.783   1.327
 2231TIP3    H1 6699   3.914   5.779   1.313
 2231TIP3    H2 6700   4.041   5.698   1.295
 2232TIP3   OH2 6701   2.387   3.341   1.005
 2232TIP3    H1 6702   2.304   3.370   1.042
 2232TIP3    H2 6703   2.453   3.364   1.070
 2233TIP3   OH2 6704   0.252   0.993   0.013
 2233TIP3    H1 6705   0.279   0.904   0.035
 2233TIP3    H2 6706   0.275   1.045   0.089
 2234TIP3   OH2 6707   3.624   1.686   0.208
 2234TIP3    H1 6708   3.606   1.780   0.202
 2234TIP3    H2 6709   3.605   1.653   0.120
 2235TIP3   OH2 6710   5.188   1.293   2.828
 2235TIP3    H1 6711   5.140   1.312   2.909
 2235TIP3    H2 6712   5.153   1.209   2.798
 2236TIP3   OH2 6713   0.534   1.763   4.302
 2236TIP3    H1 6714   0.468   1.772   4.233
 2236TIP3    H2 6715   0.616   1.788   4.260
 2237TIP3   OH2 6716   5.949   3.808   4.566
 2237TIP3    H1 6717   5.955   3.903   4.551
 2237TIP3    H2 6718   5.863   3.784   4.532
 2238TIP3   OH2 6719   0.624   4.431   3.631
 2238TIP3    H1 6720   0.719   4.426   3.619
 2238TIP3    H2 6721   0.591   4.460   3.546
 2239TIP3   OH2 6722   3.341   1.118   0.515
 2239TIP3    H1 6723   3.257   1.157   0.542
 2239TIP3    H2 6724   3.318   1.066   0.438
 2240TIP3   OH2 6725   5.655   2.849   3.682
 2240TIP3    H1 6726   5.684   2.826   3.593
 2240TIP3    H2 6727   5.637   2.764   3.723
 2241TIP3   OH2 6728   1.742   1.513   0.086
 2241TIP3    H1 6729   1.803   1.445   0.112
 2241TIP3    H2 6730   1.656   1.471   0.089
 2242TIP3   OH2 6731   6.138   5.373   4.287
 2242TIP3    H1 6732   6.218   5.331   4.258
 2242TIP3    H2 6733   6.122   5.336   4.374
 2243TIP3   OH2 6734   2.222   2.736   4.507
 2243TIP3    H1 6735   2.178   2.696   4.432
 2243TIP3    H2 6736   2.167   2.810   4.531
 2244TIP3   OH2 6737   0.255   4.045   3.448
 2244TIP3    H1 6738   0.204   4.090   3.516
 2244TIP3    H2 6739   0.267   3.956   3.482
 2245TIP3   OH2 6740   2.704   3.143   0.939
 2245TIP3    H1 6741   2.721   3.098   1.021
 2245TIP3    H2 6742   2.663   3.226   0.964
 2246TIP3   OH2 6743   3.649   5.590   1.727
 2246TIP3    H1 6744   3.665   5.581   1.821
 2246TIP3    H2 6745   3.573   5.534   1.710
 2247TIP3   OH2 6746   3.271   4.837   3.842
 2247TIP3    H1 6747   3.346   4.823   3.785
 2247TIP3    H2 6748   3.240   4.749   3.864
 2248TIP3   OH2 6749   4.194   4.758   3.170
 2248TIP3    H1 6750   4.281   4.718   3.184
 2248TIP3    H2 6751   4.182   4.755   3.076
 2249TIP3   OH2 6752   1.968   3.885   3.806
 2249TIP3    H1 6753   1.991   3.949   3.738
 2249TIP3    H2 6754   1.910   3.823   3.761
 2250TIP3   OH2 6755   4.314   4.254   4.785
 2250TIP3    H1 6756   4.281   4.171   4.817
 2250TIP3    H2 6757   4.382   4.231   4.723
 2251TIP3   OH2 6758   0.278   3.106   2.667
 2251TIP3    H1 6759   0.205   3.044   2.662
 2251TIP3    H2 6760   0.236   3.190   2.685
 2252TIP3   OH2 6761   0.258   5.840   3.977
 2252TIP3    H1 6762   0.191   5.774   3.958
 2252TIP3    H2 6763   0.312   5.841   3.898
 2253TIP3   OH2 6764   2.167   3.000   2.326
 2253TIP3    H1 6765   2.160   2.941   2.402
 2253TIP3    H2 6766   2.077   3.022   2.304
 2254TIP3   OH2 6767   0.064   1.884   4.365
 2254TIP3    H1 6768   0.048   1.976   4.346
 2254TIP3    H2 6769   0.137   1.885   4.428
 2255TIP3   OH2 6770   1.997   0.888   1.763
 2255TIP3    H1 6771   2.062   0.825   1.794
 2255TIP3    H2 6772   1.986   0.868   1.670
 2256TIP3   OH2 6773   4.708   4.645   4.407
 2256TIP3    H1 6774   4.648   4.571   4.417
 2256TIP3    H2 6775   4.651   4.717   4.379
 2257TIP3   OH2 6776   0.589   0.375   3.271
 2257TIP3    H1 6777   0.565   0.290   3.234
 2257TIP3    H2 6778   0.679   0.389   3.244
 2258TIP3   OH2 6779   1.661   3.942   1.869
 2258TIP3    H1 6780   1.655   4.037   1.860
 2258TIP3    H2 6781   1.573   3.911   1.849
 2259TIP3   OH2 6782   3.103   1.590   1.526
 2259TIP3    H1 6783   3.076   1.639   1.448
 2259TIP3    H2 6784   3.023   1.549   1.557
 2260TIP3   OH2 6785   5.018   1.530   2.191
 2260TIP3    H1 6786   5.031   1.560   2.281
 2260TIP3    H2 6787   5.042   1.605   2.137
 2261TIP3   OH2 6788   4.951   0.262   4.797
 2261TIP3    H1 6789   4.856   0.264   4.785
 2261TIP3    H2 6790   4.986   0.303   4.717
 2262TIP3   OH2 6791   5.371   2.407   1.253
 2262TIP3    H1 6792   5.411   2.493   1.266
 2262TIP3    H2 6793   5.402   2.379   1.167
 2263TIP3   OH2 6794   1.561   0.591   2.300
 2263TIP3    H1 6795   1.584   0.616   2.390
 2263TIP3    H2 6796   1.510   0.665   2.267
 2264TIP3   OH2 6797   3.155   5.745   2.311
 2264TIP3    H1 6798   3.128   5.713   2.225
 2264TIP3    H2 6799   3.222   5.684   2.340
 2265TIP3   OH2 6800   4.249   2.339   3.867
 2265TIP3    H1 6801   4.195   2.393   3.925
 2265TIP3    H2 6802   4.203   2.255   3.864
 2266TIP3   OH2 6803   0.996   1.479   4.317
 2266TIP3    H1 6804   0.977   1.389   4.344
 2266TIP3    H2 6805   1.062   1.470   4.248
 2267TIP3   OH2 6806   0.089   3.371   3.167
 2267TIP3    H1 6807   0.015   3.405   3.218
 2267TIP3    H2 6808   0.128   3.448   3.126
 2268TIP3   OH2 6809   0.060   3.104   3.161
 2268TIP3    H1 6810   0.050   3.199   3.170
 2268TIP3    H2 6811  -0.010   3.078   3.101
 2269TIP3   OH2 6812   0.631   4.632   1.157
 2269TIP3    H1 6813   0.600   4.605   1.243
 2269TIP3    H2 6814   0.671   4.718   1.172
 2270TIP3   OH2 6815   1.788   5.468   0.039
 2270TIP3    H1 6816   1.818   5.439   0.125
 2270TIP3    H2 6817   1.836   5.413  -0.023
 2271TIP3   OH2 6818   2.786   2.946   2.646
 2271TIP3    H1 6819   2.728   2.884   2.690
 2271TIP3    H2 6820   2.835   2.988   2.717
 2272TIP3   OH2 6821   4.585   0.387   2.227
 2272TIP3    H1 6822   4.588   0.478   2.198
 2272TIP3    H2 6823   4.590   0.335   2.146
 2273TIP3   OH2 6824   3.177   0.441   2.247
 2273TIP3    H1 6825   3.259   0.425   2.294
 2273TIP3    H2 6826   3.165   0.363   2.192
 2274TIP3   OH2 6827   5.009   2.758   3.435
 2274TIP3    H1 6828   5.002   2.842   3.480
 2274TIP3    H2 6829   5.093   2.762   3.390
 2275TIP3   OH2 6830   4.912   2.716   4.760
 2275TIP3    H1 6831   4.890   2.804   4.789
 2275TIP3    H2 6832   4.828   2.669   4.758
 2276TIP3   OH2 6833   1.992   0.242   0.218
 2276TIP3    H1 6834   2.001   0.154   0.255
 2276TIP3    H2 6835   2.063   0.249   0.155
 2277TIP3   OH2 6836   3.438   0.865   0.877
 2277TIP3    H1 6837   3.369   0.811   0.839
 2277TIP3    H2 6838   3.413   0.955   0.857
 2278TIP3   OH2 6839   5.335   0.791   0.829
 2278TIP3    H1 6840   5.339   0.815   0.736
 2278TIP3    H2 6841   5.396   0.851   0.872
 2279TIP3   OH2 6842   2.705   2.647   4.292
 2279TIP3    H1 6843   2.626   2.688   4.326
 2279TIP3    H2 6844   2.708   2.561   4.335
 2280TIP3   OH2 6845   5.929   1.824   4.984
 2280TIP3    H1 6846   6.003   1.819   5.044
 2280TIP3    H2 6847   5.954   1.770   4.910
 2281TIP3   OH2 6848   6.251   3.778   4.705
 2281TIP3    H1 6849   6.159   3.751   4.708
 2281TIP3    H2 6850   6.284   3.742   4.623
 2282TIP3   OH2 6851   5.494   1.861   3.463
 2282TIP3    H1 6852   5.531   1.773   3.472
 2282TIP3    H2 6853   5.451   1.860   3.377
 2283TIP3   OH2 6854   2.094   4.494   1.961
 2283TIP3    H1 6855   2.132   4.576   1.932
 2283TIP3    H2 6856   2.164   4.450   2.010
 2284TIP3   OH2 6857   1.077   2.477   0.257
 2284TIP3    H1 6858   1.082   2.571   0.270
 2284TIP3    H2 6859   0.991   2.452   0.290
 2285TIP3   OH2 6860   6.286   1.963   1.112
 2285TIP3    H1 6861   6.348   1.909   1.161
 2285TIP3    H2 6862   6.289   1.927   1.023
 2286TIP3   OH2 6863   4.626   4.777   0.839
 2286TIP3    H1 6864   4.678   4.771   0.919
 2286TIP3    H2 6865   4.686   4.812   0.774
 2287TIP3   OH2 6866   1.335   1.458   0.559
 2287TIP3    H1 6867   1.256   1.481   0.608
 2287TIP3    H2 6868   1.358   1.537   0.511
 2288TIP3   OH2 6869   3.075   2.850   3.193
 2288TIP3    H1 6870   3.160   2.823   3.160
 2288TIP3    H2 6871   3.089   2.939   3.226
 2289TIP3   OH2 6872   0.559   2.782   3.636
 2289TIP3    H1 6873   0.507   2.862   3.641
 2289TIP3    H2 6874   0.515   2.720   3.694
 2290TIP3   OH2 6875   4.251   2.051   0.581
 2290TIP3    H1 6876   4.157   2.055   0.561
 2290TIP3    H2 6877   4.271   2.137   0.618
 2291TIP3   OH2 6878   5.513   2.994   4.707
 2291TIP3    H1 6879   5.454   3.024   4.638
 2291TIP3    H2 6880   5.497   2.900   4.712
 2292TIP3   OH2 6881   3.884   5.109   3.121
 2292TIP3    H1 6882   3.815   5.117   3.188
 2292TIP3    H2 6883   3.903   5.200   3.096
 2293TIP3   OH2 6884   3.944   0.375   2.372
 2293TIP3    H1 6885   3.996   0.402   2.297
 2293TIP3    H2 6886   4.006   0.374   2.445
 2294TIP3   OH2 6887   1.257   5.631   0.307
 2294TIP3    H1 6888   1.345   5.654   0.278
 2294TIP3    H2 6889   1.206   5.711   0.296
 2295TIP3   OH2 6890   3.587   3.488   2.644
 2295TIP3    H1 6891   3.571   3.393   2.647
 2295TIP3    H2 6892   3.510   3.527   2.685
 2296TIP3   OH2 6893   3.389   1.794   0.991
 2296TIP3    H1 6894   3.377   1.759   0.903
 2296TIP3    H2 6895   3.329   1.869   0.995
 2297TIP3   OH2 6896   5.407   4.657   0.270
 2297TIP3    H1 6897   5.491   4.673   0.313
 2297TIP3    H2 6898   5.412   4.708   0.189
 2298TIP3   OH2 6899   1.425   3.564   1.871
 2298TIP3    H1 6900   1.378   3.558   1.954
 2298TIP3    H2 6901   1.512   3.593   1.895
 2299TIP3   OH2 6902   5.133   5.733   3.121
 2299TIP3    H1 6903   5.128   5.817   3.166
 2299TIP3    H2 6904   5.045   5.718   3.088
 2300TIP3   OH2 6905   2.853   4.176   2.747
 2300TIP3    H1 6906   2.890   4.247   2.696
 2300TIP3    H2 6907   2.905   4.099   2.724
 2301TIP3   OH2 6908   1.020   0.903   0.527
 2301TIP3    H1 6909   0.944   0.848   0.508
 2301TIP3    H2 6910   0.993   0.954   0.604
 2302TIP3   OH2 6911   2.584   4.445   2.768
 2302TIP3    H1 6912   2.601   4.506   2.696
 2302TIP3    H2 6913   2.647   4.471   2.836
 2303TIP3   OH2 6914   2.429   5.158   3.761
 2303TIP3    H1 6915   2.362   5.202   3.709
 2303TIP3    H2 6916   2.394   5.070   3.776
 2304TIP3   OH2 6917   5.188   2.911   4.544
 2304TIP3    H1 6918   5.097   2.930   4.520
 2304TIP3    H2 6919   5.192   2.815   4.547
 2305TIP3   OH2 6920   5.232   0.639   1.536
 2305TIP3    H1 6921   5.313   0.610   1.495
 2305TIP3    H2 6922   5.255   0.723   1.577
 2306TIP3   OH2 6923   0.256   2.881   3.948
 2306TIP3    H1 6924   0.168   2.845   3.936
 2306TIP3    H2 6925   0.277   2.862   4.040
 2307TIP3   OH2 6926   1.347   1.611   4.052
 2307TIP3    H1 6927   1.377   1.595   4.141
 2307TIP3    H2 6928   1.424   1.596   3.997
 2308TIP3   OH2 6929   4.859   5.077   4.333
 2308TIP3    H1 6930   4.878   5.112   4.420
 2308TIP3    H2 6931   4.942   5.085   4.286
 2309TIP3   OH2 6932   3.603   4.108   0.454
 2309TIP3    H1 6933   3.530   4.056   0.487
 2309TIP3    H2 6934   3.611   4.180   0.516
 2310TIP3   OH2 6935   2.385   5.164   2.877
 2310TIP3    H1 6936   2.415   5.249   2.846
 2310TIP3    H2 6937   2.386   5.108   2.799
 2311TIP3   OH2 6938   0.500   4.793   2.097
 2311TIP3    H1 6939   0.436   4.775   2.166
 2311TIP3    H2 6940   0.542   4.875   2.124
 2312TIP3   OH2 6941   3.042   5.719   3.266
 2312TIP3    H1 6942   3.041   5.723   3.170
 2312TIP3    H2 6943   3.135   5.712   3.288
 2313TIP3   OH2 6944   2.614   5.652   2.340
 2313TIP3    H1 6945   2.683   5.594   2.308
 2313TIP3    H2 6946   2.616   5.727   2.281
 2314TIP3   OH2 6947   3.275   4.415   2.260
 2314TIP3    H1 6948   3.286   4.349   2.329
 2314TIP3    H2 6949   3.250   4.364   2.183
 2315TIP3   OH2 6950   6.236   4.484   0.368
 2315TIP3    H1 6951   6.179   4.407   0.372
 2315TIP3    H2 6952   6.321   4.450   0.340
 2316TIP3   OH2 6953   4.402   5.027   2.557
 2316TIP3    H1 6954   4.318   5.055   2.520
 2316TIP3    H2 6955   4.466   5.088   2.520
 2317TIP3   OH2 6956   5.969   2.597   3.358
 2317TIP3    H1 6957   5.952   2.548   3.439
 2317TIP3    H2 6958   6.016   2.535   3.302
 2318TIP3   OH2 6959   6.354   2.314   3.889
 2318TIP3    H1 6960   6.404   2.380   3.938
 2318TIP3    H2 6961   6.314   2.259   3.957
 2319TIP3   OH2 6962   0.677   3.489   4.612
 2319TIP3    H1 6963   0.766   3.507   4.581
 2319TIP3    H2 6964   0.689   3.434   4.690
 2320TIP3   OH2 6965   5.406   4.897   2.202
 2320TIP3    H1 6966   5.326   4.845   2.205
 2320TIP3    H2 6967   5.382   4.981   2.242
 2321TIP3   OH2 6968   2.475   5.747   4.422
 2321TIP3    H1 6969   2.420   5.679   4.461
 2321TIP3    H2 6970   2.557   5.702   4.402
 2322TIP3   OH2 6971   5.072   4.830   2.786
 2322TIP3    H1 6972   4.989   4.872   2.762
 2322TIP3    H2 6973   5.117   4.894   2.841
 2323TIP3   OH2 6974   5.020   0.765   0.481
 2323TIP3    H1 6975   5.086   0.807   0.537
 2323TIP3    H2 6976   4.940   0.765   0.533
 2324TIP3   OH2 6977   4.483   1.065   0.829
 2324TIP3    H1 6978   4.554   1.105   0.778
 2324TIP3    H2 6979   4.430   1.018   0.765
 2325TIP3   OH2 6980   0.820   4.422   2.178
 2325TIP3    H1 6981   0.826   4.398   2.085
 2325TIP3    H2 6982   0.856   4.347   2.225
 2326TIP3   OH2 6983   3.351   1.571   1.690
 2326TIP3    H1 6984   3.265   1.599   1.658
 2326TIP3    H2 6985   3.392   1.651   1.722
 2327TIP3   OH2 6986   5.096   2.655   4.348
 2327TIP3    H1 6987   5.070   2.567   4.321
 2327TIP3    H2 6988   5.121   2.645   4.440
 2328TIP3   OH2 6989   4.571   2.464   4.382
 2328TIP3    H1 6990   4.518   2.537   4.414
 2328TIP3    H2 6991   4.649   2.505   4.344
 2329TIP3   OH2 6992   3.719   0.046   4.578
 2329TIP3    H1 6993   3.698   0.065   4.487
 2329TIP3    H2 6994   3.779   0.116   4.604
 2330TIP3   OH2 6995   4.293   5.487   1.058
 2330TIP3    H1 6996   4.267   5.455   0.971
 2330TIP3    H2 6997   4.362   5.427   1.086
 2331TIP3   OH2 6998   2.976   4.870   5.115
 2331TIP3    H1 6999   3.015   4.901   5.033
 2331TIP3    H2 7000   3.034   4.800   5.145
 2332TIP3   OH2 7001   0.316   4.793   0.292
 2332TIP3    H1 7002   0.389   4.848   0.262
 2332TIP3    H2 7003   0.355   4.706   0.304
 2333TIP3   OH2 7004   3.092   5.116   1.441
 2333TIP3    H1 7005   3.109   5.131   1.534
 2333TIP3    H2 7006   3.006   5.072   1.439
 2334TIP3   OH2 7007   1.813   0.178   0.713
 2334TIP3    H1 7008   1.883   0.129   0.670
 2334TIP3    H2 7009   1.858   0.250   0.758
 2335TIP3   OH2 7010   4.198   0.612   4.264
 2335TIP3    H1 7011   4.260   0.670   4.220
 2335TIP3    H2 7012   4.129   0.597   4.199
 2336TIP3   OH2 7013   0.862   1.699   4.201
 2336TIP3    H1 7014   0.904   1.618   4.229
 2336TIP3    H2 7015   0.785   1.670   4.151
 2337TIP3   OH2 7016   3.917   2.964   4.596
 2337TIP3    H1 7017   3.874   2.997   4.675
 2337TIP3    H2 7018   4.002   2.931   4.628
 2338TIP3   OH2 7019   1.333   5.288   0.682
 2338TIP3    H1 7020   1.251   5.290   0.633
 2338TIP3    H2 7021   1.316   5.232   0.757
 2339TIP3   OH2 7022   4.566   2.892   4.948
 2339TIP3    H1 7023   4.647   2.921   4.905
 2339TIP3    H2 7024   4.581   2.800   4.967
 2340TIP3   OH2 7025   5.172   0.171   2.083
 2340TIP3    H1 7026   5.208   0.249   2.041
 2340TIP3    H2 7027   5.084   0.196   2.110
 2341TIP3   OH2 7028   4.816   0.128   4.397
 2341TIP3    H1 7029   4.843   0.212   4.434
 2341TIP3    H2 7030   4.721   0.125   4.410
 2342TIP3   OH2 7031   1.367   2.281   2.997
 2342TIP3    H1 7032   1.307   2.353   3.016
 2342TIP3    H2 7033   1.314   2.217   2.951
 2343TIP3   OH2 7034   4.537   1.771   4.165
 2343TIP3    H1 7035   4.464   1.820   4.204
 2343TIP3    H2 7036   4.495   1.703   4.113
 2344TIP3   OH2 7037   0.250   5.931   0.382
 2344TIP3    H1 7038   0.269   5.987   0.457
 2344TIP3    H2 7039   0.185   5.869   0.414
 2345TIP3   OH2 7040   1.601   3.299   4.349
 2345TIP3    H1 7041   1.664   3.291   4.421
 2345TIP3    H2 7042   1.611   3.217   4.300
 2346TIP3   OH2 7043   5.939   5.686   4.070
 2346TIP3    H1 7044   6.001   5.710   4.002
 2346TIP3    H2 7045   5.923   5.593   4.056
 2347TIP3   OH2 7046   5.633   3.776   0.417
 2347TIP3    H1 7047   5.647   3.734   0.332
 2347TIP3    H2 7048   5.559   3.836   0.403
 2348TIP3   OH2 7049   1.241   3.108   4.782
 2348TIP3    H1 7050   1.302   3.076   4.849
 2348TIP3    H2 7051   1.159   3.123   4.829
 2349TIP3   OH2 7052   0.207   5.077   1.672
 2349TIP3    H1 7053   0.151   5.068   1.595
 2349TIP3    H2 7054   0.148   5.062   1.746
 2350TIP3   OH2 7055   6.024   3.255   3.482
 2350TIP3    H1 7056   5.974   3.290   3.408
 2350TIP3    H2 7057   6.085   3.193   3.443
 2351TIP3   OH2 7058   3.858   2.875   3.616
 2351TIP3    H1 7059   3.823   2.804   3.562
 2351TIP3    H2 7060   3.940   2.900   3.572
 2352TIP3   OH2 7061   2.324   5.727   2.294
 2352TIP3    H1 7062   2.413   5.736   2.261
 2352TIP3    H2 7063   2.275   5.688   2.221
 2353TIP3   OH2 7064   2.206   0.912   1.525
 2353TIP3    H1 7065   2.274   0.977   1.511
 2353TIP3    H2 7066   2.252   0.828   1.530
 2354TIP3   OH2 7067   0.682   0.533   1.100
 2354TIP3    H1 7068   0.744   0.490   1.158
 2354TIP3    H2 7069   0.612   0.565   1.158
 2355TIP3   OH2 7070   4.798   3.295   2.162
 2355TIP3    H1 7071   4.861   3.238   2.207
 2355TIP3    H2 7072   4.745   3.332   2.232
 2356TIP3   OH2 7073   3.855   3.925   4.420
 2356TIP3    H1 7074   3.941   3.903   4.382
 2356TIP3    H2 7075   3.861   4.018   4.441
 2357TIP3   OH2 7076   3.670   4.496   3.220
 2357TIP3    H1 7077   3.623   4.579   3.229
 2357TIP3    H2 7078   3.718   4.486   3.302
 2358TIP3   OH2 7079   4.697   5.272   2.699
 2358TIP3    H1 7080   4.654   5.238   2.620
 2358TIP3    H2 7081   4.790   5.273   2.677
 2359TIP3   OH2 7082   0.779   2.001   0.919
 2359TIP3    H1 7083   0.732   2.076   0.882
 2359TIP3    H2 7084   0.760   2.006   1.013
 2360TIP3   OH2 7085   2.845   0.071   4.437
 2360TIP3    H1 7086   2.790   0.002   4.402
 2360TIP3    H2 7087   2.860   0.045   4.528
 2361TIP3   OH2 7088   1.334   1.159   3.334
 2361TIP3    H1 7089   1.240   1.159   3.317
 2361TIP3    H2 7090   1.374   1.189   3.252
 2362TIP3   OH2 7091   5.354   4.522   3.541
 2362TIP3    H1 7092   5.300   4.555   3.613
 2362TIP3    H2 7093   5.300   4.534   3.463
 2363TIP3   OH2 7094   5.229   0.525   1.208
 2363TIP3    H1 7095   5.248   0.618   1.202
 2363TIP3    H2 7096   5.146   0.520   1.257
 2364TIP3   OH2 7097   5.255   5.034   2.881
 2364TIP3    H1 7098   5.248   5.092   2.956
 2364TIP3    H2 7099   5.254   5.092   2.805
 2365TIP3   OH2 7100   2.246   4.766   0.316
 2365TIP3    H1 7101   2.295   4.739   0.239
 2365TIP3    H2 7102   2.178   4.700   0.326
 2366TIP3   OH2 7103   4.104   5.051   4.207
 2366TIP3    H1 7104   4.110   5.132   4.155
 2366TIP3    H2 7105   4.076   4.984   4.144
 2367TIP3   OH2 7106   3.046   4.182   0.833
 2367TIP3    H1 7107   3.097   4.251   0.874
 2367TIP3    H2 7108   2.980   4.228   0.782
 2368TIP3   OH2 7109   0.156   1.286   2.237
 2368TIP3    H1 7110   0.195   1.201   2.257
 2368TIP3    H2 7111   0.231   1.345   2.227
 2369TIP3   OH2 7112   3.157   0.859   2.618
 2369TIP3    H1 7113   3.146   0.952   2.599
 2369TIP3    H2 7114   3.089   0.815   2.568
 2370TIP3   OH2 7115   2.792   4.520   0.917
 2370TIP3    H1 7116   2.851   4.486   0.984
 2370TIP3    H2 7117   2.727   4.571   0.965
 2371TIP3   OH2 7118   0.492   2.485   1.178
 2371TIP3    H1 7119   0.410   2.490   1.130
 2371TIP3    H2 7120   0.513   2.576   1.200
 2372TIP3   OH2 7121   5.584   1.920   2.351
 2372TIP3    H1 7122   5.522   1.993   2.347
 2372TIP3    H2 7123   5.622   1.915   2.264
 2373TIP3   OH2 7124   4.485   1.560   3.889
 2373TIP3    H1 7125   4.400   1.576   3.928
 2373TIP3    H2 7126   4.481   1.599   3.802
 2374TIP3   OH2 7127   6.276   2.117   4.389
 2374TIP3    H1 7128   6.212   2.185   4.370
 2374TIP3    H2 7129   6.358   2.164   4.404
 2375TIP3   OH2 7130   1.946   1.468   3.315
 2375TIP3    H1 7131   1.946   1.453   3.221
 2375TIP3    H2 7132   1.854   1.461   3.340
 2376TIP3   OH2 7133   2.579   1.788   1.328
 2376TIP3    H1 7134   2.505   1.809   1.272
 2376TIP3    H2 7135   2.653   1.836   1.290
 2377TIP3   OH2 7136   5.877   0.053   1.639
 2377TIP3    H1 7137   5.970   0.029   1.644
 2377TIP3    H2 7138   5.831  -0.030   1.635
 2378TIP3   OH2 7139   3.803   1.894   5.037
 2378TIP3    H1 7140   3.727   1.906   4.980
 2378TIP3    H2 7141   3.793   1.961   5.104
 2379TIP3   OH2 7142   4.112   2.953   3.466
 2379TIP3    H1 7143   4.128   3.016   3.395
 2379TIP3    H2 7144   4.170   2.982   3.537
 2380TIP3   OH2 7145   6.032   5.129   0.230
 2380TIP3    H1 7146   6.098   5.070   0.267
 2380TIP3    H2 7147   6.008   5.187   0.302
 2381TIP3   OH2 7148   3.921   5.348   0.046
 2381TIP3    H1 7149   3.861   5.337   0.120
 2381TIP3    H2 7150   3.871   5.399  -0.018
 2382TIP3   OH2 7151   3.745   0.001   0.485
 2382TIP3    H1 7152   3.716  -0.084   0.519
 2382TIP3    H2 7153   3.681   0.023   0.417
 2383TIP3   OH2 7154   2.979   4.425   1.110
 2383TIP3    H1 7155   3.058   4.374   1.095
 2383TIP3    H2 7156   3.011   4.511   1.138
 2384TIP3   OH2 7157   0.392   0.454   3.444
 2384TIP3    H1 7158   0.461   0.415   3.391
 2384TIP3    H2 7159   0.431   0.533   3.481
 2385TIP3   OH2 7160   5.512   5.319   3.999
 2385TIP3    H1 7161   5.581   5.268   4.040
 2385TIP3    H2 7162   5.548   5.345   3.914
 2386TIP3   OH2 7163   3.060   0.259   4.887
 2386TIP3    H1 7164   3.155   0.246   4.896
 2386TIP3    H2 7165   3.029   0.181   4.842
 2387TIP3   OH2 7166   4.722   1.969   3.614
 2387TIP3    H1 7167   4.638   1.937   3.583
 2387TIP3    H2 7168   4.742   1.916   3.691
 2388TIP3   OH2 7169   0.049   5.745   0.493
 2388TIP3    H1 7170  -0.024   5.734   0.432
 2388TIP3    H2 7171   0.010   5.735   0.580
 2389TIP3   OH2 7172   3.531   1.034   4.206
 2389TIP3    H1 7173   3.449   1.023   4.158
 2389TIP3    H2 7174   3.524   1.120   4.247
 2390TIP3   OH2 7175   5.884  -0.008   5.172
 2390TIP3    H1 7176   5.791  -0.010   5.148
 2390TIP3    H2 7177   5.929  -0.022   5.089
 2391TIP3   OH2 7178   4.046   4.984   3.288
 2391TIP3    H1 7179   4.115   4.935   3.244
 2391TIP3    H2 7180   3.987   5.012   3.218
 2392TIP3   OH2 7181   6.196   4.750   4.113
 2392TIP3    H1 7182   6.147   4.832   4.112
 2392TIP3    H2 7183   6.192   4.720   4.204
 2393TIP3   OH2 7184   6.135   5.496   0.135
 2393TIP3    H1 7185   6.064   5.458   0.084
 2393TIP3    H2 7186   6.202   5.518   0.070
 2394TIP3   OH2 7187   5.482   1.975   2.632
 2394TIP3    H1 7188   5.536   1.925   2.572
 2394TIP3    H2 7189   5.407   2.004   2.580
 2395TIP3   OH2 7190   0.871  -0.006   3.237
 2395TIP3    H1 7191   0.846   0.085   3.223
 2395TIP3    H2 7192   0.959  -0.001   3.275
 2396TIP3   OH2 7193   1.931   4.117   4.472
 2396TIP3    H1 7194   1.912   4.039   4.419
 2396TIP3    H2 7195   1.896   4.096   4.558
 2397TIP3   OH2 7196   1.658   2.796   0.447
 2397TIP3    H1 7197   1.694   2.814   0.361
 2397TIP3    H2 7198   1.619   2.709   0.440
 2398TIP3   OH2 7199   4.934   2.403   4.263
 2398TIP3    H1 7200   4.908   2.368   4.348
 2398TIP3    H2 7201   4.865   2.464   4.240
 2399TIP3   OH2 7202   5.115   0.353   5.022
 2399TIP3    H1 7203   5.064   0.333   4.944
 2399TIP3    H2 7204   5.067   0.423   5.065
 2400TIP3   OH2 7205   6.333   2.447   2.489
 2400TIP3    H1 7206   6.410   2.499   2.466
 2400TIP3    H2 7207   6.263   2.512   2.502
 2401TIP3   OH2 7208   5.307   1.572   0.900
 2401TIP3    H1 7209   5.212   1.579   0.900
 2401TIP3    H2 7210   5.338   1.662   0.900
 2402TIP3   OH2 7211   0.941   1.041   3.075
 2402TIP3    H1 7212   0.981   1.011   2.993
 2402TIP3    H2 7213   0.894   1.120   3.051
 2403TIP3   OH2 7214   2.961   5.166   4.292
 2403TIP3    H1 7215   2.958   5.224   4.216
 2403TIP3    H2 7216   2.897   5.203   4.353
 2404TIP3   OH2 7217   0.442   1.998   0.847
 2404TIP3    H1 7218   0.369   2.040   0.893
 2404TIP3    H2 7219   0.512   2.063   0.849
 2405TIP3   OH2 7220   3.872   2.749   0.881
 2405TIP3    H1 7221   3.843   2.793   0.961
 2405TIP3    H2 7222   3.796   2.696   0.855
 2406TIP3   OH2 7223   2.229   3.827   4.577
 2406TIP3    H1 7224   2.269   3.740   4.577
 2406TIP3    H2 7225   2.136   3.810   4.563
 2407TIP3   OH2 7226   4.490   4.131   4.603
 2407TIP3    H1 7227   4.571   4.103   4.561
 2407TIP3    H2 7228   4.478   4.069   4.675
 2408TIP3   OH2 7229   3.703   0.669   2.354
 2408TIP3    H1 7230   3.636   0.603   2.338
 2408TIP3    H2 7231   3.699   0.726   2.277
 2409TIP3   OH2 7232   0.306   5.553   5.169
 2409TIP3    H1 7233   0.398   5.535   5.187
 2409TIP3    H2 7234   0.308   5.626   5.107
 2410TIP3   OH2 7235   5.740   1.262   0.311
 2410TIP3    H1 7236   5.659   1.224   0.345
 2410TIP3    H2 7237   5.782   1.190   0.264
 2411TIP3   OH2 7238   5.173   2.943   3.078
 2411TIP3    H1 7239   5.203   2.857   3.050
 2411TIP3    H2 7240   5.098   2.962   3.021
 2412TIP3   OH2 7241   0.867   3.917   1.286
 2412TIP3    H1 7242   0.791   3.943   1.338
 2412TIP3    H2 7243   0.894   3.997   1.241
 2413TIP3   OH2 7244   1.504   3.979   4.180
 2413TIP3    H1 7245   1.554   3.982   4.099
 2413TIP3    H2 7246   1.498   4.071   4.208
 2414TIP3   OH2 7247   5.144   4.443   1.977
 2414TIP3    H1 7248   5.235   4.470   1.991
 2414TIP3    H2 7249   5.117   4.488   1.897
 2415TIP3   OH2 7250   2.642   3.058   1.414
 2415TIP3    H1 7251   2.610   2.971   1.390
 2415TIP3    H2 7252   2.620   3.113   1.339
 2416TIP3   OH2 7253   0.553   0.581   0.296
 2416TIP3    H1 7254   0.542   0.518   0.367
 2416TIP3    H2 7255   0.524   0.664   0.332
 2417TIP3   OH2 7256   2.120   2.916   4.208
 2417TIP3    H1 7257   2.130   2.996   4.157
 2417TIP3    H2 7258   2.026   2.902   4.214
 2418TIP3   OH2 7259   0.168   3.592   0.566
 2418TIP3    H1 7260   0.197   3.679   0.594
 2418TIP3    H2 7261   0.132   3.605   0.478
 2419TIP3   OH2 7262   0.254   1.977   1.057
 2419TIP3    H1 7263   0.208   2.060   1.064
 2419TIP3    H2 7264   0.320   1.980   1.127
 2420TIP3   OH2 7265   3.419   0.436   4.902
 2420TIP3    H1 7266   3.487   0.415   4.966
 2420TIP3    H2 7267   3.343   0.459   4.955
 2421TIP3   OH2 7268   3.583   0.060   0.261
 2421TIP3    H1 7269   3.605   0.140   0.213
 2421TIP3    H2 7270   3.504   0.083   0.311
 2422TIP3   OH2 7271   3.695   0.564   1.929
 2422TIP3    H1 7272   3.680   0.478   1.969
 2422TIP3    H2 7273   3.767   0.601   1.980
 2423TIP3   OH2 7274   0.576   3.579   2.810
 2423TIP3    H1 7275   0.501   3.608   2.862
 2423TIP3    H2 7276   0.551   3.594   2.719
 2424TIP3   OH2 7277   3.184   2.853   0.309
 2424TIP3    H1 7278   3.117   2.921   0.314
 2424TIP3    H2 7279   3.263   2.899   0.281
 2425TIP3   OH2 7280   3.694   0.354   2.823
 2425TIP3    H1 7281   3.685   0.366   2.917
 2425TIP3    H2 7282   3.638   0.422   2.784
 2426TIP3   OH2 7283   2.230   3.678   3.371
 2426TIP3    H1 7284   2.230   3.774   3.377
 2426TIP3    H2 7285   2.307   3.657   3.318
 2427TIP3   OH2 7286   5.805   5.056   1.625
 2427TIP3    H1 7287   5.830   4.999   1.553
 2427TIP3    H2 7288   5.743   5.004   1.677
 2428TIP3   OH2 7289   5.528   3.709   0.830
 2428TIP3    H1 7290   5.482   3.777   0.780
 2428TIP3    H2 7291   5.474   3.694   0.907
 2429TIP3   OH2 7292   4.773   3.702   3.864
 2429TIP3    H1 7293   4.826   3.647   3.807
 2429TIP3    H2 7294   4.828   3.719   3.940
 2430TIP3   OH2 7295   0.701   5.833   0.181
 2430TIP3    H1 7296   0.711   5.770   0.252
 2430TIP3    H2 7297   0.678   5.780   0.105
 2431TIP3   OH2 7298   1.660   2.847   3.692
 2431TIP3    H1 7299   1.621   2.764   3.664
 2431TIP3    H2 7300   1.750   2.844   3.660
 2432TIP3   OH2 7301   1.959   1.981   4.502
 2432TIP3    H1 7302   1.993   2.069   4.519
 2432TIP3    H2 7303   1.879   1.975   4.554
 2433TIP3   OH2 7304   0.925   5.768   1.712
 2433TIP3    H1 7305   0.862   5.703   1.683
 2433TIP3    H2 7306   0.979   5.785   1.634
 2434TIP3   OH2 7307   2.986   1.070   4.106
 2434TIP3    H1 7308   3.013   1.079   4.015
 2434TIP3    H2 7309   2.890   1.066   4.103
 2435TIP3   OH2 7310   2.540   1.446   2.429
 2435TIP3    H1 7311   2.487   1.397   2.366
 2435TIP3    H2 7312   2.519   1.406   2.514
 2436TIP3   OH2 7313   5.657   1.363   5.034
 2436TIP3    H1 7314   5.590   1.324   5.090
 2436TIP3    H2 7315   5.724   1.295   5.026
 2437TIP3   OH2 7316   4.406   0.033   3.729
 2437TIP3    H1 7317   4.344   0.106   3.727
 2437TIP3    H2 7318   4.393  -0.007   3.816
 2438TIP3   OH2 7319   5.415   2.302   0.417
 2438TIP3    H1 7320   5.373   2.260   0.343
 2438TIP3    H2 7321   5.504   2.320   0.387
 2439TIP3   OH2 7322   4.857   4.266   4.820
 2439TIP3    H1 7323   4.771   4.273   4.780
 2439TIP3    H2 7324   4.873   4.172   4.827
 2440TIP3   OH2 7325   1.437   5.689   4.482
 2440TIP3    H1 7326   1.511   5.644   4.442
 2440TIP3    H2 7327   1.475   5.743   4.551
 2441TIP3   OH2 7328   0.665   4.542   2.641
 2441TIP3    H1 7329   0.715   4.573   2.717
 2441TIP3    H2 7330   0.695   4.598   2.569
 2442TIP3   OH2 7331   1.933   3.063   2.149
 2442TIP3    H1 7332   1.846   3.090   2.178
 2442TIP3    H2 7333   1.927   3.063   2.054
 2443TIP3   OH2 7334   6.191   2.882   2.383
 2443TIP3    H1 7335   6.102   2.909   2.405
 2443TIP3    H2 7336   6.207   2.917   2.296
 2444TIP3   OH2 7337   4.516   2.743   2.056
 2444TIP3    H1 7338   4.464   2.681   2.107
 2444TIP3    H2 7339   4.557   2.689   1.989
 2445TIP3   OH2 7340   0.496   1.743   0.960
 2445TIP3    H1 7341   0.453   1.825   0.937
 2445TIP3    H2 7342   0.520   1.704   0.876
 2446TIP3   OH2 7343   2.045   1.143   3.787
 2446TIP3    H1 7344   2.011   1.145   3.876
 2446TIP3    H2 7345   1.978   1.187   3.735
 2447TIP3   OH2 7346   3.916   5.601   4.653
 2447TIP3    H1 7347   3.948   5.529   4.706
 2447TIP3    H2 7348   3.921   5.568   4.563
 2448TIP3   OH2 7349   2.402   4.368   1.615
 2448TIP3    H1 7350   2.462   4.317   1.560
 2448TIP3    H2 7351   2.379   4.308   1.686
 2449TIP3   OH2 7352   0.599   3.999   0.659
 2449TIP3    H1 7353   0.529   4.061   0.678
 2449TIP3    H2 7354   0.562   3.914   0.680
 2450TIP3   OH2 7355   0.616   0.430   4.398
 2450TIP3    H1 7356   0.537   0.387   4.364
 2450TIP3    H2 7357   0.620   0.404   4.490
 2451TIP3   OH2 7358   5.462   2.643   0.229
 2451TIP3    H1 7359   5.387   2.586   0.214
 2451TIP3    H2 7360   5.502   2.653   0.142
 2452TIP3   OH2 7361   3.812   0.457   3.967
 2452TIP3    H1 7362   3.781   0.367   3.957
 2452TIP3    H2 7363   3.740   0.503   4.011
 2453TIP3   OH2 7364   2.580   5.280   4.189
 2453TIP3    H1 7365   2.525   5.353   4.161
 2453TIP3    H2 7366   2.572   5.216   4.119
 2454TIP3   OH2 7367   0.309   3.102   3.500
 2454TIP3    H1 7368   0.260   3.162   3.556
 2454TIP3    H2 7369   0.337   3.156   3.426
 2455TIP3   OH2 7370   1.562   2.759   2.921
 2455TIP3    H1 7371   1.512   2.681   2.897
 2455TIP3    H2 7372   1.500   2.830   2.914
 2456TIP3   OH2 7373   2.324   0.076   1.385
 2456TIP3    H1 7374   2.390   0.128   1.338
 2456TIP3    H2 7375   2.372   0.001   1.418
 2457TIP3   OH2 7376   0.498   5.247   2.749
 2457TIP3    H1 7377   0.415   5.289   2.726
 2457TIP3    H2 7378   0.475   5.156   2.767
 2458TIP3   OH2 7379   3.559   0.029   3.959
 2458TIP3    H1 7380   3.491   0.069   4.013
 2458TIP3    H2 7381   3.544   0.066   3.871
 2459TIP3   OH2 7382   2.261   2.124   0.735
 2459TIP3    H1 7383   2.222   2.043   0.767
 2459TIP3    H2 7384   2.312   2.097   0.658
 2460TIP3   OH2 7385   5.176   2.885   0.977
 2460TIP3    H1 7386   5.217   2.857   0.895
 2460TIP3    H2 7387   5.086   2.907   0.952
 2461TIP3   OH2 7388   2.558   5.586   3.888
 2461TIP3    H1 7389   2.586   5.632   3.809
 2461TIP3    H2 7390   2.618   5.616   3.956
 2462TIP3   OH2 7391   1.365   2.842   3.161
 2462TIP3    H1 7392   1.418   2.916   3.131
 2462TIP3    H2 7393   1.312   2.878   3.232
 2463TIP3   OH2 7394   1.853   0.095   3.863
 2463TIP3    H1 7395   1.770   0.100   3.816
 2463TIP3    H2 7396   1.828   0.090   3.955
 2464TIP3   OH2 7397   1.775   1.987   1.060
 2464TIP3    H1 7398   1.683   1.974   1.038
 2464TIP3    H2 7399   1.808   2.048   0.994
 2465TIP3   OH2 7400   6.286   0.060   0.499
 2465TIP3    H1 7401   6.313  -0.020   0.545
 2465TIP3    H2 7402   6.267   0.123   0.568
 2466TIP3   OH2 7403   2.570   5.527   4.770
 2466TIP3    H1 7404   2.636   5.545   4.704
 2466TIP3    H2 7405   2.501   5.480   4.723
 2467TIP3   OH2 7406   0.744   4.298   5.094
 2467TIP3    H1 7407   0.749   4.212   5.054
 2467TIP3    H2 7408   0.656   4.329   5.076
 2468TIP3   OH2 7409   0.950   2.523   3.815
 2468TIP3    H1 7410   0.973   2.613   3.795
 2468TIP3    H2 7411   0.871   2.507   3.763
 2469TIP3   OH2 7412   3.490   2.728   2.601
 2469TIP3    H1 7413   3.419   2.776   2.557
 2469TIP3    H2 7414   3.570   2.762   2.562
 2470TIP3   OH2 7415   2.004   3.755   0.253
 2470TIP3    H1 7416   1.998   3.688   0.184
 2470TIP3    H2 7417   2.019   3.706   0.333
 2471TIP3   OH2 7418   2.369   1.171   4.535
 2471TIP3    H1 7419   2.325   1.124   4.464
 2471TIP3    H2 7420   2.327   1.257   4.536
 2472TIP3   OH2 7421   4.216   1.378   3.929
 2472TIP3    H1 7422   4.144   1.438   3.949
 2472TIP3    H2 7423   4.224   1.381   3.833
 2473TIP3   OH2 7424   3.547   3.639   1.374
 2473TIP3    H1 7425   3.574   3.567   1.431
 2473TIP3    H2 7426   3.515   3.706   1.435
 2474TIP3   OH2 7427   3.423   2.297   4.386
 2474TIP3    H1 7428   3.392   2.214   4.423
 2474TIP3    H2 7429   3.345   2.336   4.347
 2475TIP3   OH2 7430   0.491   3.577   2.334
 2475TIP3    H1 7431   0.414   3.545   2.286
 2475TIP3    H2 7432   0.484   3.672   2.330
 2476TIP3   OH2 7433   2.137   5.717   3.494
 2476TIP3    H1 7434   2.106   5.638   3.450
 2476TIP3    H2 7435   2.107   5.708   3.585
 2477TIP3   OH2 7436   3.484   2.915   3.343
 2477TIP3    H1 7437   3.441   2.992   3.381
 2477TIP3    H2 7438   3.559   2.950   3.296
 2478TIP3   OH2 7439   2.772   1.721   2.449
 2478TIP3    H1 7440   2.749   1.778   2.375
 2478TIP3    H2 7441   2.865   1.701   2.436
 2479TIP3   OH2 7442   5.258   0.214   3.438
 2479TIP3    H1 7443   5.200   0.288   3.420
 2479TIP3    H2 7444   5.285   0.227   3.529
 2480TIP3   OH2 7445   6.031   2.202   2.690
 2480TIP3    H1 7446   6.041   2.283   2.641
 2480TIP3    H2 7447   6.070   2.135   2.634
 2481TIP3   OH2 7448   6.277   1.346   0.572
 2481TIP3    H1 7449   6.362   1.370   0.534
 2481TIP3    H2 7450   6.280   1.381   0.661
 2482TIP3   OH2 7451   4.963   1.911   1.729
 2482TIP3    H1 7452   4.959   1.994   1.777
 2482TIP3    H2 7453   4.929   1.846   1.791
 2483TIP3   OH2 7454   0.426   4.385   4.432
 2483TIP3    H1 7455   0.485   4.332   4.379
 2483TIP3    H2 7456   0.457   4.372   4.522
 2484TIP3   OH2 7457   1.144   3.570   3.887
 2484TIP3    H1 7458   1.092   3.638   3.931
 2484TIP3    H2 7459   1.221   3.617   3.854
 2485TIP3   OH2 7460   1.988   1.461   2.364
 2485TIP3    H1 7461   2.075   1.463   2.404
 2485TIP3    H2 7462   1.944   1.539   2.398
 2486TIP3   OH2 7463   3.055   2.065   1.853
 2486TIP3    H1 7464   3.012   2.134   1.903
 2486TIP3    H2 7465   3.145   2.094   1.845
 2487TIP3   OH2 7466   2.778   5.097   3.228
 2487TIP3    H1 7467   2.830   5.139   3.160
 2487TIP3    H2 7468   2.836   5.091   3.303
 2488TIP3   OH2 7469   3.985   4.910   2.970
 2488TIP3    H1 7470   4.042   4.944   2.901
 2488TIP3    H2 7471   3.933   4.986   2.997
 2489TIP3   OH2 7472   4.827   3.364   3.858
 2489TIP3    H1 7473   4.905   3.314   3.884
 2489TIP3    H2 7474   4.858   3.454   3.851
 2490TIP3   OH2 7475   0.240   1.904   4.573
 2490TIP3    H1 7476   0.292   1.983   4.560
 2490TIP3    H2 7477   0.303   1.837   4.600
 2491TIP3   OH2 7478   2.093   3.570   3.927
 2491TIP3    H1 7479   2.006   3.593   3.959
 2491TIP3    H2 7480   2.146   3.561   4.006
 2492TIP3   OH2 7481   4.802   1.682   1.825
 2492TIP3    H1 7482   4.718   1.667   1.783
 2492TIP3    H2 7483   4.867   1.647   1.764
 2493TIP3   OH2 7484   2.995   2.550   4.298
 2493TIP3    H1 7485   2.916   2.507   4.332
 2493TIP3    H2 7486   2.982   2.643   4.317
 2494TIP3   OH2 7487   0.540   4.509   2.267
 2494TIP3    H1 7488   0.594   4.571   2.218
 2494TIP3    H2 7489   0.601   4.468   2.328
 2495TIP3   OH2 7490   0.682   2.502   3.732
 2495TIP3    H1 7491   0.607   2.540   3.778
 2495TIP3    H2 7492   0.664   2.409   3.729
 2496TIP3   OH2 7493   1.409   4.970   4.834
 2496TIP3    H1 7494   1.463   4.896   4.805
 2496TIP3    H2 7495   1.333   4.969   4.776
 2497TIP3   OH2 7496   2.382   2.939   4.854
 2497TIP3    H1 7497   2.382   3.022   4.806
 2497TIP3    H2 7498   2.412   2.875   4.789
 2498TIP3   OH2 7499   2.256   1.371   2.264
 2498TIP3    H1 7500   2.225   1.307   2.328
 2498TIP3    H2 7501   2.193   1.366   2.192
 2499TIP3   OH2 7502   1.958   1.370   4.128
 2499TIP3    H1 7503   1.968   1.275   4.129
 2499TIP3    H2 7504   1.911   1.390   4.209
 2500TIP3   OH2 7505   1.465   4.451   3.819
 2500TIP3    H1 7506   1.455   4.472   3.726
 2500TIP3    H2 7507   1.496   4.360   3.820
 2501TIP3   OH2 7508   6.325   4.045   1.124
 2501TIP3    H1 7509   6.399   4.105   1.124
 2501TIP3    H2 7510   6.271   4.072   1.049
 2502TIP3   OH2 7511   1.822   3.466   4.925
 2502TIP3    H1 7512   1.747   3.525   4.931
 2502TIP3    H2 7513   1.855   3.460   5.015
 2503TIP3   OH2 7514   3.303   3.746   2.081
 2503TIP3    H1 7515   3.327   3.752   2.174
 2503TIP3    H2 7516   3.209   3.724   2.083
 2504TIP3   OH2 7517   0.050   2.170   1.541
 2504TIP3    H1 7518   0.037   2.254   1.584
 2504TIP3    H2 7519   0.126   2.183   1.484
 2505TIP3   OH2 7520   2.961   2.790   5.142
 2505TIP3    H1 7521   2.874   2.827   5.156
 2505TIP3    H2 7522   3.010   2.860   5.100
 2506TIP3   OH2 7523   1.337   3.554   3.519
 2506TIP3    H1 7524   1.306   3.463   3.520
 2506TIP3    H2 7525   1.350   3.576   3.611
 2507TIP3   OH2 7526   2.407   0.209   3.225
 2507TIP3    H1 7527   2.436   0.220   3.135
 2507TIP3    H2 7528   2.473   0.153   3.266
 2508TIP3   OH2 7529   5.295   3.517   1.924
 2508TIP3    H1 7530   5.317   3.595   1.873
 2508TIP3    H2 7531   5.379   3.475   1.941
 2509TIP3   OH2 7532   0.288   5.044   4.621
 2509TIP3    H1 7533   0.294   5.121   4.565
 2509TIP3    H2 7534   0.365   5.049   4.677
 2510TIP3   OH2 7535   3.762   4.984   0.915
 2510TIP3    H1 7536   3.817   4.969   0.838
 2510TIP3    H2 7537   3.806   4.936   0.986
 2511TIP3   OH2 7538   4.468   5.209   2.189
 2511TIP3    H1 7539   4.482   5.289   2.139
 2511TIP3    H2 7540   4.373   5.203   2.199
 2512TIP3   OH2 7541   2.462   5.059   3.129
 2512TIP3    H1 7542   2.424   5.086   3.046
 2512TIP3    H2 7543   2.416   4.978   3.151
 2513TIP3   OH2 7544   1.458   2.233   1.607
 2513TIP3    H1 7545   1.448   2.144   1.642
 2513TIP3    H2 7546   1.400   2.286   1.661
 2514TIP3   OH2 7547   2.377   0.574   1.929
 2514TIP3    H1 7548   2.309   0.597   1.992
 2514TIP3    H2 7549   2.375   0.478   1.924
 2515TIP3   OH2 7550   2.534   5.607   0.954
 2515TIP3    H1 7551   2.583   5.560   1.022
 2515TIP3    H2 7552   2.600   5.658   0.908
 2516TIP3   OH2 7553   5.721   4.654   2.714
 2516TIP3    H1 7554   5.744   4.702   2.634
 2516TIP3    H2 7555   5.638   4.611   2.693
 2517TIP3   OH2 7556   0.222   2.858   2.152
 2517TIP3    H1 7557   0.263   2.854   2.066
 2517TIP3    H2 7558   0.271   2.927   2.198
 2518TIP3   OH2 7559   1.843   2.187   1.522
 2518TIP3    H1 7560   1.777   2.249   1.554
 2518TIP3    H2 7561   1.880   2.230   1.445
 2519TIP3   OH2 7562   4.757   1.398   3.603
 2519TIP3    H1 7563   4.809   1.322   3.627
 2519TIP3    H2 7564   4.791   1.468   3.659
 2520TIP3   OH2 7565   3.097   1.845   2.659
 2520TIP3    H1 7566   3.039   1.858   2.734
 2520TIP3    H2 7567   3.089   1.751   2.639
 2521TIP3   OH2 7568   4.143   2.237   3.378
 2521TIP3    H1 7569   4.175   2.297   3.445
 2521TIP3    H2 7570   4.098   2.293   3.315
 2522TIP3   OH2 7571   2.540   1.671   0.482
 2522TIP3    H1 7572   2.620   1.627   0.510
 2522TIP3    H2 7573   2.566   1.724   0.407
 2523TIP3   OH2 7574   1.923   0.167   5.109
 2523TIP3    H1 7575   1.830   0.148   5.099
 2523TIP3    H2 7576   1.966   0.083   5.092
 2524TIP3   OH2 7577   5.304   1.296   4.021
 2524TIP3    H1 7578   5.345   1.210   4.036
 2524TIP3    H2 7579   5.312   1.310   3.927
 2525TIP3   OH2 7580   1.502   5.857   2.363
 2525TIP3    H1 7581   1.540   5.808   2.436
 2525TIP3    H2 7582   1.467   5.936   2.403
 2526TIP3   OH2 7583   0.168   5.033   2.636
 2526TIP3    H1 7584   0.195   4.943   2.656
 2526TIP3    H2 7585   0.084   5.043   2.680
 2527TIP3   OH2 7586   0.109   4.532   1.242
 2527TIP3    H1 7587   0.157   4.612   1.221
 2527TIP3    H2 7588   0.050   4.557   1.313
 2528TIP3   OH2 7589   5.419   0.542   2.876
 2528TIP3    H1 7590   5.482   0.565   2.808
 2528TIP3    H2 7591   5.334   0.552   2.834
 2529TIP3   OH2 7592   4.162   2.908   3.791
 2529TIP3    H1 7593   4.185   2.842   3.726
 2529TIP3    H2 7594   4.245   2.937   3.828
 2530TIP3   OH2 7595   2.459   2.162   2.619
 2530TIP3    H1 7596   2.496   2.216   2.689
 2530TIP3    H2 7597   2.378   2.205   2.596
 2531TIP3   OH2 7598   0.030   0.778   3.127
 2531TIP3    H1 7599  -0.002   0.868   3.121
 2531TIP3    H2 7600   0.110   0.783   3.179
 2532TIP3   OH2 7601   0.219   5.964   2.025
 2532TIP3    H1 7602   0.270   6.018   2.085
 2532TIP3    H2 7603   0.246   5.874   2.045
 2533TIP3   OH2 7604   6.409   5.369   0.206
 2533TIP3    H1 7605   6.411   5.383   0.301
 2533TIP3    H2 7606   6.316   5.381   0.182
 2534TIP3   OH2 7607   2.347   1.643   0.121
 2534TIP3    H1 7608   2.373   1.596   0.201
 2534TIP3    H2 7609   2.416   1.709   0.110
 2535TIP3   OH2 7610   0.730   4.388   0.411
 2535TIP3    H1 7611   0.798   4.429   0.465
 2535TIP3    H2 7612   0.678   4.337   0.474
 2536TIP3   OH2 7613   5.142   5.764   1.075
 2536TIP3    H1 7614   5.188   5.819   1.011
 2536TIP3    H2 7615   5.192   5.774   1.156
 2537TIP3   OH2 7616   0.537   2.824   0.217
 2537TIP3    H1 7617   0.449   2.792   0.197
 2537TIP3    H2 7618   0.525   2.916   0.241
 2538TIP3   OH2 7619   5.249   4.437   0.003
 2538TIP3    H1 7620   5.289   4.460  -0.081
 2538TIP3    H2 7621   5.323   4.424   0.062
 2539TIP3   OH2 7622   2.245   4.927   0.569
 2539TIP3    H1 7623   2.244   4.874   0.490
 2539TIP3    H2 7624   2.337   4.952   0.581
 2540TIP3   OH2 7625   3.425   1.496   4.980
 2540TIP3    H1 7626   3.396   1.408   5.001
 2540TIP3    H2 7627   3.480   1.522   5.054
 2541TIP3   OH2 7628   1.208   5.519   2.636
 2541TIP3    H1 7629   1.123   5.502   2.596
 2541TIP3    H2 7630   1.239   5.600   2.594
 2542TIP3   OH2 7631   0.662   4.308   3.985
 2542TIP3    H1 7632   0.571   4.338   3.973
 2542TIP3    H2 7633   0.679   4.323   4.078
 2543TIP3   OH2 7634   5.817   1.026   1.480
 2543TIP3    H1 7635   5.769   1.044   1.561
 2543TIP3    H2 7636   5.854   0.939   1.493
 2544TIP3   OH2 7637   0.324   5.893   0.835
 2544TIP3    H1 7638   0.310   5.802   0.861
 2544TIP3    H2 7639   0.262   5.942   0.889
 2545TIP3   OH2 7640   5.838   4.056   0.338
 2545TIP3    H1 7641   5.856   3.999   0.263
 2545TIP3    H2 7642   5.746   4.081   0.328
 2546TIP3   OH2 7643   4.271   3.009   4.450
 2546TIP3    H1 7644   4.244   3.099   4.469
 2546TIP3    H2 7645   4.335   2.988   4.517
 2547TIP3   OH2 7646   1.395   3.179   0.756
 2547TIP3    H1 7647   1.367   3.266   0.725
 2547TIP3    H2 7648   1.417   3.131   0.676
 2548TIP3   OH2 7649   1.706   0.380   2.655
 2548TIP3    H1 7650   1.622   0.358   2.695
 2548TIP3    H2 7651   1.697   0.473   2.632
 2549TIP3   OH2 7652   6.079   4.647   3.132
 2549TIP3    H1 7653   6.162   4.639   3.179
 2549TIP3    H2 7654   6.103   4.645   3.040
 2550TIP3   OH2 7655   2.323   0.675   1.660
 2550TIP3    H1 7656   2.247   0.653   1.714
 2550TIP3    H2 7657   2.399   0.648   1.711
 2551TIP3   OH2 7658   2.240   2.342   3.909
 2551TIP3    H1 7659   2.209   2.254   3.927
 2551TIP3    H2 7660   2.177   2.400   3.953
 2552TIP3   OH2 7661   1.729   5.365   3.912
 2552TIP3    H1 7662   1.647   5.348   3.866
 2552TIP3    H2 7663   1.702   5.379   4.003
 2553TIP3   OH2 7664   5.577   5.357   3.362
 2553TIP3    H1 7665   5.509   5.322   3.305
 2553TIP3    H2 7666   5.659   5.336   3.317
 2554TIP3   OH2 7667   4.991   0.520   3.947
 2554TIP3    H1 7668   5.066   0.462   3.936
 2554TIP3    H2 7669   4.960   0.501   4.036
 2555TIP3   OH2 7670   3.326   5.041   2.937
 2555TIP3    H1 7671   3.276   5.033   3.019
 2555TIP3    H2 7672   3.278   4.987   2.874
 2556TIP3   OH2 7673   1.545   5.836   2.672
 2556TIP3    H1 7674   1.459   5.879   2.664
 2556TIP3    H2 7675   1.552   5.813   2.765
 2557TIP3   OH2 7676   3.940   4.197   5.166
 2557TIP3    H1 7677   3.924   4.224   5.256
 2557TIP3    H2 7678   3.863   4.144   5.143
 2558TIP3   OH2 7679   2.950   3.017   4.203
 2558TIP3    H1 7680   2.993   2.962   4.268
 2558TIP3    H2 7681   3.005   3.009   4.125
 2559TIP3   OH2 7682   1.884   3.698   0.984
 2559TIP3    H1 7683   1.902   3.789   1.007
 2559TIP3    H2 7684   1.826   3.667   1.054
 2560TIP3   OH2 7685   1.714   0.138   1.894
 2560TIP3    H1 7686   1.682   0.120   1.982
 2560TIP3    H2 7687   1.760   0.222   1.902
 2561TIP3   OH2 7688   4.302   2.711   3.327
 2561TIP3    H1 7689   4.308   2.764   3.406
 2561TIP3    H2 7690   4.372   2.647   3.334
 2562TIP3   OH2 7691   5.578   0.643   4.299
 2562TIP3    H1 7692   5.569   0.580   4.227
 2562TIP3    H2 7693   5.661   0.621   4.340
 2563TIP3   OH2 7694   2.764   1.963   1.225
 2563TIP3    H1 7695   2.781   1.896   1.160
 2563TIP3    H2 7696   2.801   2.043   1.188
 2564TIP3   OH2 7697   5.236   2.847   4.158
 2564TIP3    H1 7698   5.245   2.943   4.158
 2564TIP3    H2 7699   5.142   2.832   4.163
 2565TIP3   OH2 7700   5.769   1.356   3.368
 2565TIP3    H1 7701   5.807   1.273   3.397
 2565TIP3    H2 7702   5.710   1.381   3.439
 2566TIP3   OH2 7703   0.275   4.444   2.434
 2566TIP3    H1 7704   0.308   4.483   2.515
 2566TIP3    H2 7705   0.317   4.494   2.364
 2567TIP3   OH2 7706   2.827   5.922   3.801
 2567TIP3    H1 7707   2.803   5.835   3.832
 2567TIP3    H2 7708   2.809   5.920   3.707
 2568TIP3   OH2 7709   2.804   4.795   2.886
 2568TIP3    H1 7710   2.853   4.809   2.805
 2568TIP3    H2 7711   2.716   4.826   2.866
 2569TIP3   OH2 7712   0.223   0.891   2.776
 2569TIP3    H1 7713   0.279   0.885   2.853
 2569TIP3    H2 7714   0.178   0.807   2.773
 2570TIP3   OH2 7715   1.347   0.637   3.513
 2570TIP3    H1 7716   1.331   0.612   3.604
 2570TIP3    H2 7717   1.340   0.732   3.512
 2571TIP3   OH2 7718   6.018   4.249   0.376
 2571TIP3    H1 7719   5.975   4.164   0.370
 2571TIP3    H2 7720   5.980   4.301   0.305
 2572TIP3   OH2 7721   2.401   2.257   1.968
 2572TIP3    H1 7722   2.415   2.339   1.920
 2572TIP3    H2 7723   2.414   2.281   2.060
 2573TIP3   OH2 7724   0.151   3.852   4.699
 2573TIP3    H1 7725   0.068   3.811   4.724
 2573TIP3    H2 7726   0.129   3.945   4.689
 2574TIP3   OH2 7727   0.417   1.177   0.561
 2574TIP3    H1 7728   0.408   1.259   0.513
 2574TIP3    H2 7729   0.361   1.188   0.638
 2575TIP3   OH2 7730   4.355   5.634   3.823
 2575TIP3    H1 7731   4.395   5.667   3.904
 2575TIP3    H2 7732   4.401   5.552   3.806
 2576TIP3   OH2 7733   3.598   1.719   1.711
 2576TIP3    H1 7734   3.558   1.802   1.737
 2576TIP3    H2 7735   3.588   1.716   1.616
 2577TIP3   OH2 7736   3.804   1.336   4.875
 2577TIP3    H1 7737   3.848   1.421   4.864
 2577TIP3    H2 7738   3.765   1.341   4.962
 2578TIP3   OH2 7739   1.671   5.086   2.783
 2578TIP3    H1 7740   1.588   5.101   2.828
 2578TIP3    H2 7741   1.662   5.131   2.699
 2579TIP3   OH2 7742   3.319   0.770   1.647
 2579TIP3    H1 7743   3.404   0.769   1.603
 2579TIP3    H2 7744   3.304   0.862   1.668
 2580TIP3   OH2 7745   5.932   5.485   4.969
 2580TIP3    H1 7746   5.934   5.405   5.021
 2580TIP3    H2 7747   5.915   5.555   5.032
 2581TIP3   OH2 7748   2.505   2.102   1.383
 2581TIP3    H1 7749   2.506   2.191   1.419
 2581TIP3    H2 7750   2.580   2.100   1.324
 2582TIP3   OH2 7751   5.695   2.780   2.135
 2582TIP3    H1 7752   5.660   2.709   2.190
 2582TIP3    H2 7753   5.696   2.744   2.047
 2583TIP3   OH2 7754   4.684   1.385   3.890
 2583TIP3    H1 7755   4.761   1.429   3.855
 2583TIP3    H2 7756   4.615   1.451   3.886
 2584TIP3   OH2 7757   5.271   0.426   2.315
 2584TIP3    H1 7758   5.189   0.466   2.345
 2584TIP3    H2 7759   5.336   0.453   2.380
 2585TIP3   OH2 7760   5.886   2.093   2.881
 2585TIP3    H1 7761   5.798   2.117   2.851
 2585TIP3    H2 7762   5.945   2.137   2.820
 2586TIP3   OH2 7763   3.509   0.120   2.693
 2586TIP3    H1 7764   3.466   0.056   2.750
 2586TIP3    H2 7765   3.566   0.169   2.751
 2587TIP3   OH2 7766   0.105   1.425   3.946
 2587TIP3    H1 7767   0.044   1.355   3.969
 2587TIP3    H2 7768   0.092   1.491   4.013
 2588TIP3   OH2 7769   4.660   5.618   0.469
 2588TIP3    H1 7770   4.725   5.662   0.414
 2588TIP3    H2 7771   4.706   5.541   0.504
 2589TIP3   OH2 7772   5.342   1.101   4.504
 2589TIP3    H1 7773   5.347   1.149   4.587
 2589TIP3    H2 7774   5.408   1.033   4.512
 2590TIP3   OH2 7775   1.653   5.811   3.895
 2590TIP3    H1 7776   1.620   5.901   3.898
 2590TIP3    H2 7777   1.595   5.763   3.954
 2591TIP3   OH2 7778   6.144   4.250   2.836
 2591TIP3    H1 7779   6.222   4.215   2.794
 2591TIP3    H2 7780   6.149   4.345   2.821
 2592TIP3   OH2 7781   4.267   5.547   2.189
 2592TIP3    H1 7782   4.226   5.629   2.162
 2592TIP3    H2 7783   4.208   5.479   2.156
 2593TIP3   OH2 7784   0.363   0.255   1.237
 2593TIP3    H1 7785   0.362   0.161   1.254
 2593TIP3    H2 7786   0.435   0.267   1.175
 2594TIP3   OH2 7787   4.865   2.211   4.919
 2594TIP3    H1 7788   4.918   2.182   4.993
 2594TIP3    H2 7789   4.817   2.287   4.952
 2595TIP3   OH2 7790   4.923   1.104   1.520
 2595TIP3    H1 7791   4.856   1.111   1.588
 2595TIP3    H2 7792   5.005   1.126   1.565
 2596TIP3   OH2 7793   0.197   0.189   3.431
 2596TIP3    H1 7794   0.234   0.277   3.430
 2596TIP3    H2 7795   0.137   0.188   3.505
 2597TIP3   OH2 7796   4.861   5.359   3.228
 2597TIP3    H1 7797   4.773   5.354   3.191
 2597TIP3    H2 7798   4.849   5.339   3.321
 2598TIP3   OH2 7799   5.030   0.256   3.725
 2598TIP3    H1 7800   4.987   0.261   3.810
 2598TIP3    H2 7801   5.124   0.262   3.745
 2599TIP3   OH2 7802   3.556   3.321   4.183
 2599TIP3    H1 7803   3.495   3.355   4.249
 2599TIP3    H2 7804   3.544   3.380   4.108
 2600TIP3   OH2 7805   4.830   0.224   3.522
 2600TIP3    H1 7806   4.901   0.230   3.586
 2600TIP3    H2 7807   4.794   0.136   3.534
 2601TIP3   OH2 7808   6.162   5.251   4.539
 2601TIP3    H1 7809   6.081   5.235   4.588
 2601TIP3    H2 7810   6.177   5.172   4.488
 2602TIP3   OH2 7811   1.141   3.073   3.666
 2602TIP3    H1 7812   1.095   3.108   3.590
 2602TIP3    H2 7813   1.225   3.119   3.667
 2603TIP3   OH2 7814   1.054   5.276   3.554
 2603TIP3    H1 7815   0.981   5.232   3.597
 2603TIP3    H2 7816   1.018   5.305   3.470
 2604TIP3   OH2 7817   3.192   0.427   2.654
 2604TIP3    H1 7818   3.210   0.496   2.719
 2604TIP3    H2 7819   3.262   0.436   2.589
 2605TIP3   OH2 7820   2.069   4.083   3.666
 2605TIP3    H1 7821   2.013   4.140   3.719
 2605TIP3    H2 7822   2.158   4.099   3.698
 2606TIP3   OH2 7823   2.178   5.068   3.319
 2606TIP3    H1 7824   2.167   5.139   3.382
 2606TIP3    H2 7825   2.177   5.111   3.234
 2607TIP3   OH2 7826   3.446   2.397   0.816
 2607TIP3    H1 7827   3.481   2.352   0.739
 2607TIP3    H2 7828   3.511   2.384   0.884
 2608TIP3   OH2 7829   4.774   4.571   3.126
 2608TIP3    H1 7830   4.707   4.605   3.067
 2608TIP3    H2 7831   4.736   4.581   3.214
 2609TIP3   OH2 7832   1.800   5.493   3.523
 2609TIP3    H1 7833   1.843   5.426   3.576
 2609TIP3    H2 7834   1.708   5.467   3.520
 2610TIP3   OH2 7835   4.998   4.869   1.045
 2610TIP3    H1 7836   5.006   4.964   1.035
 2610TIP3    H2 7837   5.029   4.833   0.962
 2611TIP3   OH2 7838   3.006   2.059   2.931
 2611TIP3    H1 7839   2.929   2.011   2.899
 2611TIP3    H2 7840   3.072   1.991   2.946
 2612TIP3   OH2 7841   2.853   3.414   3.006
 2612TIP3    H1 7842   2.805   3.379   3.081
 2612TIP3    H2 7843   2.817   3.368   2.930
 2613TIP3   OH2 7844   3.540   2.611   0.498
 2613TIP3    H1 7845   3.492   2.690   0.472
 2613TIP3    H2 7846   3.564   2.626   0.589
 2614TIP3   OH2 7847   4.639   5.548   3.536
 2614TIP3    H1 7848   4.605   5.624   3.489
 2614TIP3    H2 7849   4.731   5.569   3.551
 2615TIP3   OH2 7850   2.039   5.521   2.562
 2615TIP3    H1 7851   2.108   5.573   2.522
 2615TIP3    H2 7852   2.041   5.545   2.655
 2616TIP3   OH2 7853   0.086   4.549   3.761
 2616TIP3    H1 7854   0.008   4.535   3.707
 2616TIP3    H2 7855   0.053   4.563   3.849
 2617TIP3   OH2 7856   4.084   0.223   1.985
 2617TIP3    H1 7857   4.128   0.280   1.922
 2617TIP3    H2 7858   4.100   0.262   2.070
 2618TIP3   OH2 7859   2.706   0.387   1.706
 2618TIP3    H1 7860   2.707   0.324   1.634
 2618TIP3    H2 7861   2.676   0.337   1.782
 2619TIP3   OH2 7862   4.055   1.576   1.416
 2619TIP3    H1 7863   4.023   1.655   1.460
 2619TIP3    H2 7864   4.149   1.576   1.432
 2620TIP3   OH2 7865   0.957   4.825   1.411
 2620TIP3    H1 7866   0.967   4.910   1.368
 2620TIP3    H2 7867   0.999   4.836   1.496
 2621TIP3   OH2 7868   5.759   0.315   4.595
 2621TIP3    H1 7869   5.804   0.288   4.515
 2621TIP3    H2 7870   5.733   0.406   4.579
 2622TIP3   OH2 7871   4.393   5.827   5.033
 2622TIP3    H1 7872   4.308   5.833   5.077
 2622TIP3    H2 7873   4.444   5.765   5.086
 2623TIP3   OH2 7874   2.347   1.859   3.237
 2623TIP3    H1 7875   2.285   1.885   3.306
 2623TIP3    H2 7876   2.343   1.764   3.237
 2624TIP3   OH2 7877   0.601   4.755   3.706
 2624TIP3    H1 7878   0.630   4.819   3.771
 2624TIP3    H2 7879   0.603   4.671   3.753
 2625TIP3   OH2 7880   3.292   1.102   1.322
 2625TIP3    H1 7881   3.217   1.043   1.334
 2625TIP3    H2 7882   3.253   1.186   1.296
 2626TIP3   OH2 7883   1.803   5.637   4.809
 2626TIP3    H1 7884   1.765   5.550   4.795
 2626TIP3    H2 7885   1.864   5.625   4.882
 2627TIP3   OH2 7886   0.297   1.476   1.089
 2627TIP3    H1 7887   0.207   1.480   1.121
 2627TIP3    H2 7888   0.335   1.560   1.114
 2628TIP3   OH2 7889   4.483   4.650   3.924
 2628TIP3    H1 7890   4.552   4.702   3.884
 2628TIP3    H2 7891   4.520   4.563   3.934
 2629TIP3   OH2 7892   4.665   3.770   3.126
 2629TIP3    H1 7893   4.703   3.713   3.060
 2629TIP3    H2 7894   4.699   3.857   3.105
 2630TIP3   OH2 7895   4.797   1.411   3.331
 2630TIP3    H1 7896   4.795   1.434   3.424
 2630TIP3    H2 7897   4.727   1.465   3.292
 2631TIP3   OH2 7898   6.218   2.815   4.952
 2631TIP3    H1 7899   6.286   2.880   4.969
 2631TIP3    H2 7900   6.248   2.736   4.997
 2632TIP3   OH2 7901   1.863   4.506   3.604
 2632TIP3    H1 7902   1.818   4.422   3.608
 2632TIP3    H2 7903   1.871   4.534   3.696
 2633TIP3   OH2 7904   3.762   0.083   5.080
 2633TIP3    H1 7905   3.813   0.012   5.040
 2633TIP3    H2 7906   3.817   0.114   5.152
 2634TIP3   OH2 7907   6.100   3.731   5.179
 2634TIP3    H1 7908   6.024   3.765   5.227
 2634TIP3    H2 7909   6.066   3.712   5.091
 2635TIP3   OH2 7910   3.497   0.414   0.293
 2635TIP3    H1 7911   3.450   0.496   0.279
 2635TIP3    H2 7912   3.454   0.351   0.235
 2636TIP3   OH2 7913   6.268   2.018   1.961
 2636TIP3    H1 7914   6.308   1.932   1.951
 2636TIP3    H2 7915   6.201   2.006   2.029
 2637TIP3   OH2 7916   3.410   5.960   0.801
 2637TIP3    H1 7917   3.440   5.964   0.710
 2637TIP3    H2 7918   3.357   6.038   0.812
 2638TIP3   OH2 7919   3.515   5.609   3.948
 2638TIP3    H1 7920   3.503   5.687   3.894
 2638TIP3    H2 7921   3.463   5.541   3.905
 2639TIP3   OH2 7922   0.137   0.756   0.406
 2639TIP3    H1 7923   0.082   0.807   0.346
 2639TIP3    H2 7924   0.210   0.813   0.427
 2640TIP3   OH2 7925   3.270   2.183   1.571
 2640TIP3    H1 7926   3.297   2.273   1.552
 2640TIP3    H2 7927   3.301   2.167   1.660
 2641TIP3   OH2 7928   1.265   5.949   2.921
 2641TIP3    H1 7929   1.220   5.894   2.856
 2641TIP3    H2 7930   1.195   5.996   2.965
 2642TIP3   OH2 7931   4.200   1.113   3.885
 2642TIP3    H1 7932   4.223   1.205   3.893
 2642TIP3    H2 7933   4.284   1.068   3.874
 2643TIP3   OH2 7934   5.019   5.863   4.298
 2643TIP3    H1 7935   4.950   5.813   4.255
 2643TIP3    H2 7936   5.076   5.891   4.227
 2644TIP3   OH2 7937   2.614   2.787   1.337
 2644TIP3    H1 7938   2.705   2.764   1.316
 2644TIP3    H2 7939   2.594   2.737   1.416
 2645TIP3   OH2 7940   2.510   0.220   1.183
 2645TIP3    H1 7941   2.592   0.171   1.176
 2645TIP3    H2 7942   2.532   0.309   1.156
 2646TIP3   OH2 7943   5.045   5.637   4.819
 2646TIP3    H1 7944   5.080   5.558   4.778
 2646TIP3    H2 7945   5.119   5.675   4.867
 2647TIP3   OH2 7946   3.336   3.943   4.006
 2647TIP3    H1 7947   3.267   3.932   3.941
 2647TIP3    H2 7948   3.393   4.010   3.969
 2648TIP3   OH2 7949   1.349   1.690   2.377
 2648TIP3    H1 7950   1.344   1.598   2.351
 2648TIP3    H2 7951   1.428   1.722   2.334
 2649TIP3   OH2 7952   5.486   5.069   3.769
 2649TIP3    H1 7953   5.563   5.097   3.819
 2649TIP3    H2 7954   5.508   5.086   3.678
 2650TIP3   OH2 7955   3.692   0.241   0.103
 2650TIP3    H1 7956   3.786   0.232   0.120
 2650TIP3    H2 7957   3.681   0.332   0.076
 2651TIP3   OH2 7958   5.426   1.820   4.508
 2651TIP3    H1 7959   5.372   1.849   4.434
 2651TIP3    H2 7960   5.384   1.859   4.584
 2652TIP3   OH2 7961   2.284   0.946   2.207
 2652TIP3    H1 7962   2.368   0.935   2.252
 2652TIP3    H2 7963   2.239   1.015   2.256
 2653TIP3   OH2 7964   5.040   1.100   3.446
 2653TIP3    H1 7965   5.094   1.050   3.384
 2653TIP3    H2 7966   4.975   1.037   3.477
 2654TIP3   OH2 7967   1.912   5.211   5.033
 2654TIP3    H1 7968   1.917   5.290   5.086
 2654TIP3    H2 7969   2.001   5.197   5.001
 2655TIP3   OH2 7970   5.176   4.944   1.846
 2655TIP3    H1 7971   5.261   4.903   1.864
 2655TIP3    H2 7972   5.112   4.880   1.878
 2656TIP3   OH2 7973   4.869   5.715   3.044
 2656TIP3    H1 7974   4.899   5.793   2.997
 2656TIP3    H2 7975   4.782   5.696   3.007
 2657TIP3   OH2 7976   4.774   4.090   2.014
 2657TIP3    H1 7977   4.762   4.051   2.101
 2657TIP3    H2 7978   4.685   4.095   1.979
 2658TIP3   OH2 7979   3.769   2.813   2.067
 2658TIP3    H1 7980   3.678   2.804   2.095
 2658TIP3    H2 7981   3.800   2.723   2.057
 2659TIP3   OH2 7982   3.213   2.415   4.256
 2659TIP3    H1 7983   3.214   2.356   4.180
 2659TIP3    H2 7984   3.121   2.441   4.264
 2660TIP3   OH2 7985   5.529   3.045   2.691
 2660TIP3    H1 7986   5.479   2.971   2.657
 2660TIP3    H2 7987   5.604   3.052   2.633
 2661TIP3   OH2 7988   2.500   5.602   2.034
 2661TIP3    H1 7989   2.570   5.666   2.052
 2661TIP3    H2 7990   2.480   5.615   1.942
 2662TIP3   OH2 7991   4.968   2.557   2.508
 2662TIP3    H1 7992   5.013   2.484   2.463
 2662TIP3    H2 7993   4.931   2.517   2.587
 2663TIP3   OH2 7994   3.826   1.063   3.199
 2663TIP3    H1 7995   3.772   1.134   3.166
 2663TIP3    H2 7996   3.845   1.087   3.289
 2664TIP3   OH2 7997   6.261   1.454   4.829
 2664TIP3    H1 7998   6.233   1.405   4.907
 2664TIP3    H2 7999   6.332   1.402   4.792
 2665TIP3   OH2 8000   1.776   4.251   3.628
 2665TIP3    H1 8001   1.811   4.163   3.615
 2665TIP3    H2 8002   1.697   4.254   3.574
 2666TIP3   OH2 8003   3.689   5.035   2.412
 2666TIP3    H1 8004   3.761   5.012   2.470
 2666TIP3    H2 8005   3.727   5.030   2.324
 2667TIP3   OH2 8006   1.487   2.187   1.964
 2667TIP3    H1 8007   1.470   2.262   1.907
 2667TIP3    H2 8008   1.525   2.226   2.043
 2668TIP3   OH2 8009   0.405   3.341   0.996
 2668TIP3    H1 8010   0.491   3.383   1.005
 2668TIP3    H2 8011   0.345   3.412   0.974
 2669TIP3   OH2 8012   3.553   2.029   0.783
 2669TIP3    H1 8013   3.560   2.012   0.877
 2669TIP3    H2 8014   3.460   2.015   0.763
 2670TIP3   OH2 8015   1.878   5.016   3.533
 2670TIP3    H1 8016   1.845   4.993   3.447
 2670TIP3    H2 8017   1.916   5.103   3.522
 2671TIP3   OH2 8018   2.905   3.134   2.099
 2671TIP3    H1 8019   2.909   3.222   2.137
 2671TIP3    H2 8020   2.839   3.088   2.151
 2672TIP3   OH2 8021   0.514   0.175   1.029
 2672TIP3    H1 8022   0.437   0.223   0.998
 2672TIP3    H2 8023   0.571   0.169   0.952
 2673TIP3   OH2 8024   4.238   2.172   1.422
 2673TIP3    H1 8025   4.252   2.099   1.361
 2673TIP3    H2 8026   4.165   2.143   1.477
 2674TIP3   OH2 8027   2.476   0.329   4.654
 2674TIP3    H1 8028   2.432   0.335   4.569
 2674TIP3    H2 8029   2.568   0.346   4.634
 2675TIP3   OH2 8030   3.707   5.111   5.179
 2675TIP3    H1 8031   3.653   5.137   5.253
 2675TIP3    H2 8032   3.688   5.177   5.112
 2676TIP3   OH2 8033   2.759   3.900   4.621
 2676TIP3    H1 8034   2.722   3.920   4.707
 2676TIP3    H2 8035   2.712   3.823   4.591
 2677TIP3   OH2 8036   5.339   2.431   4.570
 2677TIP3    H1 8037   5.388   2.497   4.520
 2677TIP3    H2 8038   5.402   2.398   4.634
 2678TIP3   OH2 8039   6.294   1.071   0.742
 2678TIP3    H1 8040   6.284   1.125   0.820
 2678TIP3    H2 8041   6.275   0.982   0.771
 2679TIP3   OH2 8042   6.040   3.092   2.201
 2679TIP3    H1 8043   5.953   3.071   2.235
 2679TIP3    H2 8044   6.061   3.021   2.141
 2680TIP3   OH2 8045   3.338   3.773   3.444
 2680TIP3    H1 8046   3.404   3.737   3.503
 2680TIP3    H2 8047   3.329   3.708   3.375
 2681TIP3   OH2 8048   5.385   2.653   1.653
 2681TIP3    H1 8049   5.455   2.717   1.664
 2681TIP3    H2 8050   5.306   2.699   1.683
 2682TIP3   OH2 8051   3.793   0.183   3.977
 2682TIP3    H1 8052   3.707   0.142   3.984
 2682TIP3    H2 8053   3.851   0.125   4.026
 2683TIP3   OH2 8054   1.671   1.382   0.669
 2683TIP3    H1 8055   1.747   1.383   0.725
 2683TIP3    H2 8056   1.625   1.464   0.688
 2684TIP3   OH2 8057   3.803   4.917   0.002
 2684TIP3    H1 8058   3.720   4.963  -0.012
 2684TIP3    H2 8059   3.837   4.954   0.083
 2685TIP3   OH2 8060   3.805   1.555   0.369
 2685TIP3    H1 8061   3.874   1.523   0.311
 2685TIP3    H2 8062   3.759   1.621   0.317
 2686TIP3   OH2 8063   4.955   2.072   2.419
 2686TIP3    H1 8064   4.964   2.078   2.324
 2686TIP3    H2 8065   4.898   2.145   2.442
 2687TIP3   OH2 8066   3.144   0.671   1.435
 2687TIP3    H1 8067   3.194   0.732   1.489
 2687TIP3    H2 8068   3.080   0.633   1.495
 2688TIP3   OH2 8069   1.091   3.278   1.572
 2688TIP3    H1 8070   1.104   3.370   1.552
 2688TIP3    H2 8071   1.122   3.268   1.662
 2689TIP3   OH2 8072   3.967   2.262   4.881
 2689TIP3    H1 8073   3.921   2.245   4.799
 2689TIP3    H2 8074   3.982   2.176   4.919
 2690TIP3   OH2 8075   2.401   3.990   3.102
 2690TIP3    H1 8076   2.441   3.910   3.138
 2690TIP3    H2 8077   2.344   3.959   3.032
 2691TIP3   OH2 8078   0.780   4.686   1.584
 2691TIP3    H1 8079   0.821   4.635   1.655
 2691TIP3    H2 8080   0.854   4.718   1.532
 2692TIP3   OH2 8081   0.893   5.630   0.795
 2692TIP3    H1 8082   0.798   5.623   0.786
 2692TIP3    H2 8083   0.912   5.723   0.782
 2693TIP3   OH2 8084   5.210   0.158   0.640
 2693TIP3    H1 8085   5.116   0.148   0.626
 2693TIP3    H2 8086   5.247   0.164   0.552
 2694TIP3   OH2 8087   5.108   3.543   0.026
 2694TIP3    H1 8088   5.071   3.573   0.108
 2694TIP3    H2 8089   5.107   3.619  -0.031
 2695TIP3   OH2 8090   4.113   2.213   2.188
 2695TIP3    H1 8091   4.206   2.211   2.164
 2695TIP3    H2 8092   4.108   2.160   2.267
 2696TIP3   OH2 8093   2.161   1.924   1.459
 2696TIP3    H1 8094   2.070   1.917   1.486
 2696TIP3    H2 8095   2.171   2.015   1.432
 2697TIP3   OH2 8096   4.219   0.747   3.026
 2697TIP3    H1 8097   4.139   0.798   3.016
 2697TIP3    H2 8098   4.289   0.811   3.013
 2698TIP3   OH2 8099   3.571   4.933   2.763
 2698TIP3    H1 8100   3.539   5.020   2.785
 2698TIP3    H2 8101   3.662   4.947   2.737
 2699TIP3   OH2 8102   5.377   2.403   0.658
 2699TIP3    H1 8103   5.366   2.358   0.575
 2699TIP3    H2 8104   5.467   2.385   0.684
 2700TIP3   OH2 8105   1.529   5.035   0.186
 2700TIP3    H1 8106   1.616   5.052   0.223
 2700TIP3    H2 8107   1.485   5.120   0.190
 2701TIP3   OH2 8108   0.751   3.491   0.521
 2701TIP3    H1 8109   0.770   3.399   0.500
 2701TIP3    H2 8110   0.830   3.522   0.565
 2702TIP3   OH2 8111   6.168   3.149   1.757
 2702TIP3    H1 8112   6.217   3.101   1.690
 2702TIP3    H2 8113   6.102   3.086   1.787
 2703TIP3   OH2 8114   3.692   3.103   5.055
 2703TIP3    H1 8115   3.620   3.167   5.061
 2703TIP3    H2 8116   3.761   3.139   5.111
 2704TIP3   OH2 8117   6.176   0.857   2.872
 2704TIP3    H1 8118   6.244   0.901   2.924
 2704TIP3    H2 8119   6.120   0.928   2.840
 2705TIP3   OH2 8120   6.148   1.184   3.256
 2705TIP3    H1 8121   6.071   1.213   3.208
 2705TIP3    H2 8122   6.170   1.258   3.312
 2706TIP3   OH2 8123   3.193   2.084   0.387
 2706TIP3    H1 8124   3.179   2.171   0.350
 2706TIP3    H2 8125   3.248   2.099   0.464
 2707TIP3   OH2 8126   1.501   0.089   0.404
 2707TIP3    H1 8127   1.522   0.078   0.497
 2707TIP3    H2 8128   1.411   0.057   0.396
 2708TIP3   OH2 8129   3.703   4.450   2.800
 2708TIP3    H1 8130   3.764   4.388   2.840
 2708TIP3    H2 8131   3.753   4.531   2.790
 2709TIP3   OH2 8132   1.786   4.134   5.125
 2709TIP3    H1 8133   1.872   4.132   5.083
 2709TIP3    H2 8134   1.755   4.224   5.110
 2710TIP3   OH2 8135   5.111   4.026   4.672
 2710TIP3    H1 8136   5.206   4.022   4.673
 2710TIP3    H2 8137   5.086   3.998   4.583
 2711TIP3   OH2 8138   2.392   3.787   2.605
 2711TIP3    H1 8139   2.307   3.803   2.647
 2711TIP3    H2 8140   2.444   3.745   2.674
 2712TIP3   OH2 8141   3.844   4.608   0.040
 2712TIP3    H1 8142   3.883   4.634   0.123
 2712TIP3    H2 8143   3.800   4.525   0.059
 2713TIP3   OH2 8144   5.071   0.411   3.452
 2713TIP3    H1 8145   5.051   0.499   3.485
 2713TIP3    H2 8146   5.008   0.354   3.495
 2714TIP3   OH2 8147   3.567   0.531   2.640
 2714TIP3    H1 8148   3.619   0.586   2.698
 2714TIP3    H2 8149   3.501   0.591   2.603
 2715TIP3   OH2 8150   0.492   5.957   1.330
 2715TIP3    H1 8151   0.470   5.877   1.283
 2715TIP3    H2 8152   0.563   5.996   1.280
 2716TIP3   OH2 8153   4.330   5.048   1.912
 2716TIP3    H1 8154   4.274   5.083   1.842
 2716TIP3    H2 8155   4.417   5.082   1.892
 2717TIP3   OH2 8156   4.352   2.591   4.013
 2717TIP3    H1 8157   4.280   2.655   4.015
 2717TIP3    H2 8158   4.312   2.508   4.038
 2718TIP3   OH2 8159   2.036   1.612   1.279
 2718TIP3    H1 8160   1.960   1.656   1.315
 2718TIP3    H2 8161   2.034   1.634   1.185
 2719TIP3   OH2 8162   3.998   0.680   5.044
 2719TIP3    H1 8163   3.932   0.627   4.999
 2719TIP3    H2 8164   4.014   0.633   5.126
 2720TIP3   OH2 8165   1.370   0.564   0.206
 2720TIP3    H1 8166   1.406   0.484   0.244
 2720TIP3    H2 8167   1.295   0.536   0.155
 2721TIP3   OH2 8168   3.000   4.347   1.469
 2721TIP3    H1 8169   2.981   4.295   1.547
 2721TIP3    H2 8170   2.926   4.408   1.462
 2722TIP3   OH2 8171   1.244   5.411   0.457
 2722TIP3    H1 8172   1.263   5.475   0.388
 2722TIP3    H2 8173   1.220   5.464   0.533
 2723TIP3   OH2 8174   4.241   0.858   5.052
 2723TIP3    H1 8175   4.158   0.812   5.061
 2723TIP3    H2 8176   4.250   0.909   5.132
 2724TIP3   OH2 8177   6.319   2.812   0.239
 2724TIP3    H1 8178   6.329   2.871   0.164
 2724TIP3    H2 8179   6.405   2.812   0.281
 2725TIP3   OH2 8180   3.432   1.251   2.833
 2725TIP3    H1 8181   3.527   1.243   2.833
 2725TIP3    H2 8182   3.406   1.240   2.741
 2726TIP3   OH2 8183   1.121   2.122   1.086
 2726TIP3    H1 8184   1.131   2.217   1.074
 2726TIP3    H2 8185   1.113   2.088   0.997
 2727TIP3   OH2 8186   4.309   2.566   2.300
 2727TIP3    H1 8187   4.338   2.493   2.245
 2727TIP3    H2 8188   4.389   2.598   2.342
 2728TIP3   OH2 8189   3.941   1.889   2.334
 2728TIP3    H1 8190   3.856   1.918   2.366
 2728TIP3    H2 8191   4.002   1.957   2.364
 2729TIP3   OH2 8192   3.614   3.571   0.546
 2729TIP3    H1 8193   3.636   3.646   0.602
 2729TIP3    H2 8194   3.589   3.611   0.463
 2730TIP3   OH2 8195   4.337   5.105   5.179
 2730TIP3    H1 8196   4.303   5.177   5.125
 2730TIP3    H2 8197   4.331   5.028   5.122
 2731TIP3   OH2 8198   2.830   4.744   0.129
 2731TIP3    H1 8199   2.912   4.782   0.096
 2731TIP3    H2 8200   2.858   4.688   0.201
 2732TIP3   OH2 8201   3.895   4.760   4.278
 2732TIP3    H1 8202   3.805   4.765   4.246
 2732TIP3    H2 8203   3.949   4.784   4.202
 2733TIP3   OH2 8204   4.719   4.727   3.769
 2733TIP3    H1 8205   4.777   4.745   3.843
 2733TIP3    H2 8206   4.720   4.631   3.760
 2734TIP3   OH2 8207   0.618   4.285   0.644
 2734TIP3    H1 8208   0.621   4.359   0.705
 2734TIP3    H2 8209   0.683   4.224   0.677
 2735TIP3   OH2 8210   1.747   5.856   1.843
 2735TIP3    H1 8211   1.794   5.874   1.924
 2735TIP3    H2 8212   1.654   5.860   1.868
 2736TIP3   OH2 8213   2.355   0.581   4.777
 2736TIP3    H1 8214   2.367   0.627   4.694
 2736TIP3    H2 8215   2.399   0.498   4.766
 2737TIP3   OH2 8216   3.557   4.113   1.390
 2737TIP3    H1 8217   3.464   4.096   1.407
 2737TIP3    H2 8218   3.559   4.134   1.296
 2738TIP3   OH2 8219   0.487   4.350   5.029
 2738TIP3    H1 8220   0.426   4.280   5.006
 2738TIP3    H2 8221   0.432   4.428   5.038
 2739TIP3   OH2 8222   2.124   5.599   4.045
 2739TIP3    H1 8223   2.208   5.644   4.056
 2739TIP3    H2 8224   2.085   5.600   4.132
 2740TIP3   OH2 8225   0.936   4.663   3.713
 2740TIP3    H1 8226   0.850   4.656   3.672
 2740TIP3    H2 8227   0.956   4.574   3.743
 2741TIP3   OH2 8228   4.862   3.919   0.304
 2741TIP3    H1 8229   4.846   3.995   0.360
 2741TIP3    H2 8230   4.940   3.878   0.342
 2742TIP3   OH2 8231   5.476   2.664   2.817
 2742TIP3    H1 8232   5.475   2.726   2.745
 2742TIP3    H2 8233   5.468   2.578   2.775
 2743TIP3   OH2 8234   3.565   1.116   1.874
 2743TIP3    H1 8235   3.481   1.072   1.881
 2743TIP3    H2 8236   3.553   1.181   1.804
 2744TIP3   OH2 8237   0.112   2.007   0.235
 2744TIP3    H1 8238   0.052   1.933   0.240
 2744TIP3    H2 8239   0.163   1.991   0.155
 2745TIP3   OH2 8240   3.266   4.350   1.454
 2745TIP3    H1 8241   3.283   4.315   1.542
 2745TIP3    H2 8242   3.171   4.362   1.452
 2746TIP3   OH2 8243   2.054   3.762   2.287
 2746TIP3    H1 8244   2.009   3.736   2.367
 2746TIP3    H2 8245   2.031   3.854   2.275
 2747TIP3   OH2 8246   5.237   4.120   1.862
 2747TIP3    H1 8247   5.265   4.195   1.809
 2747TIP3    H2 8248   5.312   4.102   1.919
 2748TIP3   OH2 8249   2.137   0.198   3.089
 2748TIP3    H1 8250   2.224   0.182   3.126
 2748TIP3    H2 8251   2.129   0.135   3.018
 2749TIP3   OH2 8252   1.656   3.571   0.827
 2749TIP3    H1 8253   1.738   3.620   0.836
 2749TIP3    H2 8254   1.596   3.614   0.889
 2750TIP3   OH2 8255   5.716   2.404   3.687
 2750TIP3    H1 8256   5.719   2.328   3.745
 2750TIP3    H2 8257   5.794   2.396   3.633
 2751TIP3   OH2 8258   1.505   1.834   0.705
 2751TIP3    H1 8259   1.481   1.908   0.650
 2751TIP3    H2 8260   1.491   1.865   0.795
 2752TIP3   OH2 8261   6.111   3.882   2.181
 2752TIP3    H1 8262   6.207   3.890   2.181
 2752TIP3    H2 8263   6.094   3.807   2.238
 2753TIP3   OH2 8264   2.008   5.576   4.282
 2753TIP3    H1 8265   2.021   5.646   4.346
 2753TIP3    H2 8266   2.025   5.495   4.331
 2754TIP3   OH2 8267   1.538   2.628   3.262
 2754TIP3    H1 8268   1.496   2.700   3.216
 2754TIP3    H2 8269   1.481   2.611   3.337
 2755TIP3   OH2 8270   5.269   5.588   5.168
 2755TIP3    H1 8271   5.280   5.673   5.125
 2755TIP3    H2 8272   5.264   5.608   5.261
 2756TIP3   OH2 8273   0.988   2.580   4.316
 2756TIP3    H1 8274   1.029   2.521   4.253
 2756TIP3    H2 8275   0.912   2.531   4.349
 2757TIP3   OH2 8276   0.180   2.606   1.877
 2757TIP3    H1 8277   0.177   2.526   1.929
 2757TIP3    H2 8278   0.108   2.597   1.815
 2758TIP3   OH2 8279   5.395   2.648   0.751
 2758TIP3    H1 8280   5.337   2.703   0.697
 2758TIP3    H2 8281   5.391   2.562   0.711
 2759TIP3   OH2 8282   4.139   2.255   0.348
 2759TIP3    H1 8283   4.057   2.305   0.348
 2759TIP3    H2 8284   4.114   2.167   0.319
 2760TIP3   OH2 8285   5.879   3.477   1.234
 2760TIP3    H1 8286   5.786   3.467   1.217
 2760TIP3    H2 8287   5.884   3.499   1.327
 2761TIP3   OH2 8288   0.120   3.930   5.178
 2761TIP3    H1 8289   0.056   3.932   5.108
 2761TIP3    H2 8290   0.121   4.020   5.212
 2762TIP3   OH2 8291   0.626   1.689   1.427
 2762TIP3    H1 8292   0.589   1.714   1.342
 2762TIP3    H2 8293   0.567   1.729   1.491
 2763TIP3   OH2 8294   4.095   5.889   5.160
 2763TIP3    H1 8295   4.012   5.888   5.209
 2763TIP3    H2 8296   4.109   5.798   5.135
 2764TIP3   OH2 8297   4.077   2.696   0.060
 2764TIP3    H1 8298   4.166   2.675   0.090
 2764TIP3    H2 8299   4.034   2.610   0.055
 2765TIP3   OH2 8300   1.583   4.456   2.396
 2765TIP3    H1 8301   1.510   4.426   2.449
 2765TIP3    H2 8302   1.548   4.528   2.345
 2766TIP3   OH2 8303   1.918   1.912   1.573
 2766TIP3    H1 8304   1.884   1.998   1.548
 2766TIP3    H2 8305   1.840   1.858   1.587
 2767TIP3   OH2 8306   1.545   2.527   4.761
 2767TIP3    H1 8307   1.601   2.542   4.685
 2767TIP3    H2 8308   1.571   2.441   4.793
 2768TIP3   OH2 8309   4.083   3.990   1.817
 2768TIP3    H1 8310   4.011   4.045   1.786
 2768TIP3    H2 8311   4.088   4.008   1.911
 2769TIP3   OH2 8312   2.908   5.210   4.581
 2769TIP3    H1 8313   2.894   5.211   4.676
 2769TIP3    H2 8314   3.002   5.227   4.571
 2770TIP3   OH2 8315   3.633   0.729   2.841
 2770TIP3    H1 8316   3.703   0.750   2.902
 2770TIP3    H2 8317   3.600   0.814   2.812
 2771TIP3   OH2 8318   5.910   1.561   4.402
 2771TIP3    H1 8319   5.981   1.501   4.381
 2771TIP3    H2 8320   5.884   1.539   4.491
 2772TIP3   OH2 8321   0.868   2.319   4.626
 2772TIP3    H1 8322   0.799   2.383   4.609
 2772TIP3    H2 8323   0.948   2.371   4.636
 2773TIP3   OH2 8324   5.915   1.036   3.868
 2773TIP3    H1 8325   5.901   1.119   3.824
 2773TIP3    H2 8326   5.857   0.975   3.824
 2774TIP3   OH2 8327   1.366   5.828   1.337
 2774TIP3    H1 8328   1.383   5.757   1.400
 2774TIP3    H2 8329   1.300   5.882   1.380
 2775TIP3   OH2 8330   2.090   2.071   0.428
 2775TIP3    H1 8331   2.056   2.052   0.340
 2775TIP3    H2 8332   2.170   2.122   0.413
 2776TIP3   OH2 8333   2.410   2.844   1.154
 2776TIP3    H1 8334   2.477   2.835   1.222
 2776TIP3    H2 8335   2.434   2.780   1.087
 2777TIP3   OH2 8336   4.767   0.980   4.708
 2777TIP3    H1 8337   4.682   1.004   4.672
 2777TIP3    H2 8338   4.823   1.056   4.691
 2778TIP3   OH2 8339   3.109   5.603   1.550
 2778TIP3    H1 8340   3.031   5.578   1.502
 2778TIP3    H2 8341   3.158   5.659   1.490
 2779TIP3   OH2 8342   1.268   1.996   0.263
 2779TIP3    H1 8343   1.213   2.018   0.187
 2779TIP3    H2 8344   1.205   1.979   0.333
 2780TIP3   OH2 8345   5.500   4.364   3.008
 2780TIP3    H1 8346   5.572   4.355   3.070
 2780TIP3    H2 8347   5.533   4.327   2.926
 2781TIP3   OH2 8348   4.001   1.358   2.217
 2781TIP3    H1 8349   4.030   1.325   2.132
 2781TIP3    H2 8350   3.997   1.453   2.205
 2782TIP3   OH2 8351   0.901   5.288   4.155
 2782TIP3    H1 8352   0.811   5.321   4.152
 2782TIP3    H2 8353   0.906   5.225   4.083
 2783TIP3   OH2 8354   5.246   4.273   1.017
 2783TIP3    H1 8355   5.328   4.246   1.057
 2783TIP3    H2 8356   5.253   4.244   0.926
 2784TIP3   OH2 8357   2.219   0.645   2.165
 2784TIP3    H1 8358   2.250   0.733   2.186
 2784TIP3    H2 8359   2.125   0.647   2.181
 2785TIP3   OH2 8360   3.621   0.430   4.389
 2785TIP3    H1 8361   3.669   0.496   4.339
 2785TIP3    H2 8362   3.681   0.406   4.460
 2786TIP3   OH2 8363   2.317   5.944   2.977
 2786TIP3    H1 8364   2.239   5.932   3.032
 2786TIP3    H2 8365   2.372   6.004   3.026
 2787TIP3   OH2 8366   5.653   5.172   0.185
 2787TIP3    H1 8367   5.567   5.164   0.225
 2787TIP3    H2 8368   5.667   5.266   0.175
 2788TIP3   OH2 8369   2.093   3.619   2.632
 2788TIP3    H1 8370   2.128   3.707   2.626
 2788TIP3    H2 8371   2.012   3.622   2.581
 2789TIP3   OH2 8372   0.644   0.408   0.861
 2789TIP3    H1 8373   0.636   0.477   0.795
 2789TIP3    H2 8374   0.672   0.454   0.940
 2790TIP3   OH2 8375   0.749   2.395   2.919
 2790TIP3    H1 8376   0.827   2.430   2.963
 2790TIP3    H2 8377   0.710   2.336   2.983
 2791TIP3   OH2 8378   4.747   5.863   2.563
 2791TIP3    H1 8379   4.761   5.954   2.537
 2791TIP3    H2 8380   4.764   5.862   2.657
 2792TIP3   OH2 8381   0.804   1.437   0.655
 2792TIP3    H1 8382   0.750   1.495   0.601
 2792TIP3    H2 8383   0.761   1.351   0.649
 2793TIP3   OH2 8384   2.085   1.676   3.080
 2793TIP3    H1 8385   2.117   1.687   2.991
 2793TIP3    H2 8386   1.991   1.663   3.071
 2794TIP3   OH2 8387   5.014   3.782   1.566
 2794TIP3    H1 8388   5.060   3.823   1.493
 2794TIP3    H2 8389   5.034   3.837   1.641
 2795TIP3   OH2 8390   3.152   4.287   4.538
 2795TIP3    H1 8391   3.119   4.345   4.607
 2795TIP3    H2 8392   3.243   4.314   4.526
 2796TIP3   OH2 8393   6.270   1.990   3.081
 2796TIP3    H1 8394   6.185   2.032   3.094
 2796TIP3    H2 8395   6.254   1.898   3.102
 2797TIP3   OH2 8396   5.435   2.326   2.897
 2797TIP3    H1 8397   5.482   2.252   2.859
 2797TIP3    H2 8398   5.502   2.377   2.942
 2798TIP3   OH2 8399   5.858   1.550   2.419
 2798TIP3    H1 8400   5.845   1.462   2.454
 2798TIP3    H2 8401   5.951   1.569   2.433
 2799TIP3   OH2 8402   1.782   3.413   2.832
 2799TIP3    H1 8403   1.774   3.385   2.741
 2799TIP3    H2 8404   1.774   3.332   2.883
 2800TIP3   OH2 8405   4.460   1.085   1.560
 2800TIP3    H1 8406   4.383   1.112   1.609
 2800TIP3    H2 8407   4.427   1.024   1.494
 2801TIP3   OH2 8408   3.606   5.678   2.362
 2801TIP3    H1 8409   3.649   5.620   2.424
 2801TIP3    H2 8410   3.512   5.659   2.372
 2802TIP3   OH2 8411   5.397   0.485   2.548
 2802TIP3    H1 8412   5.428   0.396   2.563
 2802TIP3    H2 8413   5.475   0.539   2.557
 2803TIP3   OH2 8414   5.958   5.986   0.257
 2803TIP3    H1 8415   5.879   6.024   0.296
 2803TIP3    H2 8416   6.025   5.998   0.324
 2804TIP3   OH2 8417   5.642   5.492   0.645
 2804TIP3    H1 8418   5.676   5.575   0.678
 2804TIP3    H2 8419   5.712   5.429   0.664
 2805TIP3   OH2 8420   2.383   5.640   0.513
 2805TIP3    H1 8421   2.304   5.614   0.559
 2805TIP3    H2 8422   2.362   5.726   0.475
 2806TIP3   OH2 8423   4.643   1.605   2.045
 2806TIP3    H1 8424   4.705   1.631   1.977
 2806TIP3    H2 8425   4.682   1.635   2.127
 2807TIP3   OH2 8426   1.640   5.304   1.433
 2807TIP3    H1 8427   1.594   5.364   1.374
 2807TIP3    H2 8428   1.594   5.220   1.423
 2808TIP3   OH2 8429   1.340   1.581   4.956
 2808TIP3    H1 8430   1.430   1.612   4.944
 2808TIP3    H2 8431   1.313   1.555   4.868
 2809TIP3   OH2 8432   2.038   0.528   3.857
 2809TIP3    H1 8433   1.985   0.463   3.902
 2809TIP3    H2 8434   1.975   0.593   3.827
 2810TIP3   OH2 8435   4.098   0.090   4.456
 2810TIP3    H1 8436   4.081   0.108   4.548
 2810TIP3    H2 8437   4.028   0.135   4.409
 2811TIP3   OH2 8438   1.055   2.121   4.933
 2811TIP3    H1 8439   0.977   2.071   4.955
 2811TIP3    H2 8440   1.090   2.151   5.017
 2812TIP3   OH2 8441   0.344   4.150   3.024
 2812TIP3    H1 8442   0.264   4.136   2.973
 2812TIP3    H2 8443   0.348   4.076   3.084
 2813TIP3   OH2 8444   4.669   3.099   1.940
 2813TIP3    H1 8445   4.711   3.184   1.950
 2813TIP3    H2 8446   4.694   3.070   1.853
 2814TIP3   OH2 8447   3.117   0.258   2.061
 2814TIP3    H1 8448   3.156   0.171   2.056
 2814TIP3    H2 8449   3.022   0.243   2.058
 2815TIP3   OH2 8450   3.027   1.093   1.984
 2815TIP3    H1 8451   2.965   1.113   1.913
 2815TIP3    H2 8452   2.977   1.106   2.064
 2816TIP3   OH2 8453   1.306   5.693   3.839
 2816TIP3    H1 8454   1.270   5.782   3.840
 2816TIP3    H2 8455   1.295   5.665   3.748
 2817TIP3   OH2 8456   3.493   2.752   2.142
 2817TIP3    H1 8457   3.440   2.804   2.202
 2817TIP3    H2 8458   3.464   2.779   2.055
 2818TIP3   OH2 8459   4.370   3.277   3.842
 2818TIP3    H1 8460   4.418   3.194   3.840
 2818TIP3    H2 8461   4.280   3.251   3.862
 2819TIP3   OH2 8462   4.727   0.944   4.388
 2819TIP3    H1 8463   4.777   0.890   4.327
 2819TIP3    H2 8464   4.655   0.887   4.416
 2820TIP3   OH2 8465   0.522   2.440   2.325
 2820TIP3    H1 8466   0.511   2.468   2.234
 2820TIP3    H2 8467   0.439   2.399   2.347
 2821TIP3   OH2 8468   0.247   0.313   4.719
 2821TIP3    H1 8469   0.328   0.354   4.747
 2821TIP3    H2 8470   0.239   0.234   4.773
 2822TIP3   OH2 8471   1.608   4.291   4.866
 2822TIP3    H1 8472   1.659   4.361   4.825
 2822TIP3    H2 8473   1.672   4.222   4.885
 2823TIP3   OH2 8474   0.840   5.004   5.166
 2823TIP3    H1 8475   0.802   5.092   5.169
 2823TIP3    H2 8476   0.814   4.964   5.249
 2824TIP3   OH2 8477   3.554   0.462   1.214
 2824TIP3    H1 8478   3.584   0.498   1.131
 2824TIP3    H2 8479   3.525   0.374   1.193
 2825TIP3   OH2 8480   2.486   1.474   2.017
 2825TIP3    H1 8481   2.559   1.500   2.073
 2825TIP3    H2 8482   2.487   1.378   2.018
 2826TIP3   OH2 8483   6.309   1.091   1.567
 2826TIP3    H1 8484   6.316   0.995   1.573
 2826TIP3    H2 8485   6.219   1.107   1.541
 2827TIP3   OH2 8486   4.628   5.981   1.168
 2827TIP3    H1 8487   4.635   5.910   1.106
 2827TIP3    H2 8488   4.680   6.052   1.131
 2828TIP3   OH2 8489   4.737   3.065   2.398
 2828TIP3    H1 8490   4.689   3.026   2.326
 2828TIP3    H2 8491   4.695   3.150   2.413
 2829TIP3   OH2 8492   3.615   3.944   2.252
 2829TIP3    H1 8493   3.671   3.958   2.328
 2829TIP3    H2 8494   3.559   4.021   2.249
 2830TIP3   OH2 8495   3.677   0.844   1.795
 2830TIP3    H1 8496   3.648   0.925   1.837
 2830TIP3    H2 8497   3.669   0.778   1.864
 2831TIP3   OH2 8498   4.775   4.339   4.503
 2831TIP3    H1 8499   4.755   4.249   4.528
 2831TIP3    H2 8500   4.732   4.352   4.419
 2832TIP3   OH2 8501   1.141   5.110   4.073
 2832TIP3    H1 8502   1.089   5.095   4.152
 2832TIP3    H2 8503   1.158   5.204   4.073
 2833TIP3   OH2 8504   4.758   0.336   4.166
 2833TIP3    H1 8505   4.664   0.343   4.155
 2833TIP3    H2 8506   4.788   0.426   4.180
 2834TIP3   OH2 8507   2.471   1.987   4.488
 2834TIP3    H1 8508   2.464   2.000   4.394
 2834TIP3    H2 8509   2.565   1.985   4.506
 2835TIP3   OH2 8510   5.579   3.961   0.992
 2835TIP3    H1 8511   5.542   3.909   0.921
 2835TIP3    H2 8512   5.625   3.898   1.047
 2836TIP3   OH2 8513   0.051   5.011   0.722
 2836TIP3    H1 8514  -0.014   4.942   0.709
 2836TIP3    H2 8515   0.123   4.988   0.664
 2837TIP3   OH2 8516   1.637   5.503   0.450
 2837TIP3    H1 8517   1.707   5.505   0.515
 2837TIP3    H2 8518   1.557   5.517   0.500
 2838TIP3   OH2 8519   1.412   0.141   2.505
 2838TIP3    H1 8520   1.479   0.086   2.463
 2838TIP3    H2 8521   1.432   0.136   2.598
 2839TIP3   OH2 8522   4.794   5.207   4.003
 2839TIP3    H1 8523   4.857   5.173   3.939
 2839TIP3    H2 8524   4.778   5.133   4.062
 2840TIP3   OH2 8525   1.547   0.708   4.830
 2840TIP3    H1 8526   1.547   0.653   4.752
 2840TIP3    H2 8527   1.509   0.791   4.801
 2841TIP3   OH2 8528   1.967   3.390   1.243
 2841TIP3    H1 8529   1.874   3.413   1.247
 2841TIP3    H2 8530   1.979   3.325   1.312
 2842TIP3   OH2 8531   1.334   4.652   4.872
 2842TIP3    H1 8532   1.403   4.650   4.806
 2842TIP3    H2 8533   1.307   4.743   4.877
 2843TIP3   OH2 8534   5.455   5.474   0.960
 2843TIP3    H1 8535   5.381   5.505   0.909
 2843TIP3    H2 8536   5.502   5.553   0.985
 2844TIP3   OH2 8537   4.816   4.853   5.180
 2844TIP3    H1 8538   4.841   4.791   5.112
 2844TIP3    H2 8539   4.898   4.894   5.207
 2845TIP3   OH2 8540   0.754   0.717   4.768
 2845TIP3    H1 8541   0.817   0.645   4.767
 2845TIP3    H2 8542   0.803   0.791   4.804
 2846TIP3   OH2 8543   0.192   5.003   1.967
 2846TIP3    H1 8544   0.222   4.913   1.959
 2846TIP3    H2 8545   0.112   4.998   2.019
 2847TIP3   OH2 8546   5.472   4.139   3.355
 2847TIP3    H1 8547   5.444   4.047   3.353
 2847TIP3    H2 8548   5.559   4.138   3.315
 2848TIP3   OH2 8549   5.120   3.790   5.031
 2848TIP3    H1 8550   5.204   3.796   4.985
 2848TIP3    H2 8551   5.066   3.734   4.975
 2849TIP3   OH2 8552   5.690   1.306   0.694
 2849TIP3    H1 8553   5.733   1.224   0.670
 2849TIP3    H2 8554   5.707   1.365   0.620
 2850TIP3   OH2 8555   4.758   0.621   2.348
 2850TIP3    H1 8556   4.704   0.647   2.274
 2850TIP3    H2 8557   4.698   0.622   2.423
 2851TIP3   OH2 8558   5.126   4.396   0.637
 2851TIP3    H1 8559   5.182   4.404   0.559
 2851TIP3    H2 8560   5.185   4.406   0.711
 2852TIP3   OH2 8561   3.657   3.550   3.595
 2852TIP3    H1 8562   3.604   3.505   3.530
 2852TIP3    H2 8563   3.732   3.584   3.546
 2853TIP3   OH2 8564   2.914   2.987   1.706
 2853TIP3    H1 8565   2.953   2.981   1.794
 2853TIP3    H2 8566   2.824   3.018   1.722
 2854TIP3   OH2 8567   1.540   0.902   0.912
 2854TIP3    H1 8568   1.571   0.988   0.883
 2854TIP3    H2 8569   1.605   0.874   0.977
 2855TIP3   OH2 8570   5.370   1.256   2.407
 2855TIP3    H1 8571   5.313   1.225   2.337
 2855TIP3    H2 8572   5.459   1.251   2.370
 2856TIP3   OH2 8573   0.389   0.117   2.860
 2856TIP3    H1 8574   0.366   0.199   2.816
 2856TIP3    H2 8575   0.361   0.129   2.951
 2857TIP3   OH2 8576   1.080   2.862   2.377
 2857TIP3    H1 8577   1.008   2.913   2.339
 2857TIP3    H2 8578   1.056   2.771   2.363
 2858TIP3   OH2 8579   4.808   4.194   3.755
 2858TIP3    H1 8580   4.771   4.218   3.670
 2858TIP3    H2 8581   4.771   4.258   3.816
 2859TIP3   OH2 8582   2.436   0.564   1.409
 2859TIP3    H1 8583   2.384   0.495   1.367
 2859TIP3    H2 8584   2.391   0.581   1.492
 2860TIP3   OH2 8585   6.273   0.094   3.129
 2860TIP3    H1 8586   6.318   0.021   3.086
 2860TIP3    H2 8587   6.254   0.155   3.058
 2861TIP3   OH2 8588   3.603   2.699   3.498
 2861TIP3    H1 8589   3.653   2.663   3.424
 2861TIP3    H2 8590   3.555   2.772   3.461
 2862TIP3   OH2 8591   6.138   0.910   3.336
 2862TIP3    H1 8592   6.114   0.823   3.305
 2862TIP3    H2 8593   6.119   0.968   3.263
 2863TIP3   OH2 8594   5.693   3.811   4.758
 2863TIP3    H1 8595   5.681   3.821   4.664
 2863TIP3    H2 8596   5.759   3.876   4.781
 2864TIP3   OH2 8597   2.962   2.294   2.016
 2864TIP3    H1 8598   2.998   2.256   2.096
 2864TIP3    H2 8599   2.868   2.273   2.020
 2865TIP3   OH2 8600   6.301   0.978   3.887
 2865TIP3    H1 8601   6.258   0.921   3.951
 2865TIP3    H2 8602   6.346   0.919   3.827
 2866TIP3   OH2 8603   1.643   2.794   2.226
 2866TIP3    H1 8604   1.639   2.750   2.141
 2866TIP3    H2 8605   1.734   2.786   2.253
 2867TIP3   OH2 8606   5.611   5.979   0.082
 2867TIP3    H1 8607   5.629   6.070   0.061
 2867TIP3    H2 8608   5.681   5.930   0.039
 2868TIP3   OH2 8609   3.944   5.610   2.591
 2868TIP3    H1 8610   3.849   5.610   2.575
 2868TIP3    H2 8611   3.971   5.701   2.580
 2869TIP3   OH2 8612   0.832   4.547   0.985
 2869TIP3    H1 8613   0.748   4.564   1.028
 2869TIP3    H2 8614   0.809   4.500   0.905
 2870TIP3   OH2 8615   5.959   2.927   1.544
 2870TIP3    H1 8616   6.013   2.942   1.621
 2870TIP3    H2 8617   5.930   3.014   1.517
 2871TIP3   OH2 8618   0.409   1.954   0.355
 2871TIP3    H1 8619   0.479   1.929   0.416
 2871TIP3    H2 8620   0.331   1.963   0.411
 2872TIP3   OH2 8621   0.962   4.496   3.208
 2872TIP3    H1 8622   0.992   4.475   3.297
 2872TIP3    H2 8623   0.914   4.578   3.217
 2873TIP3   OH2 8624   3.884   0.710   2.090
 2873TIP3    H1 8625   3.800   0.756   2.092
 2873TIP3    H2 8626   3.949   0.780   2.088
 2874TIP3   OH2 8627   4.455   5.299   0.103
 2874TIP3    H1 8628   4.464   5.206   0.126
 2874TIP3    H2 8629   4.533   5.340   0.140
 2875TIP3   OH2 8630   1.131   5.938   3.813
 2875TIP3    H1 8631   1.150   5.907   3.902
 2875TIP3    H2 8632   1.036   5.943   3.809
 2876TIP3   OH2 8633   3.654   5.795   3.615
 2876TIP3    H1 8634   3.605   5.819   3.536
 2876TIP3    H2 8635   3.687   5.707   3.598
 2877TIP3   OH2 8636   3.791   3.787   2.537
 2877TIP3    H1 8637   3.807   3.764   2.629
 2877TIP3    H2 8638   3.749   3.873   2.541
 2878TIP3   OH2 8639   3.941   1.151   3.877
 2878TIP3    H1 8640   3.929   1.149   3.782
 2878TIP3    H2 8641   4.036   1.162   3.889
 2879TIP3   OH2 8642   4.489   5.815   0.726
 2879TIP3    H1 8643   4.438   5.839   0.804
 2879TIP3    H2 8644   4.445   5.737   0.693
 2880TIP3   OH2 8645   5.043   2.962   1.504
 2880TIP3    H1 8646   5.011   2.985   1.417
 2880TIP3    H2 8647   5.138   2.974   1.499
 2881TIP3   OH2 8648   3.368   4.385   5.094
 2881TIP3    H1 8649   3.363   4.303   5.142
 2881TIP3    H2 8650   3.456   4.418   5.112
 2882TIP3   OH2 8651   0.287   5.772   2.723
 2882TIP3    H1 8652   0.309   5.758   2.631
 2882TIP3    H2 8653   0.199   5.809   2.721
 2883TIP3   OH2 8654   5.999   3.468   0.260
 2883TIP3    H1 8655   6.057   3.466   0.183
 2883TIP3    H2 8656   6.057   3.488   0.333
 2884TIP3   OH2 8657   2.804   0.424   3.859
 2884TIP3    H1 8658   2.817   0.356   3.792
 2884TIP3    H2 8659   2.852   0.500   3.826
 2885TIP3   OH2 8660   3.126   0.846   4.228
 2885TIP3    H1 8661   3.202   0.896   4.199
 2885TIP3    H2 8662   3.053   0.908   4.221
 2886TIP3   OH2 8663   1.634   1.128   3.223
 2886TIP3    H1 8664   1.661   1.220   3.231
 2886TIP3    H2 8665   1.641   1.093   3.312
 2887TIP3   OH2 8666   0.249   1.268   1.813
 2887TIP3    H1 8667   0.171   1.214   1.819
 2887TIP3    H2 8668   0.311   1.217   1.760
 2888TIP3   OH2 8669   5.431   1.634   2.947
 2888TIP3    H1 8670   5.515   1.617   2.904
 2888TIP3    H2 8671   5.415   1.554   2.998
 2889TIP3   OH2 8672   0.763   5.361   5.184
 2889TIP3    H1 8673   0.694   5.396   5.128
 2889TIP3    H2 8674   0.841   5.412   5.160
 2890TIP3   OH2 8675   3.952   3.394   3.073
 2890TIP3    H1 8676   3.988   3.379   3.160
 2890TIP3    H2 8677   3.970   3.486   3.056
 2891TIP3   OH2 8678   1.004   2.524   1.659
 2891TIP3    H1 8679   1.060   2.455   1.625
 2891TIP3    H2 8680   1.052   2.605   1.641
 2892TIP3   OH2 8681   0.571   3.055   2.950
 2892TIP3    H1 8682   0.633   3.109   2.998
 2892TIP3    H2 8683   0.492   3.054   3.005
 2893TIP3   OH2 8684   4.397   4.138   4.177
 2893TIP3    H1 8685   4.473   4.132   4.119
 2893TIP3    H2 8686   4.343   4.206   4.139
 2894TIP3   OH2 8687   3.650   5.638   4.483
 2894TIP3    H1 8688   3.669   5.583   4.559
 2894TIP3    H2 8689   3.665   5.581   4.408
 2895TIP3   OH2 8690   1.244   0.334   2.926
 2895TIP3    H1 8691   1.197   0.412   2.954
 2895TIP3    H2 8692   1.218   0.266   2.987
 2896TIP3   OH2 8693   4.576   2.748   0.934
 2896TIP3    H1 8694   4.659   2.703   0.950
 2896TIP3    H2 8695   4.578   2.769   0.840
 2897TIP3   OH2 8696   6.041   1.009   1.007
 2897TIP3    H1 8697   6.024   0.935   0.948
 2897TIP3    H2 8698   5.954   1.038   1.034
 2898TIP3   OH2 8699   0.178   4.799   4.535
 2898TIP3    H1 8700   0.100   4.837   4.576
 2898TIP3    H2 8701   0.248   4.863   4.553
 2899TIP3   OH2 8702   2.243   4.565   3.305
 2899TIP3    H1 8703   2.205   4.649   3.332
 2899TIP3    H2 8704   2.211   4.502   3.369
 2900TIP3   OH2 8705   2.660   5.684   0.488
 2900TIP3    H1 8706   2.565   5.668   0.490
 2900TIP3    H2 8707   2.695   5.615   0.433
 2901TIP3   OH2 8708   3.661   0.851   3.730
 2901TIP3    H1 8709   3.662   0.860   3.825
 2901TIP3    H2 8710   3.711   0.771   3.712
 2902TIP3   OH2 8711   5.009   3.950   1.803
 2902TIP3    H1 8712   5.000   3.888   1.875
 2902TIP3    H2 8713   5.062   4.021   1.839
 2903TIP3   OH2 8714   5.535   3.538   4.013
 2903TIP3    H1 8715   5.545   3.448   4.043
 2903TIP3    H2 8716   5.607   3.550   3.951
 2904TIP3   OH2 8717   3.148   1.504   1.077
 2904TIP3    H1 8718   3.231   1.534   1.039
 2904TIP3    H2 8719   3.129   1.567   1.146
 2905TIP3   OH2 8720   1.554   4.444   0.494
 2905TIP3    H1 8721   1.501   4.368   0.471
 2905TIP3    H2 8722   1.601   4.418   0.573
 2906TIP3   OH2 8723   1.719   3.309   0.755
 2906TIP3    H1 8724   1.710   3.390   0.805
 2906TIP3    H2 8725   1.786   3.327   0.690
 2907TIP3   OH2 8726   4.922   4.204   0.883
 2907TIP3    H1 8727   4.937   4.114   0.914
 2907TIP3    H2 8728   4.905   4.194   0.790
 2908TIP3   OH2 8729   3.536   3.259   0.846
 2908TIP3    H1 8730   3.597   3.289   0.913
 2908TIP3    H2 8731   3.578   3.283   0.763
 2909TIP3   OH2 8732   2.862   2.680   1.361
 2909TIP3    H1 8733   2.912   2.718   1.433
 2909TIP3    H2 8734   2.849   2.589   1.386
 2910TIP3   OH2 8735   2.883   5.369   3.225
 2910TIP3    H1 8736   2.889   5.438   3.158
 2910TIP3    H2 8737   2.932   5.296   3.188
 2911TIP3   OH2 8738   0.449   3.803   4.772
 2911TIP3    H1 8739   0.397   3.789   4.851
 2911TIP3    H2 8740   0.405   3.753   4.704
 2912TIP3   OH2 8741   2.203   1.130   2.423
 2912TIP3    H1 8742   2.247   1.059   2.470
 2912TIP3    H2 8743   2.138   1.163   2.485
 2913TIP3   OH2 8744   3.965   0.368   4.285
 2913TIP3    H1 8745   4.015   0.392   4.362
 2913TIP3    H2 8746   3.916   0.447   4.263
 2914TIP3   OH2 8747   5.665   5.294   1.489
 2914TIP3    H1 8748   5.703   5.207   1.505
 2914TIP3    H2 8749   5.683   5.343   1.570
 2915TIP3   OH2 8750   1.860   4.560   4.942
 2915TIP3    H1 8751   1.910   4.634   4.909
 2915TIP3    H2 8752   1.793   4.600   4.997
 2916TIP3   OH2 8753   0.446   1.293   5.204
 2916TIP3    H1 8754   0.483   1.246   5.128
 2916TIP3    H2 8755   0.354   1.305   5.182
 2917TIP3   OH2 8756   5.332   5.300   1.882
 2917TIP3    H1 8757   5.358   5.387   1.850
 2917TIP3    H2 8758   5.238   5.309   1.901
 2918TIP3   OH2 8759   6.036   1.080   2.819
 2918TIP3    H1 8760   6.102   1.122   2.764
 2918TIP3    H2 8761   6.040   1.128   2.902
 2919TIP3   OH2 8762   4.044   4.589   0.596
 2919TIP3    H1 8763   4.060   4.644   0.673
 2919TIP3    H2 8764   3.955   4.611   0.569
 2920TIP3   OH2 8765   4.779   3.241   3.050
 2920TIP3    H1 8766   4.814   3.265   2.964
 2920TIP3    H2 8767   4.715   3.173   3.032
 2921TIP3   OH2 8768   6.161   1.951   0.241
 2921TIP3    H1 8769   6.130   1.949   0.151
 2921TIP3    H2 8770   6.209   1.869   0.252
 2922TIP3   OH2 8771   3.430   4.093   3.187
 2922TIP3    H1 8772   3.458   4.181   3.162
 2922TIP3    H2 8773   3.480   4.073   3.266
 2923TIP3   OH2 8774   5.460   5.652   2.326
 2923TIP3    H1 8775   5.483   5.745   2.326
 2923TIP3    H2 8776   5.419   5.638   2.412
 2924TIP3   OH2 8777   1.058   1.509   0.689
 2924TIP3    H1 8778   1.077   1.427   0.733
 2924TIP3    H2 8779   0.962   1.512   0.682
 2925TIP3   OH2 8780   5.814   3.797   3.493
 2925TIP3    H1 8781   5.818   3.860   3.565
 2925TIP3    H2 8782   5.756   3.838   3.428
 2926TIP3   OH2 8783   6.242   4.555   1.860
 2926TIP3    H1 8784   6.166   4.584   1.808
 2926TIP3    H2 8785   6.300   4.515   1.795
 2927TIP3   OH2 8786   3.476   0.608   3.752
 2927TIP3    H1 8787   3.507   0.698   3.760
 2927TIP3    H2 8788   3.381   0.614   3.764
 2928TIP3   OH2 8789   2.437   4.961   1.949
 2928TIP3    H1 8790   2.343   4.956   1.964
 2928TIP3    H2 8791   2.474   4.888   1.999
 2929TIP3   OH2 8792   4.983   4.561   1.284
 2929TIP3    H1 8793   5.004   4.505   1.209
 2929TIP3    H2 8794   4.935   4.634   1.247
 2930TIP3   OH2 8795   2.266   1.015   0.580
 2930TIP3    H1 8796   2.247   1.109   0.582
 2930TIP3    H2 8797   2.350   1.009   0.535
 2931TIP3   OH2 8798   6.265   4.024   0.065
 2931TIP3    H1 8799   6.249   4.068   0.149
 2931TIP3    H2 8800   6.204   4.067   0.004
 2932TIP3   OH2 8801   2.302   4.043   0.817
 2932TIP3    H1 8802   2.397   4.033   0.808
 2932TIP3    H2 8803   2.266   3.961   0.784
 2933TIP3   OH2 8804   3.076   1.158   3.557
 2933TIP3    H1 8805   2.997   1.159   3.611
 2933TIP3    H2 8806   3.044   1.153   3.467
 2934TIP3   OH2 8807   2.808   3.162   0.209
 2934TIP3    H1 8808   2.802   3.251   0.173
 2934TIP3    H2 8809   2.754   3.165   0.288
 2935TIP3   OH2 8810   0.181   2.481   4.549
 2935TIP3    H1 8811   0.262   2.526   4.570
 2935TIP3    H2 8812   0.125   2.549   4.512
 2936TIP3   OH2 8813   0.568   4.792   3.160
 2936TIP3    H1 8814   0.477   4.761   3.162
 2936TIP3    H2 8815   0.564   4.875   3.114
 2937TIP3   OH2 8816   6.183   5.673   0.335
 2937TIP3    H1 8817   6.149   5.618   0.406
 2937TIP3    H2 8818   6.167   5.622   0.256
 2938TIP3   OH2 8819   0.537   1.520   1.666
 2938TIP3    H1 8820   0.580   1.476   1.592
 2938TIP3    H2 8821   0.511   1.605   1.631
 2939TIP3   OH2 8822   1.476   1.604   0.356
 2939TIP3    H1 8823   1.499   1.531   0.299
 2939TIP3    H2 8824   1.475   1.680   0.297
 2940TIP3   OH2 8825   1.969   2.013   5.172
 2940TIP3    H1 8826   2.000   1.994   5.261
 2940TIP3    H2 8827   1.886   1.966   5.165
 2941TIP3   OH2 8828   0.191   1.974   3.372
 2941TIP3    H1 8829   0.130   1.899   3.377
 2941TIP3    H2 8830   0.135   2.051   3.382
 2942TIP3   OH2 8831   6.347   2.643   4.422
 2942TIP3    H1 8832   6.265   2.615   4.381
 2942TIP3    H2 8833   6.381   2.710   4.363
 2943TIP3   OH2 8834   4.056   2.322   0.867
 2943TIP3    H1 8835   4.093   2.346   0.782
 2943TIP3    H2 8836   3.994   2.252   0.847
 2944TIP3   OH2 8837   5.698   3.468   1.651
 2944TIP3    H1 8838   5.609   3.469   1.616
 2944TIP3    H2 8839   5.711   3.378   1.682
 2945TIP3   OH2 8840  -0.006   0.303   1.877
 2945TIP3    H1 8841   0.004   0.383   1.826
 2945TIP3    H2 8842   0.034   0.235   1.823
 2946TIP3   OH2 8843   0.908   2.190   4.363
 2946TIP3    H1 8844   0.871   2.106   4.389
 2946TIP3    H2 8845   0.896   2.246   4.440
 2947TIP3   OH2 8846   1.545   0.731   0.657
 2947TIP3    H1 8847   1.570   0.757   0.746
 2947TIP3    H2 8848   1.476   0.794   0.633
 2948TIP3   OH2 8849   3.469   4.386   1.783
 2948TIP3    H1 8850   3.524   4.403   1.707
 2948TIP3    H2 8851   3.521   4.327   1.838
 2949TIP3   OH2 8852   3.396   1.305   1.718
 2949TIP3    H1 8853   3.337   1.265   1.781
 2949TIP3    H2 8854   3.390   1.399   1.734
 2950TIP3   OH2 8855   4.722   1.440   0.809
 2950TIP3    H1 8856   4.702   1.532   0.788
 2950TIP3    H2 8857   4.666   1.420   0.884
 2951TIP3   OH2 8858   4.137   3.542   0.440
 2951TIP3    H1 8859   4.080   3.598   0.387
 2951TIP3    H2 8860   4.223   3.548   0.397
 2952TIP3   OH2 8861   2.076   0.040   1.950
 2952TIP3    H1 8862   2.049  -0.032   1.893
 2952TIP3    H2 8863   2.161   0.012   1.985
 2953TIP3   OH2 8864   1.580   4.910   4.280
 2953TIP3    H1 8865   1.554   4.855   4.206
 2953TIP3    H2 8866   1.556   4.999   4.253
 2954TIP3   OH2 8867   0.732   1.218   0.855
 2954TIP3    H1 8868   0.726   1.125   0.834
 2954TIP3    H2 8869   0.790   1.223   0.931
 2955TIP3   OH2 8870   0.699   3.828   3.829
 2955TIP3    H1 8871   0.700   3.884   3.907
 2955TIP3    H2 8872   0.734   3.884   3.760
 2956TIP3   OH2 8873   5.350   3.088   3.875
 2956TIP3    H1 8874   5.258   3.074   3.852
 2956TIP3    H2 8875   5.356   3.063   3.967
 2957TIP3   OH2 8876   4.756   5.897   1.738
 2957TIP3    H1 8877   4.808   5.818   1.750
 2957TIP3    H2 8878   4.744   5.904   1.643
 2958TIP3   OH2 8879   0.038   0.402   0.476
 2958TIP3    H1 8880   0.005   0.333   0.419
 2958TIP3    H2 8881   0.017   0.372   0.565
 2959TIP3   OH2 8882   0.186   2.083   1.816
 2959TIP3    H1 8883   0.095   2.111   1.826
 2959TIP3    H2 8884   0.215   2.062   1.905
 2960TIP3   OH2 8885   0.196   5.688   2.985
 2960TIP3    H1 8886   0.267   5.718   2.927
 2960TIP3    H2 8887   0.122   5.672   2.927
 2961TIP3   OH2 8888   6.117   4.361   3.380
 2961TIP3    H1 8889   6.036   4.358   3.329
 2961TIP3    H2 8890   6.187   4.359   3.314
 2962TIP3   OH2 8891   0.520   3.832   1.434
 2962TIP3    H1 8892   0.583   3.903   1.437
 2962TIP3    H2 8893   0.530   3.795   1.347
 2963TIP3   OH2 8894   3.495   3.667   0.311
 2963TIP3    H1 8895   3.475   3.760   0.313
 2963TIP3    H2 8896   3.565   3.658   0.246
 2964TIP3   OH2 8897   1.958   4.235   0.361
 2964TIP3    H1 8898   1.895   4.186   0.309
 2964TIP3    H2 8899   2.022   4.170   0.390
 2965TIP3   OH2 8900   3.055   1.702   3.460
 2965TIP3    H1 8901   3.060   1.607   3.475
 2965TIP3    H2 8902   3.024   1.738   3.543
 2966TIP3   OH2 8903   2.166   0.888   0.211
 2966TIP3    H1 8904   2.087   0.898   0.264
 2966TIP3    H2 8905   2.196   0.977   0.194
 2967TIP3   OH2 8906   4.463   5.161   0.804
 2967TIP3    H1 8907   4.458   5.218   0.881
 2967TIP3    H2 8908   4.430   5.076   0.834
 2968TIP3   OH2 8909   5.884   3.394   4.151
 2968TIP3    H1 8910   5.878   3.468   4.092
 2968TIP3    H2 8911   5.919   3.430   4.232
 2969TIP3   OH2 8912   3.795   0.011   3.497
 2969TIP3    H1 8913   3.871  -0.023   3.450
 2969TIP3    H2 8914   3.803   0.106   3.490
 2970TIP3   OH2 8915   4.402   3.576   3.008
 2970TIP3    H1 8916   4.428   3.661   2.975
 2970TIP3    H2 8917   4.484   3.526   3.013
 2971TIP3   OH2 8918   1.070   0.613   2.336
 2971TIP3    H1 8919   0.977   0.635   2.326
 2971TIP3    H2 8920   1.115   0.697   2.338
 2972TIP3   OH2 8921   2.819   1.042   2.553
 2972TIP3    H1 8922   2.789   1.128   2.524
 2972TIP3    H2 8923   2.862   1.004   2.477
 2973TIP3   OH2 8924   0.035   1.081   1.243
 2973TIP3    H1 8925   0.114   1.133   1.263
 2973TIP3    H2 8926   0.018   1.032   1.323
 2974TIP3   OH2 8927   1.125   0.870   3.600
 2974TIP3    H1 8928   1.193   0.897   3.538
 2974TIP3    H2 8929   1.173   0.833   3.674
 2975TIP3   OH2 8930   4.709   5.385   4.860
 2975TIP3    H1 8931   4.647   5.316   4.837
 2975TIP3    H2 8932   4.761   5.399   4.781
 2976TIP3   OH2 8933   0.925   0.054   0.470
 2976TIP3    H1 8934   0.845   0.107   0.477
 2976TIP3    H2 8935   0.907  -0.007   0.398
 2977TIP3   OH2 8936   2.505   4.347   0.926
 2977TIP3    H1 8937   2.475   4.321   1.013
 2977TIP3    H2 8938   2.508   4.265   0.876
 2978TIP3   OH2 8939   1.975   5.394   2.145
 2978TIP3    H1 8940   2.027   5.325   2.105
 2978TIP3    H2 8941   2.031   5.472   2.142
 2979TIP3   OH2 8942   2.921   0.420   0.348
 2979TIP3    H1 8943   2.928   0.324   0.348
 2979TIP3    H2 8944   2.841   0.437   0.298
 2980TIP3   OH2 8945   0.363   1.746   3.424
 2980TIP3    H1 8946   0.448   1.763   3.382
 2980TIP3    H2 8947   0.320   1.831   3.426
 2981TIP3   OH2 8948   4.818   4.113   1.692
 2981TIP3    H1 8949   4.873   4.056   1.747
 2981TIP3    H2 8950   4.865   4.118   1.609
 2982TIP3   OH2 8951   2.537   1.520   1.309
 2982TIP3    H1 8952   2.548   1.612   1.333
 2982TIP3    H2 8953   2.489   1.522   1.226
 2983TIP3   OH2 8954   4.533   5.063   0.262
 2983TIP3    H1 8955   4.455   5.080   0.314
 2983TIP3    H2 8956   4.516   4.978   0.221
 2984TIP3   OH2 8957   0.045   2.868   4.250
 2984TIP3    H1 8958  -0.018   2.886   4.180
 2984TIP3    H2 8959   0.127   2.905   4.218
 2985TIP3   OH2 8960   4.225   5.495   4.646
 2985TIP3    H1 8961   4.301   5.437   4.645
 2985TIP3    H2 8962   4.163   5.452   4.705
 2986TIP3   OH2 8963   3.662   4.823   5.152
 2986TIP3    H1 8964   3.670   4.918   5.151
 2986TIP3    H2 8965   3.643   4.801   5.243
 2987TIP3   OH2 8966   3.764   4.297   3.071
 2987TIP3    H1 8967   3.853   4.318   3.044
 2987TIP3    H2 8968   3.742   4.365   3.135
 2988TIP3   OH2 8969   6.072   3.330   2.342
 2988TIP3    H1 8970   6.061   3.252   2.287
 2988TIP3    H2 8971   6.102   3.297   2.426
 2989TIP3   OH2 8972   2.866   2.894   1.968
 2989TIP3    H1 8973   2.860   2.983   2.000
 2989TIP3    H2 8974   2.938   2.855   2.019
 2990TIP3   OH2 8975   5.717   2.002   0.613
 2990TIP3    H1 8976   5.784   1.976   0.676
 2990TIP3    H2 8977   5.758   2.074   0.564
 2991TIP3   OH2 8978   0.879   2.314   1.038
 2991TIP3    H1 8979   0.856   2.379   1.104
 2991TIP3    H2 8980   0.893   2.365   0.958
 2992TIP3   OH2 8981   5.209   1.822   2.060
 2992TIP3    H1 8982   5.232   1.856   1.973
 2992TIP3    H2 8983   5.273   1.752   2.075
 2993TIP3   OH2 8984   1.674   0.809   3.697
 2993TIP3    H1 8985   1.713   0.801   3.784
 2993TIP3    H2 8986   1.718   0.741   3.645
 2994TIP3   OH2 8987   3.297   4.871   2.056
 2994TIP3    H1 8988   3.220   4.868   2.000
 2994TIP3    H2 8989   3.267   4.908   2.139
 2995TIP3   OH2 8990   6.088   0.518   0.082
 2995TIP3    H1 8991   6.113   0.608   0.061
 2995TIP3    H2 8992   6.003   0.506   0.041
 2996TIP3   OH2 8993   0.388   2.860   0.501
 2996TIP3    H1 8994   0.415   2.928   0.439
 2996TIP3    H2 8995   0.292   2.859   0.495
 2997TIP3   OH2 8996   2.286   1.258   4.291
 2997TIP3    H1 8997   2.339   1.239   4.213
 2997TIP3    H2 8998   2.199   1.227   4.269
 2998TIP3   OH2 8999   3.441   0.864   0.243
 2998TIP3    H1 9000   3.500   0.935   0.270
 2998TIP3    H2 9001   3.384   0.905   0.178
 2999TIP3   OH2 9002   4.215   0.902   0.283
 2999TIP3    H1 9003   4.236   0.926   0.193
 2999TIP3    H2 9004   4.294   0.926   0.333
 3000TIP3   OH2 9005   4.009   5.081   3.622
 3000TIP3    H1 9006   4.040   5.163   3.583
 3000TIP3    H2 9007   4.046   5.013   3.567
 3001TIP3   OH2 9008   4.134   2.995   2.554
 3001TIP3    H1 9009   4.106   2.948   2.633
 3001TIP3    H2 9010   4.082   3.076   2.555
 3002TIP3   OH2 9011   6.229   0.294   0.056
 3002TIP3    H1 9012   6.186   0.374   0.086
 3002TIP3    H2 9013   6.198   0.226   0.116
 3003TIP3   OH2 9014   5.228   4.947   4.405
 3003TIP3    H1 9015   5.217   4.868   4.458
 3003TIP3    H2 9016   5.185   4.928   4.322
 3004TIP3   OH2 9017   5.471   1.218   0.394
 3004TIP3    H1 9018   5.436   1.162   0.325
 3004TIP3    H2 9019   5.408   1.290   0.401
 3005TIP3   OH2 9020   4.965   3.748   4.280
 3005TIP3    H1 9021   5.037   3.794   4.235
 3005TIP3    H2 9022   4.936   3.682   4.217
 3006TIP3   OH2 9023   3.595   1.743   1.432
 3006TIP3    H1 9024   3.629   1.677   1.372
 3006TIP3    H2 9025   3.521   1.782   1.385
 3007TIP3   OH2 9026   6.090   3.042   4.807
 3007TIP3    H1 9027   6.123   2.954   4.823
 3007TIP3    H2 9028   6.001   3.041   4.842
 3008TIP3   OH2 9029   4.917  -0.056   4.175
 3008TIP3    H1 9030   5.003  -0.028   4.204
 3008TIP3    H2 9031   4.857   0.010   4.209
 3009TIP3   OH2 9032   0.952   0.860   4.909
 3009TIP3    H1 9033   0.965   0.814   4.993
 3009TIP3    H2 9034   0.934   0.950   4.934
 3010TIP3   OH2 9035   5.227   1.226   0.707
 3010TIP3    H1 9036   5.144   1.269   0.686
 3010TIP3    H2 9037   5.242   1.248   0.799
 3011TIP3   OH2 9038   2.782   0.047   1.128
 3011TIP3    H1 9039   2.759  -0.018   1.062
 3011TIP3    H2 9040   2.878   0.049   1.127
 3012TIP3   OH2 9041   1.448   2.956   4.300
 3012TIP3    H1 9042   1.395   3.020   4.347
 3012TIP3    H2 9043   1.407   2.949   4.214
 3013TIP3   OH2 9044   6.280   4.859   3.536
 3013TIP3    H1 9045   6.358   4.847   3.589
 3013TIP3    H2 9046   6.219   4.908   3.593
 3014TIP3   OH2 9047   2.055   5.762   0.698
 3014TIP3    H1 9048   2.128   5.713   0.735
 3014TIP3    H2 9049   2.062   5.849   0.738
 3015TIP3   OH2 9050   2.615   0.219   2.594
 3015TIP3    H1 9051   2.529   0.255   2.572
 3015TIP3    H2 9052   2.676   0.266   2.536
 3016TIP3   OH2 9053   1.263   4.727   0.866
 3016TIP3    H1 9054   1.298   4.794   0.925
 3016TIP3    H2 9055   1.327   4.656   0.869
 3017TIP3   OH2 9056   3.293   5.109   5.231
 3017TIP3    H1 9057   3.365   5.141   5.176
 3017TIP3    H2 9058   3.218   5.163   5.206
 3018TIP3   OH2 9059   6.262   3.499   4.117
 3018TIP3    H1 9060   6.250   3.519   4.024
 3018TIP3    H2 9061   6.285   3.582   4.157
 3019TIP3   OH2 9062   4.413   5.392   2.408
 3019TIP3    H1 9063   4.404   5.299   2.389
 3019TIP3    H2 9064   4.391   5.400   2.501
 3020TIP3   OH2 9065   3.253   2.688   1.125
 3020TIP3    H1 9066   3.296   2.673   1.041
 3020TIP3    H2 9067   3.277   2.611   1.178
 3021TIP3   OH2 9068   0.201   0.985   5.114
 3021TIP3    H1 9069   0.194   0.911   5.175
 3021TIP3    H2 9070   0.260   0.954   5.046
 3022TIP3   OH2 9071   4.211   3.376   2.041
 3022TIP3    H1 9072   4.210   3.280   2.032
 3022TIP3    H2 9073   4.150   3.393   2.113
 3023TIP3   OH2 9074   6.302   5.933   5.151
 3023TIP3    H1 9075   6.387   5.973   5.167
 3023TIP3    H2 9076   6.297   5.861   5.214
 3024TIP3   OH2 9077   1.856   1.064   3.039
 3024TIP3    H1 9078   1.800   1.070   3.116
 3024TIP3    H2 9079   1.896   1.150   3.031
 3025TIP3   OH2 9080   6.126   2.428   4.082
 3025TIP3    H1 9081   6.163   2.359   4.136
 3025TIP3    H2 9082   6.200   2.460   4.030
 3026TIP3   OH2 9083   3.703   1.888   4.654
 3026TIP3    H1 9084   3.646   1.915   4.726
 3026TIP3    H2 9085   3.708   1.793   4.662
 3027TIP3   OH2 9086   0.052   3.075   0.681
 3027TIP3    H1 9087   0.042   3.165   0.652
 3027TIP3    H2 9088   0.080   3.082   0.772
 3028TIP3   OH2 9089   4.247   1.036   0.633
 3028TIP3    H1 9090   4.314   0.969   0.642
 3028TIP3    H2 9091   4.258   1.070   0.545
 3029TIP3   OH2 9092   1.867   4.863   3.772
 3029TIP3    H1 9093   1.857   4.931   3.705
 3029TIP3    H2 9094   1.817   4.788   3.739
 3030TIP3   OH2 9095   4.321   2.854   1.198
 3030TIP3    H1 9096   4.290   2.765   1.210
 3030TIP3    H2 9097   4.273   2.887   1.123
 3031TIP3   OH2 9098   3.350   3.249   3.225
 3031TIP3    H1 9099   3.418   3.207   3.173
 3031TIP3    H2 9100   3.298   3.299   3.162
 3032TIP3   OH2 9101   2.581   3.570   2.743
 3032TIP3    H1 9102   2.567   3.509   2.671
 3032TIP3    H2 9103   2.662   3.615   2.722
 3033TIP3   OH2 9104   4.856   1.819   2.506
 3033TIP3    H1 9105   4.934   1.768   2.485
 3033TIP3    H2 9106   4.883   1.910   2.495
 3034TIP3   OH2 9107   2.334   4.319   5.108
 3034TIP3    H1 9108   2.293   4.280   5.030
 3034TIP3    H2 9109   2.270   4.383   5.139
 3035TIP3   OH2 9110   5.140   0.555   4.388
 3035TIP3    H1 9111   5.118   0.582   4.476
 3035TIP3    H2 9112   5.193   0.627   4.353
 3036TIP3   OH2 9113   2.177   4.085   2.113
 3036TIP3    H1 9114   2.137   4.128   2.037
 3036TIP3    H2 9115   2.109   4.087   2.180
 3037TIP3   OH2 9116   4.719   4.255   2.703
 3037TIP3    H1 9117   4.643   4.228   2.651
 3037TIP3    H2 9118   4.691   4.247   2.794
 3038TIP3   OH2 9119   5.052   5.438   3.013
 3038TIP3    H1 9120   4.967   5.483   3.018
 3038TIP3    H2 9121   5.067   5.406   3.102
 3039TIP3   OH2 9122   1.734   2.295   0.332
 3039TIP3    H1 9123   1.777   2.378   0.354
 3039TIP3    H2 9124   1.667   2.285   0.399
 3040TIP3   OH2 9125   4.616   2.660   3.958
 3040TIP3    H1 9126   4.612   2.638   3.865
 3040TIP3    H2 9127   4.528   2.642   3.991
 3041TIP3   OH2 9128   5.576   2.440   1.624
 3041TIP3    H1 9129   5.499   2.495   1.617
 3041TIP3    H2 9130   5.584   2.420   1.717
 3042TIP3   OH2 9131   3.323   0.144   0.363
 3042TIP3    H1 9132   3.298   0.205   0.294
 3042TIP3    H2 9133   3.271   0.065   0.346
 3043TIP3   OH2 9134   2.105   5.091   0.752
 3043TIP3    H1 9135   2.056   5.150   0.694
 3043TIP3    H2 9136   2.140   5.024   0.693
 3044TIP3   OH2 9137   0.827   2.677   2.118
 3044TIP3    H1 9138   0.910   2.724   2.123
 3044TIP3    H2 9139   0.783   2.697   2.200
 3045TIP3   OH2 9140   5.437   1.085   2.793
 3045TIP3    H1 9141   5.364   1.084   2.731
 3045TIP3    H2 9142   5.418   1.013   2.853
 3046TIP3   OH2 9143   2.420   1.989   1.885
 3046TIP3    H1 9144   2.462   1.923   1.940
 3046TIP3    H2 9145   2.410   2.065   1.941
 3047TIP3   OH2 9146   2.351   1.688   2.485
 3047TIP3    H1 9147   2.281   1.634   2.521
 3047TIP3    H2 9148   2.416   1.626   2.454
 3048TIP3   OH2 9149   3.199   0.584   1.862
 3048TIP3    H1 9150   3.250   0.633   1.797
 3048TIP3    H2 9151   3.262   0.528   1.906
 3049TIP3   OH2 9152   0.313   5.431   0.262
 3049TIP3    H1 9153   0.295   5.456   0.352
 3049TIP3    H2 9154   0.247   5.477   0.210
 3050TIP3   OH2 9155   0.972   1.009   1.671
 3050TIP3    H1 9156   0.983   1.081   1.609
 3050TIP3    H2 9157   1.058   0.967   1.674
 3051TIP3   OH2 9158   1.975   3.627   1.511
 3051TIP3    H1 9159   1.953   3.660   1.599
 3051TIP3    H2 9160   2.047   3.566   1.525
 3052TIP3   OH2 9161   0.779   4.436   4.222
 3052TIP3    H1 9162   0.733   4.512   4.255
 3052TIP3    H2 9163   0.846   4.472   4.163
 3053TIP3   OH2 9164   1.303   0.189   3.503
 3053TIP3    H1 9165   1.286   0.169   3.595
 3053TIP3    H2 9166   1.371   0.256   3.505
 3054TIP3   OH2 9167   5.366   3.817   0.105
 3054TIP3    H1 9168   5.368   3.727   0.138
 3054TIP3    H2 9169   5.382   3.808   0.011
 3055TIP3   OH2 9170   3.287   5.359   4.371
 3055TIP3    H1 9171   3.199   5.388   4.347
 3055TIP3    H2 9172   3.283   5.345   4.465
 3056TIP3   OH2 9173   5.909   0.725   1.524
 3056TIP3    H1 9174   5.945   0.705   1.610
 3056TIP3    H2 9175   5.983   0.721   1.464
 3057TIP3   OH2 9176   0.980   3.039   0.013
 3057TIP3    H1 9177   0.949   3.123   0.047
 3057TIP3    H2 9178   1.075   3.043   0.021
 3058TIP3   OH2 9179   3.850   0.028   2.960
 3058TIP3    H1 9180   3.912   0.072   3.018
 3058TIP3    H2 9181   3.765   0.040   3.002
 3059TIP3   OH2 9182   1.693   0.377   0.576
 3059TIP3    H1 9183   1.600   0.378   0.600
 3059TIP3    H2 9184   1.726   0.296   0.616
 3060TIP3   OH2 9185   4.094   3.731   1.768
 3060TIP3    H1 9186   4.047   3.814   1.777
 3060TIP3    H2 9187   4.187   3.755   1.775
 3061TIP3   OH2 9188   5.418   4.872   5.014
 3061TIP3    H1 9189   5.378   4.810   4.952
 3061TIP3    H2 9190   5.432   4.951   4.962
 3062TIP3   OH2 9191   6.076   0.928   4.601
 3062TIP3    H1 9192   6.057   0.936   4.695
 3062TIP3    H2 9193   6.166   0.959   4.593
 3063TIP3   OH2 9194   3.783   5.502   1.494
 3063TIP3    H1 9195   3.771   5.563   1.421
 3063TIP3    H2 9196   3.730   5.538   1.565
 3064TIP3   OH2 9197   4.761   0.795   0.577
 3064TIP3    H1 9198   4.678   0.754   0.602
 3064TIP3    H2 9199   4.760   0.879   0.624
 3065TIP3   OH2 9200   6.236   1.881   2.418
 3065TIP3    H1 9201   6.216   1.974   2.422
 3065TIP3    H2 9202   6.283   1.870   2.335
 3066TIP3   OH2 9203   1.703   1.097   4.819
 3066TIP3    H1 9204   1.636   1.048   4.772
 3066TIP3    H2 9205   1.723   1.172   4.763
 3067TIP3   OH2 9206   1.262   5.486   4.908
 3067TIP3    H1 9207   1.298   5.575   4.916
 3067TIP3    H2 9208   1.300   5.453   4.826
 3068TIP3   OH2 9209   6.295   4.593   1.449
 3068TIP3    H1 9210   6.207   4.626   1.466
 3068TIP3    H2 9211   6.316   4.538   1.525
 3069TIP3   OH2 9212   0.138   2.884   2.991
 3069TIP3    H1 9213   0.199   2.875   3.064
 3069TIP3    H2 9214   0.127   2.796   2.957
 3070TIP3   OH2 9215   4.572   5.894   3.942
 3070TIP3    H1 9216   4.553   5.982   3.907
 3070TIP3    H2 9217   4.554   5.835   3.869
 3071TIP3   OH2 9218   5.423   5.133   2.334
 3071TIP3    H1 9219   5.465   5.138   2.420
 3071TIP3    H2 9220   5.481   5.182   2.276
 3072TIP3   OH2 9221   0.141   3.141   0.930
 3072TIP3    H1 9222   0.125   3.179   1.016
 3072TIP3    H2 9223   0.225   3.179   0.902
 3073TIP3   OH2 9224   2.889   2.197   2.550
 3073TIP3    H1 9225   2.853   2.123   2.598
 3073TIP3    H2 9226   2.881   2.271   2.610
 3074TIP3   OH2 9227   2.154   2.562   1.744
 3074TIP3    H1 9228   2.117   2.475   1.756
 3074TIP3    H2 9229   2.081   2.621   1.765
 3075TIP3   OH2 9230   4.942   2.509   0.528
 3075TIP3    H1 9231   4.965   2.530   0.619
 3075TIP3    H2 9232   5.010   2.551   0.476
 3076TIP3   OH2 9233   0.695   0.236   2.117
 3076TIP3    H1 9234   0.767   0.299   2.128
 3076TIP3    H2 9235   0.681   0.232   2.022
 3077TIP3   OH2 9236   3.163   4.151   1.691
 3077TIP3    H1 9237   3.213   4.089   1.744
 3077TIP3    H2 9238   3.078   4.109   1.680
 3078TIP3   OH2 9239   4.675   4.634   3.414
 3078TIP3    H1 9240   4.682   4.711   3.470
 3078TIP3    H2 9241   4.621   4.573   3.463
 3079TIP3   OH2 9242   5.439   1.337   4.388
 3079TIP3    H1 9243   5.520   1.289   4.369
 3079TIP3    H2 9244   5.379   1.270   4.422
 3080TIP3   OH2 9245   1.915   5.107   4.298
 3080TIP3    H1 9246   1.882   5.078   4.213
 3080TIP3    H2 9247   1.939   5.027   4.344
 3081TIP3   OH2 9248   0.220   5.638   0.905
 3081TIP3    H1 9249   0.279   5.566   0.883
 3081TIP3    H2 9250   0.152   5.598   0.959
 3082TIP3   OH2 9251   1.368   3.353   4.511
 3082TIP3    H1 9252   1.388   3.259   4.510
 3082TIP3    H2 9253   1.434   3.391   4.568
 3083TIP3   OH2 9254   6.118   5.021   4.380
 3083TIP3    H1 9255   6.133   4.996   4.288
 3083TIP3    H2 9256   6.071   4.948   4.418
 3084TIP3   OH2 9257   1.052   1.888   4.310
 3084TIP3    H1 9258   0.993   1.842   4.250
 3084TIP3    H2 9259   1.086   1.819   4.368
 3085TIP3   OH2 9260   4.822   2.368   3.223
 3085TIP3    H1 9261   4.906   2.411   3.237
 3085TIP3    H2 9262   4.842   2.292   3.168
 3086TIP3   OH2 9263   1.782   3.147   3.179
 3086TIP3    H1 9264   1.787   3.057   3.146
 3086TIP3    H2 9265   1.837   3.197   3.119
 3087TIP3   OH2 9266   2.337   4.141   3.743
 3087TIP3    H1 9267   2.379   4.120   3.660
 3087TIP3    H2 9268   2.403   4.119   3.809
 3088TIP3   OH2 9269   5.802   5.259   0.705
 3088TIP3    H1 9270   5.761   5.187   0.658
 3088TIP3    H2 9271   5.757   5.262   0.789
 3089TIP3   OH2 9272   0.124   1.650   4.664
 3089TIP3    H1 9273   0.113   1.733   4.712
 3089TIP3    H2 9274   0.064   1.657   4.589
 3090TIP3   OH2 9275   3.479   5.010   0.738
 3090TIP3    H1 9276   3.439   5.004   0.651
 3090TIP3    H2 9277   3.533   5.089   0.734
 3091TIP3   OH2 9278   0.560   4.202   4.301
 3091TIP3    H1 9279   0.609   4.122   4.321
 3091TIP3    H2 9280   0.627   4.269   4.290
 3092TIP3   OH2 9281   2.822   2.351   0.393
 3092TIP3    H1 9282   2.786   2.287   0.455
 3092TIP3    H2 9283   2.772   2.335   0.312
 3093TIP3   OH2 9284   0.480   1.981   1.233
 3093TIP3    H1 9285   0.558   2.000   1.180
 3093TIP3    H2 9286   0.507   2.001   1.322
 3094TIP3   OH2 9287   4.221   1.865   1.383
 3094TIP3    H1 9288   4.271   1.784   1.375
 3094TIP3    H2 9289   4.172   1.854   1.464
 3095TIP3   OH2 9290   5.995   3.208   0.099
 3095TIP3    H1 9291   6.086   3.213   0.129
 3095TIP3    H2 9292   5.944   3.248   0.170
 3096TIP3   OH2 9293   2.471   2.878   1.903
 3096TIP3    H1 9294   2.456   2.851   1.993
 3096TIP3    H2 9295   2.518   2.961   1.910
 3097TIP3   OH2 9296   0.536   3.747   3.600
 3097TIP3    H1 9297   0.597   3.769   3.670
 3097TIP3    H2 9298   0.566   3.798   3.524
 3098TIP3   OH2 9299   3.287   4.596   2.996
 3098TIP3    H1 9300   3.325   4.594   2.909
 3098TIP3    H2 9301   3.327   4.672   3.038
 3099TIP3   OH2 9302   0.598   4.334   1.342
 3099TIP3    H1 9303   0.609   4.343   1.247
 3099TIP3    H2 9304   0.566   4.419   1.371
 3100TIP3   OH2 9305   4.013   1.974   2.084
 3100TIP3    H1 9306   4.059   2.041   2.133
 3100TIP3    H2 9307   3.959   1.928   2.149
 3101TIP3   OH2 9308   3.405   2.957   4.154
 3101TIP3    H1 9309   3.383   2.865   4.138
 3101TIP3    H2 9310   3.331   3.006   4.120
 3102TIP3   OH2 9311   3.786   2.304   1.389
 3102TIP3    H1 9312   3.852   2.356   1.344
 3102TIP3    H2 9313   3.832   2.223   1.414
 3103TIP3   OH2 9314   0.519   5.075   3.105
 3103TIP3    H1 9315   0.448   5.110   3.159
 3103TIP3    H2 9316   0.583   5.147   3.101
 3104TIP3   OH2 9317   4.976   2.243   2.994
 3104TIP3    H1 9318   5.027   2.166   3.016
 3104TIP3    H2 9319   5.040   2.314   2.992
 3105TIP3   OH2 9320   1.328   0.792   4.070
 3105TIP3    H1 9321   1.304   0.709   4.029
 3105TIP3    H2 9322   1.282   0.792   4.153
 3106TIP3   OH2 9323   5.165   2.748   2.532
 3106TIP3    H1 9324   5.076   2.719   2.551
 3106TIP3    H2 9325   5.203   2.678   2.479
 3107TIP3   OH2 9326   1.416   1.280   0.844
 3107TIP3    H1 9327   1.374   1.248   0.764
 3107TIP3    H2 9328   1.432   1.373   0.828
 3108TIP3   OH2 9329   0.869   3.557   2.788
 3108TIP3    H1 9330   0.894   3.614   2.861
 3108TIP3    H2 9331   0.775   3.568   2.780
 3109TIP3   OH2 9332   1.962   0.313   1.206
 3109TIP3    H1 9333   2.020   0.237   1.199
 3109TIP3    H2 9334   1.945   0.321   1.300
 3110TIP3   OH2 9335   2.538   4.235   4.413
 3110TIP3    H1 9336   2.621   4.258   4.372
 3110TIP3    H2 9337   2.541   4.139   4.420
 3111TIP3   OH2 9338   4.410   2.401   3.199
 3111TIP3    H1 9339   4.459   2.483   3.198
 3111TIP3    H2 9340   4.382   2.392   3.290
 3112TIP3   OH2 9341   2.826   5.478   2.322
 3112TIP3    H1 9342   2.861   5.400   2.365
 3112TIP3    H2 9343   2.849   5.550   2.380
 3113TIP3   OH2 9344   2.294   3.170   0.799
 3113TIP3    H1 9345   2.366   3.111   0.778
 3113TIP3    H2 9346   2.332   3.231   0.862
 3114TIP3   OH2 9347   3.493   4.003   4.505
 3114TIP3    H1 9348   3.562   4.054   4.547
 3114TIP3    H2 9349   3.512   4.010   4.411
 3115TIP3   OH2 9350   4.129   5.634   0.261
 3115TIP3    H1 9351   4.161   5.668   0.178
 3115TIP3    H2 9352   4.147   5.540   0.258
 3116TIP3   OH2 9353   3.142   5.032   2.240
 3116TIP3    H1 9354   3.054   5.015   2.274
 3116TIP3    H2 9355   3.197   5.039   2.318
 3117TIP3   OH2 9356   1.625   0.423   0.114
 3117TIP3    H1 9357   1.645   0.513   0.137
 3117TIP3    H2 9358   1.601   0.381   0.196
 3118TIP3   OH2 9359   4.629   2.377   3.577
 3118TIP3    H1 9360   4.552   2.404   3.528
 3118TIP3    H2 9361   4.595   2.345   3.660
 3119TIP3   OH2 9362   0.313   1.519   4.839
 3119TIP3    H1 9363   0.247   1.478   4.894
 3119TIP3    H2 9364   0.274   1.522   4.752
 3120TIP3   OH2 9365   4.959   3.377   1.494
 3120TIP3    H1 9366   4.938   3.289   1.522
 3120TIP3    H2 9367   4.935   3.379   1.401
 3121TIP3   OH2 9368   2.986   5.630   2.115
 3121TIP3    H1 9369   2.933   5.570   2.166
 3121TIP3    H2 9370   3.015   5.578   2.040
 3122TIP3   OH2 9371   4.937   1.727   0.715
 3122TIP3    H1 9372   4.849   1.689   0.720
 3122TIP3    H2 9373   4.936   1.801   0.776
 3123TIP3   OH2 9374   6.241   1.231   3.992
 3123TIP3    H1 9375   6.250   1.145   3.951
 3123TIP3    H2 9376   6.154   1.231   4.031
 3124TIP3   OH2 9377   4.165   1.887   4.200
 3124TIP3    H1 9378   4.159   1.889   4.295
 3124TIP3    H2 9379   4.207   1.970   4.176
 3125TIP3   OH2 9380   4.473   4.844   0.562
 3125TIP3    H1 9381   4.550   4.891   0.593
 3125TIP3    H2 9382   4.508   4.775   0.505
 3126TIP3   OH2 9383   5.811   3.561   2.399
 3126TIP3    H1 9384   5.756   3.486   2.374
 3126TIP3    H2 9385   5.770   3.595   2.478
 3127TIP3   OH2 9386   1.761   3.544   0.377
 3127TIP3    H1 9387   1.814   3.484   0.430
 3127TIP3    H2 9388   1.782   3.520   0.287
 3128TIP3   OH2 9389   6.323   5.185   3.658
 3128TIP3    H1 9390   6.387   5.162   3.725
 3128TIP3    H2 9391   6.323   5.281   3.657
 3129TIP3   OH2 9392   2.091   4.529   2.410
 3129TIP3    H1 9393   2.052   4.474   2.342
 3129TIP3    H2 9394   2.172   4.561   2.371
 3130TIP3   OH2 9395   3.981   3.066   1.425
 3130TIP3    H1 9396   4.013   3.124   1.495
 3130TIP3    H2 9397   4.037   2.989   1.432
 3131TIP3   OH2 9398   2.339   1.462   4.540
 3131TIP3    H1 9399   2.395   1.437   4.466
 3131TIP3    H2 9400   2.271   1.516   4.501
 3132TIP3   OH2 9401   0.566   5.867   4.328
 3132TIP3    H1 9402   0.470   5.871   4.330
 3132TIP3    H2 9403   0.588   5.785   4.373
 3133TIP3   OH2 9404   2.316   5.185   4.358
 3133TIP3    H1 9405   2.399   5.171   4.403
 3133TIP3    H2 9406   2.319   5.125   4.283
 3134TIP3   OH2 9407   4.036   3.256   2.560
 3134TIP3    H1 9408   3.986   3.337   2.549
 3134TIP3    H2 9409   4.029   3.236   2.653
 3135TIP3   OH2 9410   5.182   0.818   1.182
 3135TIP3    H1 9411   5.142   0.875   1.247
 3135TIP3    H2 9412   5.272   0.850   1.174
 3136TIP3   OH2 9413   2.055   1.330   0.247
 3136TIP3    H1 9414   1.985   1.268   0.268
 3136TIP3    H2 9415   2.135   1.284   0.272
 3137TIP3   OH2 9416   3.926   2.992   4.319
 3137TIP3    H1 9417   3.919   2.990   4.414
 3137TIP3    H2 9418   3.838   3.014   4.288
 3138TIP3   OH2 9419   5.759   0.934   4.664
 3138TIP3    H1 9420   5.798   1.001   4.608
 3138TIP3    H2 9421   5.827   0.912   4.727
 3139TIP3   OH2 9422   2.929   0.924   3.854
 3139TIP3    H1 9423   2.871   0.848   3.856
 3139TIP3    H2 9424   2.887   0.984   3.793
 3140TIP3   OH2 9425   6.359   4.088   4.656
 3140TIP3    H1 9426   6.349   4.184   4.656
 3140TIP3    H2 9427   6.288   4.057   4.601
 3141TIP3   OH2 9428   5.631   0.189   2.938
 3141TIP3    H1 9429   5.604   0.115   2.883
 3141TIP3    H2 9430   5.559   0.252   2.931
 3142TIP3   OH2 9431   3.370   3.779   3.760
 3142TIP3    H1 9432   3.445   3.834   3.787
 3142TIP3    H2 9433   3.294   3.837   3.769
 3143TIP3   OH2 9434   5.840   1.008   1.929
 3143TIP3    H1 9435   5.878   1.072   1.869
 3143TIP3    H2 9436   5.896   0.930   1.919
 3144TIP3   OH2 9437   2.813   0.633   4.371
 3144TIP3    H1 9438   2.773   0.560   4.324
 3144TIP3    H2 9439   2.901   0.603   4.392
 3145TIP3   OH2 9440   4.289   0.186   2.784
 3145TIP3    H1 9441   4.294   0.209   2.877
 3145TIP3    H2 9442   4.200   0.153   2.772
 3146TIP3   OH2 9443   3.053   2.383   1.323
 3146TIP3    H1 9444   3.076   2.416   1.236
 3146TIP3    H2 9445   3.110   2.432   1.382
 3147TIP3   OH2 9446   3.873   4.094   3.556
 3147TIP3    H1 9447   3.941   4.034   3.586
 3147TIP3    H2 9448   3.867   4.159   3.626
 3148TIP3   OH2 9449   6.021   1.204   1.516
 3148TIP3    H1 9450   6.027   1.275   1.453
 3148TIP3    H2 9451   5.972   1.135   1.471
 3149TIP3   OH2 9452   5.862   1.197   4.584
 3149TIP3    H1 9453   5.939   1.154   4.623
 3149TIP3    H2 9454   5.896   1.240   4.506
 3150TIP3   OH2 9455   1.811   3.990   2.081
 3150TIP3    H1 9456   1.749   3.978   2.010
 3150TIP3    H2 9457   1.837   4.082   2.076
 3151TIP3   OH2 9458   2.526   0.848   2.310
 3151TIP3    H1 9459   2.552   0.871   2.399
 3151TIP3    H2 9460   2.596   0.884   2.255
 3152TIP3   OH2 9461   6.245   4.195   1.638
 3152TIP3    H1 9462   6.218   4.142   1.564
 3152TIP3    H2 9463   6.166   4.242   1.665
 3153TIP3   OH2 9464   6.069   0.365   0.396
 3153TIP3    H1 9465   6.013   0.411   0.335
 3153TIP3    H2 9466   6.054   0.408   0.480
 3154TIP3   OH2 9467   5.312   0.287   1.613
 3154TIP3    H1 9468   5.243   0.220   1.612
 3154TIP3    H2 9469   5.374   0.259   1.546
 3155TIP3   OH2 9470   1.516   2.935   1.260
 3155TIP3    H1 9471   1.596   2.956   1.306
 3155TIP3    H2 9472   1.493   2.847   1.290
 3156TIP3   OH2 9473   3.924   1.653   5.117
 3156TIP3    H1 9474   3.859   1.582   5.113
 3156TIP3    H2 9475   3.875   1.732   5.094
 3157TIP3   OH2 9476   4.398   4.029   2.066
 3157TIP3    H1 9477   4.332   4.099   2.064
 3157TIP3    H2 9478   4.443   4.036   1.982
 3158TIP3   OH2 9479   2.599   1.789   2.703
 3158TIP3    H1 9480   2.625   1.795   2.611
 3158TIP3    H2 9481   2.518   1.737   2.702
 3159TIP3   OH2 9482   4.737   5.161   2.119
 3159TIP3    H1 9483   4.643   5.157   2.135
 3159TIP3    H2 9484   4.746   5.212   2.039
 3160TIP3   OH2 9485   1.427   3.139   1.547
 3160TIP3    H1 9486   1.349   3.091   1.575
 3160TIP3    H2 9487   1.438   3.115   1.455
 3161TIP3   OH2 9488   0.907   4.368   3.577
 3161TIP3    H1 9489   0.919   4.296   3.638
 3161TIP3    H2 9490   0.979   4.360   3.515
 3162TIP3   OH2 9491   6.168   2.714   1.100
 3162TIP3    H1 9492   6.230   2.764   1.046
 3162TIP3    H2 9493   6.144   2.775   1.170
 3163TIP3   OH2 9494   3.139   1.220   1.088
 3163TIP3    H1 9495   3.056   1.192   1.049
 3163TIP3    H2 9496   3.145   1.313   1.066
 3164TIP3   OH2 9497   2.549   1.811   0.219
 3164TIP3    H1 9498   2.503   1.892   0.239
 3164TIP3    H2 9499   2.599   1.830   0.140
 3165TIP3   OH2 9500   4.981   4.058   3.930
 3165TIP3    H1 9501   4.943   4.097   4.009
 3165TIP3    H2 9502   4.925   4.087   3.859
 3166TIP3   OH2 9503   5.503   2.758   4.127
 3166TIP3    H1 9504   5.422   2.809   4.130
 3166TIP3    H2 9505   5.573   2.824   4.122
 3167TIP3   OH2 9506   0.543   0.158   1.508
 3167TIP3    H1 9507   0.565   0.158   1.415
 3167TIP3    H2 9508   0.609   0.215   1.548
 3168TIP3   OH2 9509   2.006   4.066   3.191
 3168TIP3    H1 9510   1.914   4.081   3.210
 3168TIP3    H2 9511   2.008   3.983   3.144
 3169TIP3   OH2 9512   0.444   5.874   4.780
 3169TIP3    H1 9513   0.532   5.838   4.781
 3169TIP3    H2 9514   0.444   5.941   4.848
 3170TIP3   OH2 9515   2.186   4.502   1.489
 3170TIP3    H1 9516   2.263   4.492   1.546
 3170TIP3    H2 9517   2.207   4.450   1.411
 3171TIP3   OH2 9518   1.560   1.989   3.425
 3171TIP3    H1 9519   1.479   1.992   3.477
 3171TIP3    H2 9520   1.554   2.066   3.368
 3172TIP3   OH2 9521   2.430   3.858   3.676
 3172TIP3    H1 9522   2.425   3.895   3.588
 3172TIP3    H2 9523   2.509   3.897   3.714
 3173TIP3   OH2 9524   0.917   4.683   2.112
 3173TIP3    H1 9525   0.953   4.723   2.191
 3173TIP3    H2 9526   0.877   4.602   2.142
 3174TIP3   OH2 9527   1.130   5.814   2.727
 3174TIP3    H1 9528   1.044   5.851   2.709
 3174TIP3    H2 9529   1.179   5.826   2.646
 3175TIP3   OH2 9530   1.650   4.768   3.510
 3175TIP3    H1 9531   1.699   4.779   3.428
 3175TIP3    H2 9532   1.627   4.858   3.535
 3176TIP3   OH2 9533   5.017   3.638   2.907
 3176TIP3    H1 9534   5.031   3.733   2.903
 3176TIP3    H2 9535   4.935   3.623   2.861
 3177TIP3   OH2 9536   1.143   4.027   0.150
 3177TIP3    H1 9537   1.149   4.005   0.057
 3177TIP3    H2 9538   1.049   4.033   0.168
 3178TIP3   OH2 9539   4.609   1.114   3.883
 3178TIP3    H1 9540   4.633   1.205   3.863
 3178TIP3    H2 9541   4.580   1.079   3.799
 3179TIP3   OH2 9542   0.954   0.108   1.458
 3179TIP3    H1 9543   1.025   0.165   1.489
 3179TIP3    H2 9544   0.925   0.149   1.376
 3180TIP3   OH2 9545   1.957   0.672   4.777
 3180TIP3    H1 9546   1.930   0.659   4.686
 3180TIP3    H2 9547   2.011   0.751   4.775
 3181TIP3   OH2 9548   0.327   0.901   1.404
 3181TIP3    H1 9549   0.314   0.981   1.352
 3181TIP3    H2 9550   0.421   0.900   1.422
 3182TIP3   OH2 9551   4.671   3.249   4.286
 3182TIP3    H1 9552   4.639   3.304   4.215
 3182TIP3    H2 9553   4.731   3.188   4.244
 3183TIP3   OH2 9554   0.387   3.759   4.001
 3183TIP3    H1 9555   0.363   3.679   4.048
 3183TIP3    H2 9556   0.352   3.747   3.913
 3184TIP3   OH2 9557   2.806   2.416   1.475
 3184TIP3    H1 9558   2.894   2.408   1.437
 3184TIP3    H2 9559   2.818   2.394   1.567
 3185TIP3   OH2 9560   1.104   1.168   4.637
 3185TIP3    H1 9561   1.077   1.077   4.626
 3185TIP3    H2 9562   1.101   1.205   4.549
 3186TIP3   OH2 9563   3.005   2.344   1.043
 3186TIP3    H1 9564   3.099   2.356   1.034
 3186TIP3    H2 9565   2.967   2.421   1.000
 3187TIP3   OH2 9566   0.805   0.307   0.306
 3187TIP3    H1 9567   0.881   0.362   0.326
 3187TIP3    H2 9568   0.775   0.335   0.220
 3188TIP3   OH2 9569   1.882   4.616   3.330
 3188TIP3    H1 9570   1.912   4.599   3.419
 3188TIP3    H2 9571   1.796   4.576   3.326
 3189TIP3   OH2 9572   1.265   3.115   0.086
 3189TIP3    H1 9573   1.263   3.140   0.179
 3189TIP3    H2 9574   1.325   3.178   0.046
 3190TIP3   OH2 9575   1.644   1.905   1.469
 3190TIP3    H1 9576   1.638   1.973   1.537
 3190TIP3    H2 9577   1.553   1.889   1.444
 3191TIP3   OH2 9578   6.091   1.056   3.561
 3191TIP3    H1 9579   6.114   1.017   3.477
 3191TIP3    H2 9580   6.088   0.982   3.622
 3192TIP3   OH2 9581   1.641   4.758   2.036
 3192TIP3    H1 9582   1.609   4.848   2.043
 3192TIP3    H2 9583   1.562   4.705   2.032
 3193TIP3   OH2 9584   2.716   2.067   0.449
 3193TIP3    H1 9585   2.735   2.072   0.355
 3193TIP3    H2 9586   2.787   2.015   0.486
 3194TIP3   OH2 9587   1.426   0.250   4.413
 3194TIP3    H1 9588   1.494   0.265   4.347
 3194TIP3    H2 9589   1.384   0.335   4.423
 3195TIP3   OH2 9590   1.795   3.008   1.419
 3195TIP3    H1 9591   1.866   3.069   1.443
 3195TIP3    H2 9592   1.832   2.958   1.346
 3196TIP3   OH2 9593   4.202   1.279   2.008
 3196TIP3    H1 9594   4.269   1.348   2.004
 3196TIP3    H2 9595   4.213   1.240   2.095
 3197TIP3   OH2 9596   1.973   1.959   4.234
 3197TIP3    H1 9597   2.001   1.869   4.221
 3197TIP3    H2 9598   1.974   1.971   4.329
 3198TIP3   OH2 9599   0.769   1.353   1.507
 3198TIP3    H1 9600   0.844   1.299   1.482
 3198TIP3    H2 9601   0.695   1.293   1.507
 3199TIP3   OH2 9602   2.221   0.504   1.086
 3199TIP3    H1 9603   2.221   0.468   1.175
 3199TIP3    H2 9604   2.235   0.598   1.099
 3200TIP3   OH2 9605   3.305   5.840   1.867
 3200TIP3    H1 9606   3.233   5.777   1.863
 3200TIP3    H2 9607   3.327   5.846   1.960
 3201TIP3   OH2 9608   5.433   4.406   1.482
 3201TIP3    H1 9609   5.476   4.480   1.525
 3201TIP3    H2 9610   5.443   4.424   1.388
 3202TIP3   OH2 9611   3.242   3.351   3.902
 3202TIP3    H1 9612   3.163   3.384   3.861
 3202TIP3    H2 9613   3.312   3.408   3.869
 3203TIP3   OH2 9614   4.806   5.825   3.315
 3203TIP3    H1 9615   4.712   5.811   3.325
 3203TIP3    H2 9616   4.831   5.771   3.241
 3204TIP3   OH2 9617   4.466   3.000   5.169
 3204TIP3    H1 9618   4.514   2.957   5.098
 3204TIP3    H2 9619   4.388   2.946   5.181
 3205TIP3   OH2 9620   5.825   3.200   1.000
 3205TIP3    H1 9621   5.867   3.176   1.082
 3205TIP3    H2 9622   5.796   3.117   0.963
 3206TIP3   OH2 9623   5.197   2.929   3.613
 3206TIP3    H1 9624   5.212   2.901   3.522
 3206TIP3    H2 9625   5.247   2.867   3.665
 3207TIP3   OH2 9626   4.707   4.692   1.094
 3207TIP3    H1 9627   4.618   4.677   1.125
 3207TIP3    H2 9628   4.733   4.610   1.053
 3208TIP3   OH2 9629   4.173   5.393   0.116
 3208TIP3    H1 9630   4.243   5.393   0.052
 3208TIP3    H2 9631   4.092   5.390   0.064
 3209TIP3   OH2 9632   5.142   0.298   2.825
 3209TIP3    H1 9633   5.114   0.258   2.907
 3209TIP3    H2 9634   5.226   0.256   2.805
 3210TIP3   OH2 9635   2.577   4.093   0.824
 3210TIP3    H1 9636   2.669   4.091   0.798
 3210TIP3    H2 9637   2.575   4.054   0.911
 3211TIP3   OH2 9638   2.804   4.849   0.493
 3211TIP3    H1 9639   2.765   4.922   0.443
 3211TIP3    H2 9640   2.783   4.771   0.442
 3212TIP3   OH2 9641   4.063   4.542   2.446
 3212TIP3    H1 9642   3.994   4.529   2.380
 3212TIP3    H2 9643   4.086   4.635   2.437
 3213TIP3   OH2 9644   4.475   4.494   2.739
 3213TIP3    H1 9645   4.392   4.539   2.753
 3213TIP3    H2 9646   4.538   4.564   2.721
 3214TIP3   OH2 9647   5.216   2.729   2.912
 3214TIP3    H1 9648   5.309   2.708   2.914
 3214TIP3    H2 9649   5.206   2.787   2.837
 3215TIP3   OH2 9650   3.062   4.020   0.342
 3215TIP3    H1 9651   2.971   4.027   0.315
 3215TIP3    H2 9652   3.101   3.960   0.278
 3216TIP3   OH2 9653   3.614   0.809   2.125
 3216TIP3    H1 9654   3.596   0.903   2.117
 3216TIP3    H2 9655   3.528   0.770   2.143
 3217TIP3   OH2 9656   1.146   3.381   1.225
 3217TIP3    H1 9657   1.063   3.429   1.225
 3217TIP3    H2 9658   1.201   3.428   1.288
 3218TIP3   OH2 9659   2.800   2.063   4.685
 3218TIP3    H1 9660   2.788   2.034   4.595
 3218TIP3    H2 9661   2.712   2.070   4.720
 3219TIP3   OH2 9662   1.316   5.551   1.444
 3219TIP3    H1 9663   1.313   5.460   1.413
 3219TIP3    H2 9664   1.271   5.548   1.529
 3220TIP3   OH2 9665   0.637   2.437   4.067
 3220TIP3    H1 9666   0.675   2.424   4.155
 3220TIP3    H2 9667   0.668   2.523   4.040
 3221TIP3   OH2 9668   5.741   3.670   4.431
 3221TIP3    H1 9669   5.822   3.626   4.406
 3221TIP3    H2 9670   5.701   3.612   4.497
 3222TIP3   OH2 9671   1.995   0.009   3.313
 3222TIP3    H1 9672   1.903  -0.015   3.298
 3222TIP3    H2 9673   2.017   0.067   3.240
 3223TIP3   OH2 9674   4.380   5.160   4.043
 3223TIP3    H1 9675   4.330   5.081   4.024
 3223TIP3    H2 9676   4.452   5.159   3.980
 3224TIP3   OH2 9677   4.605   0.197   2.010
 3224TIP3    H1 9678   4.585   0.125   1.949
 3224TIP3    H2 9679   4.634   0.269   1.954
 3225TIP3   OH2 9680   1.033   4.877   1.955
 3225TIP3    H1 9681   1.000   4.800   2.001
 3225TIP3    H2 9682   1.060   4.936   2.026
 3226TIP3   OH2 9683   1.908   1.344   2.996
 3226TIP3    H1 9684   1.998   1.355   2.967
 3226TIP3    H2 9685   1.856   1.359   2.917
 3227TIP3   OH2 9686   0.239   0.485   5.043
 3227TIP3    H1 9687   0.181   0.420   5.083
 3227TIP3    H2 9688   0.326   0.466   5.079
 3228TIP3   OH2 9689   2.285   1.768   1.263
 3228TIP3    H1 9690   2.214   1.705   1.270
 3228TIP3    H2 9691   2.271   1.828   1.336
 3229TIP3   OH2 9692   1.435   3.235   1.883
 3229TIP3    H1 9693   1.498   3.296   1.845
 3229TIP3    H2 9694   1.453   3.238   1.977
 3230TIP3   OH2 9695   1.685   1.083   4.533
 3230TIP3    H1 9696   1.777   1.058   4.546
 3230TIP3    H2 9697   1.676   1.089   4.438
 3231TIP3   OH2 9698   0.579   5.339   3.857
 3231TIP3    H1 9699   0.592   5.433   3.845
 3231TIP3    H2 9700   0.558   5.329   3.950
 3232TIP3   OH2 9701   3.454   4.619   2.760
 3232TIP3    H1 9702   3.458   4.714   2.753
 3232TIP3    H2 9703   3.539   4.593   2.794
 3233TIP3   OH2 9704   6.108   4.355   1.281
 3233TIP3    H1 9705   6.025   4.372   1.326
 3233TIP3    H2 9706   6.153   4.292   1.337
 3234TIP3   OH2 9707   1.951   2.283   5.009
 3234TIP3    H1 9708   1.931   2.203   5.059
 3234TIP3    H2 9709   1.925   2.355   5.066
 3235TIP3   OH2 9710   2.211   5.474   0.674
 3235TIP3    H1 9711   2.189   5.442   0.586
 3235TIP3    H2 9712   2.266   5.405   0.711
 3236TIP3   OH2 9713   5.633   4.291   2.037
 3236TIP3    H1 9714   5.611   4.274   2.128
 3236TIP3    H2 9715   5.727   4.279   2.032
 3237TIP3   OH2 9716   0.693   5.180   1.583
 3237TIP3    H1 9717   0.627   5.111   1.575
 3237TIP3    H2 9718   0.698   5.217   1.495
 3238TIP3   OH2 9719   4.966   0.606   1.933
 3238TIP3    H1 9720   5.016   0.672   1.982
 3238TIP3    H2 9721   4.913   0.657   1.871
 3239TIP3   OH2 9722   2.968   4.646   4.920
 3239TIP3    H1 9723   3.038   4.705   4.892
 3239TIP3    H2 9724   2.963   4.580   4.851
 3240TIP3   OH2 9725   1.969   4.396   4.481
 3240TIP3    H1 9726   1.958   4.302   4.473
 3240TIP3    H2 9727   1.983   4.412   4.574
 3241TIP3   OH2 9728   2.093   3.394   2.800
 3241TIP3    H1 9729   2.032   3.339   2.752
 3241TIP3    H2 9730   2.102   3.473   2.746
 3242TIP3   OH2 9731   5.493   2.067   0.745
 3242TIP3    H1 9732   5.433   2.037   0.676
 3242TIP3    H2 9733   5.578   2.070   0.702
 3243TIP3   OH2 9734   2.063   3.586   0.698
 3243TIP3    H1 9735   2.094   3.565   0.786
 3243TIP3    H2 9736   2.048   3.681   0.700
 3244TIP3   OH2 9737   2.227   2.401   4.423
 3244TIP3    H1 9738   2.157   2.454   4.383
 3244TIP3    H2 9739   2.251   2.450   4.502
 3245TIP3   OH2 9740   2.089   2.297   3.113
 3245TIP3    H1 9741   2.109   2.365   3.177
 3245TIP3    H2 9742   2.173   2.258   3.092
 3246TIP3   OH2 9743   2.563   3.960   2.482
 3246TIP3    H1 9744   2.483   3.917   2.511
 3246TIP3    H2 9745   2.627   3.890   2.475
 3247TIP3   OH2 9746   3.597   1.356   1.507
 3247TIP3    H1 9747   3.542   1.337   1.583
 3247TIP3    H2 9748   3.546   1.418   1.455
 3248TIP3   OH2 9749   4.509   5.283   1.320
 3248TIP3    H1 9750   4.475   5.195   1.338
 3248TIP3    H2 9751   4.440   5.342   1.350
 3249TIP3   OH2 9752   4.256   1.801   4.890
 3249TIP3    H1 9753   4.331   1.743   4.904
 3249TIP3    H2 9754   4.275   1.843   4.806
 3250TIP3   OH2 9755   1.595   3.975   0.723
 3250TIP3    H1 9756   1.641   3.891   0.732
 3250TIP3    H2 9757   1.511   3.961   0.766
 3251TIP3   OH2 9758   3.119   0.615   0.363
 3251TIP3    H1 9759   3.066   0.673   0.419
 3251TIP3    H2 9760   3.061   0.541   0.345
 3252TIP3   OH2 9761   5.516   2.897   3.286
 3252TIP3    H1 9762   5.516   2.930   3.196
 3252TIP3    H2 9763   5.601   2.922   3.321
 3253TIP3   OH2 9764   1.260   1.665   1.194
 3253TIP3    H1 9765   1.230   1.623   1.113
 3253TIP3    H2 9766   1.348   1.697   1.173
 3254TIP3   OH2 9767   4.903   2.435   0.899
 3254TIP3    H1 9768   4.928   2.350   0.864
 3254TIP3    H2 9769   4.971   2.495   0.868
 3255TIP3   OH2 9770   3.693   1.990   2.425
 3255TIP3    H1 9771   3.603   2.021   2.434
 3255TIP3    H2 9772   3.709   1.940   2.505
 3256TIP3   OH2 9773   6.125   4.454   4.550
 3256TIP3    H1 9774   6.143   4.541   4.586
 3256TIP3    H2 9775   6.210   4.423   4.518
 3257TIP3   OH2 9776   2.833   1.111   3.696
 3257TIP3    H1 9777   2.762   1.088   3.636
 3257TIP3    H2 9778   2.793   1.168   3.761
 3258TIP3   OH2 9779   4.023   4.409   2.948
 3258TIP3    H1 9780   4.011   4.373   2.860
 3258TIP3    H2 9781   3.991   4.499   2.942
 3259TIP3   OH2 9782   4.241   4.000   1.562
 3259TIP3    H1 9783   4.186   3.984   1.638
 3259TIP3    H2 9784   4.315   3.940   1.573
 3260TIP3   OH2 9785   3.056   2.818   2.214
 3260TIP3    H1 9786   3.046   2.734   2.260
 3260TIP3    H2 9787   3.018   2.882   2.274
 3261TIP3   OH2 9788   5.945   2.777   5.037
 3261TIP3    H1 9789   5.949   2.763   5.131
 3261TIP3    H2 9790   6.036   2.795   5.011
 3262TIP3   OH2 9791   3.097   1.154   2.493
 3262TIP3    H1 9792   3.068   1.125   2.406
 3262TIP3    H2 9793   3.021   1.200   2.529
 3263TIP3   OH2 9794   2.666   5.927   0.376
 3263TIP3    H1 9795   2.638   5.999   0.433
 3263TIP3    H2 9796   2.681   5.854   0.435
 3264TIP3   OH2 9797   5.548   0.501   0.956
 3264TIP3    H1 9798   5.453   0.488   0.951
 3264TIP3    H2 9799   5.573   0.531   0.868
 3265TIP3   OH2 9800   4.612   3.591   1.526
 3265TIP3    H1 9801   4.684   3.616   1.585
 3265TIP3    H2 9802   4.645   3.514   1.480
 3266TIP3   OH2 9803   4.411   0.462   3.926
 3266TIP3    H1 9804   4.449   0.518   3.993
 3266TIP3    H2 9805   4.470   0.387   3.921
 3267TIP3   OH2 9806   4.286   0.950   2.487
 3267TIP3    H1 9807   4.309   0.966   2.578
 3267TIP3    H2 9808   4.278   0.855   2.480
 3268TIP3   OH2 9809   5.847   5.009   2.318
 3268TIP3    H1 9810   5.890   5.048   2.242
 3268TIP3    H2 9811   5.854   5.076   2.386
 3269TIP3   OH2 9812   4.755   0.436   2.666
 3269TIP3    H1 9813   4.839   0.402   2.635
 3269TIP3    H2 9814   4.724   0.369   2.727
 3270TIP3   OH2 9815   4.995   3.500   1.824
 3270TIP3    H1 9816   5.019   3.510   1.731
 3270TIP3    H2 9817   5.074   3.467   1.865
 3271TIP3   OH2 9818   0.482   0.423   4.812
 3271TIP3    H1 9819   0.470   0.511   4.776
 3271TIP3    H2 9820   0.491   0.437   4.906
 3272TIP3   OH2 9821   1.169   5.557   4.629
 3272TIP3    H1 9822   1.224   5.610   4.573
 3272TIP3    H2 9823   1.207   5.469   4.625
 3273TIP3   OH2 9824   4.693   2.995   1.399
 3273TIP3    H1 9825   4.680   2.975   1.306
 3273TIP3    H2 9826   4.649   3.079   1.412
 3274TIP3   OH2 9827   3.273   3.979   1.895
 3274TIP3    H1 9828   3.215   3.985   1.971
 3274TIP3    H2 9829   3.265   3.888   1.866
 3275TIP3   OH2 9830   4.461   0.668   4.131
 3275TIP3    H1 9831   4.529   0.735   4.138
 3275TIP3    H2 9832   4.471   0.616   4.211
 3276TIP3   OH2 9833   0.505   1.297   4.880
 3276TIP3    H1 9834   0.430   1.338   4.837
 3276TIP3    H2 9835   0.494   1.203   4.863
 3277TIP3   OH2 9836   4.047   2.328   1.257
 3277TIP3    H1 9837   4.116   2.332   1.191
 3277TIP3    H2 9838   4.094   2.310   1.339
 3278TIP3   OH2 9839   1.309   4.137   0.677
 3278TIP3    H1 9840   1.289   4.100   0.591
 3278TIP3    H2 9841   1.243   4.100   0.735
 3279TIP3   OH2 9842   0.628   4.669   4.277
 3279TIP3    H1 9843   0.564   4.704   4.339
 3279TIP3    H2 9844   0.575   4.638   4.203
 3280TIP3   OH2 9845   0.574   4.502   1.717
 3280TIP3    H1 9846   0.616   4.560   1.780
 3280TIP3    H2 9847   0.647   4.458   1.673
 3281TIP3   OH2 9848   2.344   5.418   3.530
 3281TIP3    H1 9849   2.273   5.356   3.515
 3281TIP3    H2 9850   2.315   5.471   3.604
 3282TIP3   OH2 9851   2.005   1.656   5.182
 3282TIP3    H1 9852   1.909   1.653   5.176
 3282TIP3    H2 9853   2.022   1.725   5.246
 3283TIP3   OH2 9854   4.230   0.406   1.849
 3283TIP3    H1 9855   4.255   0.478   1.907
 3283TIP3    H2 9856   4.298   0.405   1.782
 3284TIP3   OH2 9857   4.392   0.068   1.394
 3284TIP3    H1 9858   4.355   0.156   1.387
 3284TIP3    H2 9859   4.486   0.081   1.386
 3285TIP3   OH2 9860   4.855   3.319   0.634
 3285TIP3    H1 9861   4.800   3.319   0.556
 3285TIP3    H2 9862   4.944   3.330   0.601
 3286TIP3   OH2 9863   3.056   0.423   1.117
 3286TIP3    H1 9864   3.123   0.366   1.082
 3286TIP3    H2 9865   3.104   0.494   1.160
 3287TIP3   OH2 9866   1.223   5.358   3.195
 3287TIP3    H1 9867   1.288   5.412   3.151
 3287TIP3    H2 9868   1.263   5.271   3.199
 3288TIP3   OH2 9869   5.652  -0.003   0.180
 3288TIP3    H1 9870   5.670   0.074   0.234
 3288TIP3    H2 9871   5.733  -0.054   0.185
 3289TIP3   OH2 9872   2.921   1.082   2.242
 3289TIP3    H1 9873   2.928   0.986   2.249
 3289TIP3    H2 9874   2.828   1.098   2.226
 3290TIP3   OH2 9875   0.867   2.449   0.755
 3290TIP3    H1 9876   0.796   2.406   0.706
 3290TIP3    H2 9877   0.936   2.462   0.690
 3291TIP3   OH2 9878   5.800   5.918   1.823
 3291TIP3    H1 9879   5.865   5.987   1.840
 3291TIP3    H2 9880   5.748   5.915   1.904
 3292TIP3   OH2 9881   0.280   5.695   4.941
 3292TIP3    H1 9882   0.194   5.698   4.981
 3292TIP3    H2 9883   0.297   5.786   4.915
 3293TIP3   OH2 9884   1.486   2.623   3.648
 3293TIP3    H1 9885   1.417   2.608   3.582
 3293TIP3    H2 9886   1.461   2.566   3.721
 3294TIP3   OH2 9887   4.315   0.418   0.056
 3294TIP3    H1 9888   4.283   0.506   0.074
 3294TIP3    H2 9889   4.340   0.384   0.142
 3295TIP3   OH2 9890   1.390   1.861   1.409
 3295TIP3    H1 9891   1.305   1.886   1.445
 3295TIP3    H2 9892   1.376   1.861   1.314
 3296TIP3   OH2 9893   2.861   0.089   5.130
 3296TIP3    H1 9894   2.857   0.074   5.224
 3296TIP3    H2 9895   2.855   0.184   5.120
 3297TIP3   OH2 9896   0.754   5.601   2.020
 3297TIP3    H1 9897   0.692   5.533   1.996
 3297TIP3    H2 9898   0.829   5.587   1.962
 3298TIP3   OH2 9899   2.477   1.102   4.966
 3298TIP3    H1 9900   2.505   1.187   4.999
 3298TIP3    H2 9901   2.497   1.105   4.872
 3299TIP3   OH2 9902   3.898   0.447   1.294
 3299TIP3    H1 9903   3.880   0.507   1.222
 3299TIP3    H2 9904   3.842   0.477   1.365
 3300TIP3   OH2 9905   4.404   4.587   2.040
 3300TIP3    H1 9906   4.363   4.672   2.023
 3300TIP3    H2 9907   4.345   4.524   1.997
 3301TIP3   OH2 9908   3.687   1.269   3.085
 3301TIP3    H1 9909   3.624   1.339   3.101
 3301TIP3    H2 9910   3.671   1.243   2.995
 3302TIP3   OH2 9911   1.469   5.986   4.834
 3302TIP3    H1 9912   1.432   5.907   4.872
 3302TIP3    H2 9913   1.507   5.958   4.751
 3303TIP3   OH2 9914   5.684   4.970   5.212
 3303TIP3    H1 9915   5.600   4.976   5.257
 3303TIP3    H2 9916   5.679   5.034   5.142
 3304TIP3   OH2 9917   0.214   4.513   4.072
 3304TIP3    H1 9918   0.252   4.427   4.094
 3304TIP3    H2 9919   0.120   4.500   4.081
 3305TIP3   OH2 9920   0.269   4.807   3.508
 3305TIP3    H1 9921   0.331   4.872   3.476
 3305TIP3    H2 9922   0.274   4.735   3.445
 3306TIP3   OH2 9923   5.629   4.740   0.435
 3306TIP3    H1 9924   5.681   4.820   0.424
 3306TIP3    H2 9925   5.595   4.746   0.525
 3307TIP3   OH2 9926   4.853   3.733   2.392
 3307TIP3    H1 9927   4.947   3.730   2.373
 3307TIP3    H2 9928   4.811   3.733   2.306
 3308TIP3   OH2 9929   0.334   4.818   4.904
 3308TIP3    H1 9930   0.248   4.836   4.867
 3308TIP3    H2 9931   0.377   4.903   4.907
 3309TIP3   OH2 9932   4.893   1.622   4.912
 3309TIP3    H1 9933   4.942   1.589   4.988
 3309TIP3    H2 9934   4.944   1.698   4.882
 3310TIP3   OH2 9935   1.936   1.930   0.196
 3310TIP3    H1 9936   1.916   1.963   0.108
 3310TIP3    H2 9937   1.997   1.858   0.181
 3311TIP3   OH2 9938   5.451   2.158   2.272
 3311TIP3    H1 9939   5.400   2.170   2.192
 3311TIP3    H2 9940   5.414   2.222   2.333
 3312TIP3   OH2 9941   6.240   4.801   0.099
 3312TIP3    H1 9942   6.320   4.833   0.057
 3312TIP3    H2 9943   6.202   4.741   0.035
 3313TIP3   OH2 9944   5.661   2.948   0.537
 3313TIP3    H1 9945   5.652   3.006   0.612
 3313TIP3    H2 9946   5.602   2.983   0.471
 3314TIP3   OH2 9947   4.219   5.350   3.184
 3314TIP3    H1 9948   4.223   5.444   3.203
 3314TIP3    H2 9949   4.187   5.344   3.095
 3315TIP3   OH2 9950   3.539   2.556   1.806
 3315TIP3    H1 9951   3.607   2.587   1.866
 3315TIP3    H2 9952   3.459   2.599   1.835
 3316TIP3   OH2 9953   4.842   2.561   2.152
 3316TIP3    H1 9954   4.783   2.493   2.181
 3316TIP3    H2 9955   4.909   2.515   2.101
 3317TIP3   OH2 9956   6.138   0.690   4.917
 3317TIP3    H1 9957   6.111   0.622   4.979
 3317TIP3    H2 9958   6.232   0.677   4.907
 3318TIP3   OH2 9959   2.266   5.005   4.676
 3318TIP3    H1 9960   2.239   4.933   4.734
 3318TIP3    H2 9961   2.282   4.963   4.592
 3319TIP3   OH2 9962   2.973   3.885   4.970
 3319TIP3    H1 9963   2.953   3.977   4.952
 3319TIP3    H2 9964   3.059   3.871   4.930
 3320TIP3   OH2 9965   1.523   5.491   2.863
 3320TIP3    H1 9966   1.516   5.476   2.769
 3320TIP3    H2 9967   1.533   5.586   2.871
 3321TIP3   OH2 9968   3.675   2.323   4.920
 3321TIP3    H1 9969   3.681   2.240   4.968
 3321TIP3    H2 9970   3.704   2.302   4.831
 3322TIP3   OH2 9971   1.883   1.367   0.831
 3322TIP3    H1 9972   1.956   1.407   0.785
 3322TIP3    H2 9973   1.924   1.305   0.892
 3323TIP3   OH2 9974   3.923   0.036   1.242
 3323TIP3    H1 9975   3.897   0.074   1.326
 3323TIP3    H2 9976   3.841   0.016   1.198
 3324TIP3   OH2 9977   4.899   1.297   4.976
 3324TIP3    H1 9978   4.810   1.278   4.947
 3324TIP3    H2 9979   4.893   1.304   5.071
 3325TIP3   OH2 9980   4.250   1.416   3.668
 3325TIP3    H1 9981   4.220   1.338   3.622
 3325TIP3    H2 9982   4.303   1.463   3.604
 3326TIP3   OH2 9983   3.466   3.130   3.501
 3326TIP3    H1 9984   3.464   3.094   3.589
 3326TIP3    H2 9985   3.557   3.155   3.486
 3327TIP3   OH2 9986   3.479   1.331   2.380
 3327TIP3    H1 9987   3.471   1.412   2.330
 3327TIP3    H2 9988   3.570   1.303   2.368
 3328TIP3   OH2 9989   2.608   0.960   0.152
 3328TIP3    H1 9990   2.607   0.866   0.135
 3328TIP3    H2 9991   2.666   0.996   0.085
 3329TIP3   OH2 9992   2.999   5.535   0.589
 3329TIP3    H1 9993   3.054   5.482   0.647
 3329TIP3    H2 9994   3.041   5.621   0.588
 3330TIP3   OH2 9995   2.238   3.627   2.149
 3330TIP3    H1 9996   2.174   3.671   2.205
 3330TIP3    H2 9997   2.288   3.699   2.109
 3331TIP3   OH2 9998   2.233   0.729   0.806
 3331TIP3    H1 9999   2.220   0.634   0.798
 3331TIP3    H210000   2.225   0.746   0.900
 3332TIP3   OH210001   3.493   5.121   4.946
 3332TIP3    H110002   3.487   5.210   4.979
 3332TIP3    H210003   3.569   5.122   4.888
 3333TIP3   OH210004   2.569   2.982   4.509
 3333TIP3    H110005   2.514   3.047   4.466
 3333TIP3    H210006   2.623   3.032   4.570
 3334TIP3   OH210007   5.697   4.999   3.216
 3334TIP3    H110008   5.684   4.982   3.310
 3334TIP3    H210009   5.608   4.999   3.179
 3335TIP3   OH210010   0.313   5.530   4.328
 3335TIP3    H110011   0.332   5.599   4.392
 3335TIP3    H210012   0.270   5.576   4.255
 3336TIP3   OH210013   3.634   3.074   4.599
 3336TIP3    H110014   3.613   2.982   4.618
 3336TIP3    H210015   3.639   3.078   4.504
 3337TIP3   OH210016   5.929   5.907   3.315
 3337TIP3    H110017   5.904   5.827   3.268
 3337TIP3    H210018   5.900   5.978   3.257
 3338TIP3   OH210019   2.456   2.352   2.235
 3338TIP3    H110020   2.400   2.416   2.278
 3338TIP3    H210021   2.491   2.299   2.307
 3339TIP3   OH210022   2.574   2.390   1.322
 3339TIP3    H110023   2.623   2.440   1.257
 3339TIP3    H210024   2.629   2.393   1.401
 3340TIP3   OH210025   3.227   5.126   3.521
 3340TIP3    H110026   3.268   5.131   3.608
 3340TIP3    H210027   3.296   5.092   3.464
 3341TIP3   OH210028   2.591   1.934   3.083
 3341TIP3    H110029   2.501   1.901   3.087
 3341TIP3    H210030   2.633   1.898   3.162
 3342TIP3   OH210031   4.615   0.406   1.225
 3342TIP3    H110032   4.689   0.466   1.215
 3342TIP3    H210033   4.645   0.338   1.285
 3343TIP3   OH210034   1.086   4.574   4.946
 3343TIP3    H110035   1.106   4.664   4.972
 3343TIP3    H210036   1.158   4.550   4.887
 3344TIP3   OH210037   5.073   5.152   1.708
 3344TIP3    H110038   5.038   5.123   1.624
 3344TIP3    H210039   5.092   5.071   1.755
 3345TIP3   OH210040   5.073   3.856   2.087
 3345TIP3    H110041   5.034   3.903   2.161
 3345TIP3    H210042   5.008   3.789   2.064
 3346TIP3   OH210043   0.581   5.053   3.812
 3346TIP3    H110044   0.599   5.147   3.818
 3346TIP3    H210045   0.552   5.029   3.900
 3347TIP3   OH210046   2.762   2.416   4.449
 3347TIP3    H110047   2.740   2.379   4.534
 3347TIP3    H210048   2.716   2.361   4.385
 3348TIP3   OH210049   2.506   0.968   1.118
 3348TIP3    H110050   2.564   1.001   1.049
 3348TIP3    H210051   2.561   0.963   1.195
 3349TIP3   OH210052   6.341   4.998   4.573
 3349TIP3    H110053   6.348   4.994   4.478
 3349TIP3    H210054   6.398   5.071   4.598
 3350TIP3   OH210055   6.102   0.864   4.041
 3350TIP3    H110056   6.079   0.932   3.978
 3350TIP3    H210057   6.019   0.821   4.062
 3351TIP3   OH210058   3.385   3.078   2.842
 3351TIP3    H110059   3.447   3.062   2.771
 3351TIP3    H210060   3.432   3.136   2.902
 3352TIP3   OH210061   3.982   3.240   4.914
 3352TIP3    H110062   3.943   3.223   5.000
 3352TIP3    H210063   3.908   3.248   4.855
 3353TIP3   OH210064   5.285   3.545   3.889
 3353TIP3    H110065   5.348   3.537   3.961
 3353TIP3    H210066   5.338   3.542   3.810
 3354TIP3   OH210067   4.163   4.212   1.063
 3354TIP3    H110068   4.144   4.119   1.060
 3354TIP3    H210069   4.223   4.222   1.137
 3355TIP3   OH210070   6.156   5.768   3.043
 3355TIP3    H110071   6.221   5.763   3.113
 3355TIP3    H210072   6.183   5.844   2.990
 3356TIP3   OH210073   3.766   4.587   1.865
 3356TIP3    H110074   3.761   4.593   1.770
 3356TIP3    H210075   3.678   4.610   1.895
 3357TIP3   OH210076   1.670   3.594   3.962
 3357TIP3    H110077   1.664   3.616   4.055
 3357TIP3    H210078   1.662   3.498   3.960
 3358TIP3   OH210079   3.622   0.088   3.092
 3358TIP3    H110080   3.546   0.033   3.073
 3358TIP3    H210081   3.584   0.172   3.121
 3359TIP3   OH210082   3.230   1.777   2.316
 3359TIP3    H110083   3.259   1.766   2.225
 3359TIP3    H210084   3.187   1.862   2.317
 3360TIP3   OH210085   0.218   5.233   3.454
 3360TIP3    H110086   0.260   5.274   3.530
 3360TIP3    H210087   0.210   5.141   3.478
 3361TIP3   OH210088   0.788   0.416   2.931
 3361TIP3    H110089   0.849   0.433   3.004
 3361TIP3    H210090   0.704   0.450   2.962
 3362TIP3   OH210091   5.609   1.698   0.103
 3362TIP3    H110092   5.644   1.773   0.056
 3362TIP3    H210093   5.644   1.708   0.192
 3363TIP3   OH210094   3.306   1.844   4.855
 3363TIP3    H110095   3.249   1.781   4.899
 3363TIP3    H210096   3.246   1.910   4.820
 3364TIP3   OH210097   5.690   4.684   0.095
 3364TIP3    H110098   5.723   4.608   0.048
 3364TIP3    H210099   5.769   4.727   0.129
 3365TIP3   OH210100   5.848   1.785   1.817
 3365TIP3    H110101   5.917   1.727   1.849
 3365TIP3    H210102   5.893   1.865   1.792
 3366TIP3   OH210103   4.023   2.083   3.902
 3366TIP3    H110104   3.989   2.050   3.818
 3366TIP3    H210105   3.980   2.167   3.914
 3367TIP3   OH210106   4.952   5.104   2.948
 3367TIP3    H110107   4.861   5.084   2.970
 3367TIP3    H210108   5.002   5.073   3.023
 3368TIP3   OH210109   2.677   2.211   2.061
 3368TIP3    H110110   2.589   2.229   2.025
 3368TIP3    H210111   2.664   2.206   2.155
 3369TIP3   OH210112   4.646   3.053   3.840
 3369TIP3    H110113   4.652   3.124   3.776
 3369TIP3    H210114   4.737   3.027   3.855
 3370TIP3   OH210115   2.335   1.917   1.032
 3370TIP3    H110116   2.248   1.958   1.029
 3370TIP3    H210117   2.336   1.869   1.115
 3371TIP3   OH210118   1.630   3.120   5.072
 3371TIP3    H110119   1.717   3.086   5.050
 3371TIP3    H210120   1.637   3.143   5.165
 3372TIP3   OH210121   3.724   5.241   1.026
 3372TIP3    H110122   3.736   5.150   0.998
 3372TIP3    H210123   3.655   5.274   0.969
 3373TIP3   OH210124   5.041   3.285   4.415
 3373TIP3    H110125   5.113   3.322   4.466
 3373TIP3    H210126   4.973   3.352   4.418
 3374TIP3   OH210127   5.005   2.323   1.565
 3374TIP3    H110128   5.075   2.382   1.538
 3374TIP3    H210129   5.026   2.240   1.522
 3375TIP3   OH210130   0.584   4.651   3.445
 3375TIP3    H110131   0.597   4.715   3.374
 3375TIP3    H210132   0.572   4.705   3.523
 3376TIP3   OH210133   1.911   4.005   4.758
 3376TIP3    H110134   1.826   3.997   4.800
 3376TIP3    H210135   1.935   3.916   4.734
 3377TIP3   OH210136   4.940   5.809   0.570
 3377TIP3    H110137   4.929   5.761   0.488
 3377TIP3    H210138   5.032   5.796   0.593
 3378TIP3   OH210139   5.076   1.766   0.447
 3378TIP3    H110140   5.059   1.676   0.420
 3378TIP3    H210141   5.006   1.786   0.509
 3379TIP3   OH210142   1.963   4.637   0.665
 3379TIP3    H110143   1.910   4.709   0.632
 3379TIP3    H210144   1.944   4.564   0.605
 3380TIP3   OH210145   3.482   0.567   3.181
 3380TIP3    H110146   3.466   0.557   3.275
 3380TIP3    H210147   3.474   0.661   3.165
 3381TIP3   OH210148   5.370   1.131   3.307
 3381TIP3    H110149   5.440   1.162   3.250
 3381TIP3    H210150   5.360   1.038   3.283
 3382TIP3   OH210151   4.016   5.584   0.629
 3382TIP3    H110152   3.944   5.608   0.688
 3382TIP3    H210153   4.040   5.666   0.586
 3383TIP3   OH210154   1.960   0.433   4.918
 3383TIP3    H110155   1.957   0.512   4.865
 3383TIP3    H210156   1.888   0.443   4.980
 3384TIP3   OH210157   2.910   0.353   2.894
 3384TIP3    H110158   2.822   0.330   2.865
 3384TIP3    H210159   2.899   0.435   2.942
 3385TIP3   OH210160   3.072   3.353   5.230
 3385TIP3    H110161   3.013   3.426   5.248
 3385TIP3    H210162   3.024   3.297   5.169
 3386TIP3   OH210163   2.709   0.500   1.345
 3386TIP3    H110164   2.616   0.507   1.366
 3386TIP3    H210165   2.730   0.408   1.359
 3387TIP3   OH210166   2.417   0.477   0.586
 3387TIP3    H110167   2.502   0.520   0.571
 3387TIP3    H210168   2.439   0.396   0.631
 3388TIP3   OH210169   1.465   4.517   0.825
 3388TIP3    H110170   1.457   4.427   0.856
 3388TIP3    H210171   1.393   4.528   0.763
 3389TIP3   OH210172   4.168   3.185   4.169
 3389TIP3    H110173   4.164   3.128   4.246
 3389TIP3    H210174   4.227   3.255   4.194
 3390TIP3   OH210175   2.916   3.791   5.236
 3390TIP3    H110176   2.997   3.817   5.192
 3390TIP3    H210177   2.846   3.825   5.180
 3391TIP3   OH210178   3.131   5.727   2.999
 3391TIP3    H110179   3.168   5.638   3.004
 3391TIP3    H210180   3.207   5.784   3.011
 3392TIP3   OH210181   0.230   4.598   3.313
 3392TIP3    H110182   0.213   4.583   3.220
 3392TIP3    H210183   0.152   4.565   3.357
 3393TIP3   OH210184   2.100   1.686   0.450
 3393TIP3    H110185   2.188   1.716   0.471
 3393TIP3    H210186   2.093   1.697   0.355
 3394TIP3   OH210187   5.524   2.348   4.813
 3394TIP3    H110188   5.541   2.416   4.878
 3394TIP3    H210189   5.608   2.302   4.805
 3395TIP3   OH210190   3.125   4.702   0.075
 3395TIP3    H110191   3.193   4.635   0.069
 3395TIP3    H210192   3.145   4.749   0.155
 3396TIP3   OH210193   1.387   5.299   2.420
 3396TIP3    H110194   1.301   5.257   2.419
 3396TIP3    H210195   1.378   5.375   2.363
 3397TIP3   OH210196   2.437   3.359   0.573
 3397TIP3    H110197   2.424   3.392   0.662
 3397TIP3    H210198   2.382   3.415   0.518
 3398TIP3   OH210199   5.385   3.427   2.386
 3398TIP3    H110200   5.468   3.390   2.355
 3398TIP3    H210201   5.380   3.513   2.343
 3399TIP3   OH210202   1.082   0.307   0.413
 3399TIP3    H110203   1.101   0.324   0.505
 3399TIP3    H210204   1.040   0.220   0.414
 3400TIP3   OH210205   3.580   2.044   3.217
 3400TIP3    H110206   3.487   2.043   3.192
 3400TIP3    H210207   3.627   2.050   3.134
 3401TIP3   OH210208   3.945   3.847   3.692
 3401TIP3    H110209   4.036   3.875   3.694
 3401TIP3    H210210   3.944   3.771   3.634
 3402TIP3   OH210211   4.009   0.893   3.607
 3402TIP3    H110212   4.030   0.805   3.576
 3402TIP3    H210213   3.955   0.930   3.537
 3403TIP3   OH210214   1.592   1.300   4.058
 3403TIP3    H110215   1.513   1.249   4.043
 3403TIP3    H210216   1.571   1.388   4.026
 3404TIP3   OH210217   1.511   2.034   0.920
 3404TIP3    H110218   1.510   2.130   0.912
 3404TIP3    H210219   1.475   2.018   1.008
 3405TIP3   OH210220   1.410   2.327   4.963
 3405TIP3    H110221   1.338   2.338   4.902
 3405TIP3    H210222   1.485   2.302   4.909
 3406TIP3   OH210223   2.967   1.201   3.315
 3406TIP3    H110224   3.013   1.228   3.236
 3406TIP3    H210225   2.950   1.108   3.302
 3407TIP3   OH210226   3.655   5.232   2.633
 3407TIP3    H110227   3.665   5.157   2.574
 3407TIP3    H210228   3.560   5.244   2.639
 3408TIP3   OH210229   3.993   0.000   4.747
 3408TIP3    H110230   3.964  -0.050   4.823
 3408TIP3    H210231   4.036   0.077   4.785
 3409TIP3   OH210232   4.306   1.314   4.500
 3409TIP3    H110233   4.356   1.290   4.422
 3409TIP3    H210234   4.335   1.403   4.521
 3410TIP3   OH210235   0.798   5.662   3.999
 3410TIP3    H110236   0.878   5.638   3.952
 3410TIP3    H210237   0.828   5.690   4.085
 3411TIP3   OH210238   4.780   3.528   2.825
 3411TIP3    H110239   4.710   3.524   2.891
 3411TIP3    H210240   4.733   3.531   2.741
 3412TIP3   OH210241   3.427   4.871   5.032
 3412TIP3    H110242   3.442   4.959   4.996
 3412TIP3    H210243   3.514   4.840   5.055
 3413TIP3   OH210244   2.147   5.221   3.905
 3413TIP3    H110245   2.227   5.254   3.946
 3413TIP3    H210246   2.126   5.141   3.955
 3414TIP3   OH210247   5.126   2.660   0.397
 3414TIP3    H110248   5.192   2.597   0.367
 3414TIP3    H210249   5.111   2.716   0.321
 3415TIP3   OH210250   3.673   5.170   0.623
 3415TIP3    H110251   3.742   5.224   0.660
 3415TIP3    H210252   3.616   5.232   0.577
 3416TIP3   OH210253   2.258   5.334   1.176
 3416TIP3    H110254   2.206   5.254   1.186
 3416TIP3    H210255   2.249   5.357   1.084
 3417TIP3   OH210256   1.938   1.683   3.932
 3417TIP3    H110257   1.864   1.744   3.939
 3417TIP3    H210258   1.899   1.603   3.898
 3418TIP3   OH210259   0.916   3.280   0.099
 3418TIP3    H110260   0.861   3.305   0.024
 3418TIP3    H210261   0.983   3.348   0.103
 3419TIP3   OH210262   2.212   3.125   1.246
 3419TIP3    H110263   2.158   3.046   1.242
 3419TIP3    H210264   2.194   3.164   1.331
 3420TIP3   OH210265   5.250   2.860   3.328
 3420TIP3    H110266   5.342   2.883   3.342
 3420TIP3    H210267   5.226   2.906   3.248
 3421TIP3   OH210268   0.165   4.868   0.510
 3421TIP3    H110269   0.126   4.785   0.537
 3421TIP3    H210270   0.205   4.849   0.425
 3422TIP3   OH210271   4.529   1.149   4.384
 3422TIP3    H110272   4.596   1.169   4.318
 3422TIP3    H210273   4.579   1.110   4.456
 3423TIP3   OH210274   2.304   0.715   4.015
 3423TIP3    H110275   2.344   0.800   4.037
 3423TIP3    H210276   2.277   0.679   4.099
 3424TIP3   OH210277   3.747   0.276   3.406
 3424TIP3    H110278   3.736   0.328   3.327
 3424TIP3    H210279   3.677   0.306   3.464
 3425TIP3   OH210280   1.001   5.313   4.416
 3425TIP3    H110281   0.985   5.304   4.322
 3425TIP3    H210282   1.090   5.349   4.422
 3426TIP3   OH210283   3.281   2.860   2.516
 3426TIP3    H110284   3.185   2.855   2.512
 3426TIP3    H210285   3.305   2.926   2.452
 3427TIP3   OH210286   4.400   4.677   2.415
 3427TIP3    H110287   4.445   4.691   2.499
 3427TIP3    H210288   4.467   4.693   2.349
 3428TIP3   OH210289   4.666   3.802   2.019
 3428TIP3    H110290   4.700   3.854   2.092
 3428TIP3    H210291   4.662   3.863   1.946
 3429TIP3   OH210292   4.360   2.480   3.480
 3429TIP3    H110293   4.266   2.465   3.489
 3429TIP3    H210294   4.388   2.514   3.566
 3430TIP3   OH210295   1.464   4.669   2.253
 3430TIP3    H110296   1.504   4.748   2.288
 3430TIP3    H210297   1.433   4.693   2.166
 3431TIP3   OH210298   5.415   5.956   2.824
 3431TIP3    H110299   5.334   5.974   2.777
 3431TIP3    H210300   5.435   5.864   2.803
 3432TIP3   OH210301   1.080   5.814   1.943
 3432TIP3    H110302   1.010   5.792   1.882
 3432TIP3    H210303   1.136   5.875   1.894
 3433TIP3   OH210304   4.992   2.495   1.929
 3433TIP3    H110305   5.058   2.474   1.863
 3433TIP3    H210306   4.928   2.549   1.884
 3434TIP3   OH210307   5.834   2.528   2.548
 3434TIP3    H110308   5.768   2.593   2.526
 3434TIP3    H210309   5.877   2.563   2.626
 3435TIP3   OH210310   2.634   0.626   1.794
 3435TIP3    H110311   2.690   0.553   1.770
 3435TIP3    H210312   2.561   0.585   1.841
 3436TIP3   OH210313   5.275   1.399   0.471
 3436TIP3    H110314   5.259   1.331   0.536
 3436TIP3    H210315   5.195   1.403   0.419
 3437TIP3   OH210316   3.693   3.130   0.207
 3437TIP3    H110317   3.675   3.223   0.222
 3437TIP3    H210318   3.763   3.109   0.268
 3438TIP3   OH210319   2.753   0.320   2.375
 3438TIP3    H110320   2.701   0.383   2.326
 3438TIP3    H210321   2.838   0.363   2.387
 3439TIP3   OH210322   0.200   2.458   0.679
 3439TIP3    H110323   0.138   2.409   0.732
 3439TIP3    H210324   0.148   2.526   0.637
 3440TIP3   OH210325   1.197   4.830   1.192
 3440TIP3    H110326   1.219   4.830   1.285
 3440TIP3    H210327   1.227   4.915   1.160
 3441TIP3   OH210328   5.280   5.657   3.965
 3441TIP3    H110329   5.269   5.584   3.905
 3441TIP3    H210330   5.344   5.627   4.029
 3442TIP3   OH210331   3.115   3.134   2.938
 3442TIP3    H110332   3.054   3.081   2.887
 3442TIP3    H210333   3.201   3.093   2.924
 3443TIP3   OH210334   5.428   3.285   0.129
 3443TIP3    H110335   5.345   3.248   0.097
 3443TIP3    H210336   5.486   3.209   0.138
 3444TIP3   OH210337   5.846   2.102   0.147
 3444TIP3    H110338   5.890   2.073   0.227
 3444TIP3    H210339   5.769   2.046   0.141
 3445TIP3   OH210340   2.206   1.849   4.587
 3445TIP3    H110341   2.158   1.920   4.545
 3445TIP3    H210342   2.201   1.869   4.681
 3446TIP3   OH210343   3.918   3.344   0.151
 3446TIP3    H110344   3.905   3.250   0.159
 3446TIP3    H210345   3.953   3.356   0.063
 3447TIP3   OH210346   5.208   2.171   1.787
 3447TIP3    H110347   5.115   2.191   1.799
 3447TIP3    H210348   5.245   2.249   1.746
 3448TIP3   OH210349   6.328   0.387   3.330
 3448TIP3    H110350   6.348   0.295   3.344
 3448TIP3    H210351   6.326   0.397   3.235
 3449TIP3   OH210352   4.557   1.338   4.141
 3449TIP3    H110353   4.465   1.352   4.164
 3449TIP3    H210354   4.558   1.343   4.045
 3450TIP3   OH210355   5.313   2.189   0.149
 3450TIP3    H110356   5.382   2.154   0.093
 3450TIP3    H210357   5.281   2.113   0.199
 3451TIP3   OH210358   1.071   1.308   4.942
 3451TIP3    H110359   1.015   1.236   4.973
 3451TIP3    H210360   1.044   1.384   4.994
 3452TIP3   OH210361   6.081   0.909   2.289
 3452TIP3    H110362   6.073   1.004   2.287
 3452TIP3    H210363   6.159   0.890   2.238
 3453TIP3   OH210364   3.796   3.735   0.897
 3453TIP3    H110365   3.745   3.772   0.969
 3453TIP3    H210366   3.867   3.687   0.940
 3454TIP3   OH210367   1.244   5.257   2.118
 3454TIP3    H110368   1.219   5.349   2.109
 3454TIP3    H210369   1.285   5.235   2.034
 3455TIP3   OH210370   4.603   3.593   2.607
 3455TIP3    H110371   4.539   3.562   2.671
 3455TIP3    H210372   4.561   3.667   2.564
 3456TIP3   OH210373   5.212   4.221   3.334
 3456TIP3    H110374   5.169   4.157   3.390
 3456TIP3    H210375   5.305   4.215   3.358
 3457TIP3   OH210376   3.597   2.570   3.921
 3457TIP3    H110377   3.561   2.552   4.008
 3457TIP3    H210378   3.540   2.522   3.861
 3458TIP3   OH210379   0.063   2.948   5.064
 3458TIP3    H110380   0.074   2.923   5.156
 3458TIP3    H210381   0.152   2.966   5.033
 3459TIP3   OH210382   3.002   5.440   1.921
 3459TIP3    H110383   2.970   5.378   1.855
 3459TIP3    H210384   3.042   5.385   1.988
 3460TIP3   OH210385   6.309   3.446   2.586
 3460TIP3    H110386   6.357   3.428   2.667
 3460TIP3    H210387   6.227   3.397   2.595
 3461TIP3   OH210388   3.322   3.523   4.866
 3461TIP3    H110389   3.407   3.490   4.893
 3461TIP3    H210390   3.334   3.549   4.774
 3462TIP3   OH210391   3.878   3.964   0.563
 3462TIP3    H110392   3.804   3.987   0.621
 3462TIP3    H210393   3.849   3.884   0.519
 3463TIP3   OH210394   4.206   1.532   2.464
 3463TIP3    H110395   4.126   1.578   2.488
 3463TIP3    H210396   4.193   1.443   2.498
 3464TIP3   OH210397   2.486   0.776   3.186
 3464TIP3    H110398   2.453   0.687   3.178
 3464TIP3    H210399   2.408   0.830   3.195
 3465TIP3   OH210400   1.792   0.531   0.369
 3465TIP3    H110401   1.745   0.605   0.332
 3465TIP3    H210402   1.726   0.482   0.418
 3466TIP3   OH210403   0.475   1.195   3.139
 3466TIP3    H110404   0.518   1.232   3.217
 3466TIP3    H210405   0.541   1.136   3.102
 3467TIP3   OH210406   0.090   4.994   2.928
 3467TIP3    H110407   0.122   4.916   2.881
 3467TIP3    H210408   0.012   4.963   2.974
 3468TIP3   OH210409   4.104   5.792   4.822
 3468TIP3    H110410   4.107   5.697   4.819
 3468TIP3    H210411   4.040   5.812   4.890
 3469TIP3   OH210412   0.351   1.648   0.290
 3469TIP3    H110413   0.435   1.628   0.249
 3469TIP3    H210414   0.356   1.741   0.311
 3470TIP3   OH210415   2.191   2.363   2.847
 3470TIP3    H110416   2.247   2.287   2.866
 3470TIP3    H210417   2.239   2.411   2.779
 3471TIP3   OH210418   0.824   2.432   0.347
 3471TIP3    H110419   0.768   2.502   0.381
 3471TIP3    H210420   0.821   2.365   0.415
 3472TIP3   OH210421   0.129   3.136   0.363
 3472TIP3    H110422   0.205   3.158   0.416
 3472TIP3    H210423   0.098   3.053   0.398
 3473TIP3   OH210424   5.105   0.823   0.199
 3473TIP3    H110425   5.195   0.800   0.177
 3473TIP3    H210426   5.097   0.802   0.292
 3474TIP3   OH210427   2.920   0.578   1.581
 3474TIP3    H110428   2.943   0.623   1.662
 3474TIP3    H210429   2.840   0.529   1.602
 3475TIP3   OH210430   3.495   1.342   0.695
 3475TIP3    H110431   3.560   1.363   0.629
 3475TIP3    H210432   3.425   1.298   0.646
 3476TIP3   OH210433   2.441   2.940   2.335
 3476TIP3    H110434   2.360   2.990   2.344
 3476TIP3    H210435   2.458   2.907   2.423
 3477TIP3   OH210436   3.968   5.691   3.490
 3477TIP3    H110437   4.046   5.651   3.453
 3477TIP3    H210438   3.983   5.786   3.484
 3478TIP3   OH210439   2.289   3.316   3.173
 3478TIP3    H110440   2.199   3.347   3.168
 3478TIP3    H210441   2.325   3.335   3.086
 3479TIP3   OH210442   6.190   5.819   2.380
 3479TIP3    H110443   6.166   5.911   2.373
 3479TIP3    H210444   6.280   5.816   2.346
 3480TIP3   OH210445   0.737   5.456   0.280
 3480TIP3    H110446   0.826   5.488   0.291
 3480TIP3    H210447   0.746   5.378   0.226
 3481TIP3   OH210448   0.455   4.155   0.411
 3481TIP3    H110449   0.477   4.167   0.504
 3481TIP3    H210450   0.409   4.236   0.388
 3482TIP3   OH210451   3.585   3.166   3.030
 3482TIP3    H110452   3.636   3.145   3.108
 3482TIP3    H210453   3.598   3.260   3.017
 3483TIP3   OH210454   0.108   4.913   5.145
 3483TIP3    H110455   0.105   5.001   5.181
 3483TIP3    H210456   0.184   4.872   5.187
 3484TIP3   OH210457   2.634   3.699   4.474
 3484TIP3    H110458   2.707   3.638   4.464
 3484TIP3    H210459   2.567   3.649   4.521
 3485TIP3   OH210460   4.206   0.186   3.796
 3485TIP3    H110461   4.204   0.206   3.889
 3485TIP3    H210462   4.181   0.268   3.753
 3486TIP3   OH210463   1.206   5.933   0.989
 3486TIP3    H110464   1.114   5.957   1.003
 3486TIP3    H210465   1.235   5.991   0.918
 3487TIP3   OH210466   1.786   0.836   1.481
 3487TIP3    H110467   1.704   0.886   1.491
 3487TIP3    H210468   1.855   0.901   1.493
 3488TIP3   OH210469   6.224   4.930   1.707
 3488TIP3    H110470   6.155   4.908   1.769
 3488TIP3    H210471   6.272   4.848   1.695
 3489TIP3   OH210472   2.465   2.743   4.374
 3489TIP3    H110473   2.476   2.838   4.381
 3489TIP3    H210474   2.375   2.727   4.403
 3490TIP3   OH210475   0.640   1.614   0.517
 3490TIP3    H110476   0.596   1.677   0.574
 3490TIP3    H210477   0.687   1.668   0.454
 3491TIP3   OH210478   0.749   1.103   4.846
 3491TIP3    H110479   0.717   1.102   4.937
 3491TIP3    H210480   0.700   1.034   4.803
 3492TIP3   OH210481   1.796   4.853   0.581
 3492TIP3    H110482   1.823   4.832   0.492
 3492TIP3    H210483   1.709   4.814   0.590
 3493TIP3   OH210484   2.420   3.177   4.390
 3493TIP3    H110485   2.409   3.122   4.312
 3493TIP3    H210486   2.446   3.263   4.355
 3494TIP3   OH210487   0.642   4.989   4.691
 3494TIP3    H110488   0.584   5.011   4.764
 3494TIP3    H210489   0.629   5.058   4.627
 3495TIP3   OH210490   1.827   3.654   2.988
 3495TIP3    H110491   1.792   3.583   2.935
 3495TIP3    H210492   1.784   3.643   3.073
 3496TIP3   OH210493   1.121   2.303   1.485
 3496TIP3    H110494   1.062   2.236   1.449
 3496TIP3    H210495   1.200   2.255   1.509
 3497TIP3   OH210496   3.597   1.128   3.935
 3497TIP3    H110497   3.646   1.169   3.864
 3497TIP3    H210498   3.644   1.151   4.014
 3498TIP3   OH210499   4.260   1.602   0.516
 3498TIP3    H110500   4.178   1.648   0.496
 3498TIP3    H210501   4.327   1.669   0.505
 3499TIP3   OH210502   5.557   3.005   0.961
 3499TIP3    H110503   5.598   2.924   0.930
 3499TIP3    H210504   5.598   3.021   1.046
 3500TIP3   OH210505   4.441   3.784   2.522
 3500TIP3    H110506   4.372   3.810   2.583
 3500TIP3    H210507   4.407   3.807   2.436
 3501TIP3   OH210508   3.551   3.450   3.032
 3501TIP3    H110509   3.518   3.511   2.965
 3501TIP3    H210510   3.557   3.502   3.112
 3502TIP3   OH210511   6.202   4.850   2.912
 3502TIP3    H110512   6.207   4.843   2.817
 3502TIP3    H210513   6.117   4.891   2.929
 3503TIP3   OH210514   4.095   5.881   1.827
 3503TIP3    H110515   4.108   5.951   1.763
 3503TIP3    H210516   4.055   5.810   1.778
 3504TIP3   OH210517   2.860   4.180   4.955
 3504TIP3    H110518   2.862   4.233   4.875
 3504TIP3    H210519   2.769   4.183   4.984
 3505TIP3   OH210520   5.145   2.802   0.151
 3505TIP3    H110521   5.203   2.749   0.097
 3505TIP3    H210522   5.058   2.787   0.115
 3506TIP3   OH210523   2.340   2.173   0.363
 3506TIP3    H110524   2.377   2.150   0.277
 3506TIP3    H210525   2.387   2.117   0.425
 3507TIP3   OH210526   0.601   1.635   0.153
 3507TIP3    H110527   0.590   1.680   0.069
 3507TIP3    H210528   0.658   1.561   0.134
 3508TIP3   OH210529   1.004   3.943   4.950
 3508TIP3    H110530   1.024   3.872   4.889
 3508TIP3    H210531   0.969   3.899   5.027
 3509TIP3   OH210532   3.116   3.351   1.600
 3509TIP3    H110533   3.155   3.271   1.563
 3509TIP3    H210534   3.024   3.348   1.571
 3510TIP3   OH210535   0.263   2.168   1.359
 3510TIP3    H110536   0.331   2.231   1.334
 3510TIP3    H210537   0.311   2.086   1.372
 3511TIP3   OH210538   2.554   1.251   4.170
 3511TIP3    H110539   2.508   1.252   4.087
 3511TIP3    H210540   2.614   1.176   4.164
 3512TIP3   OH210541   3.688   2.782   4.645
 3512TIP3    H110542   3.780   2.789   4.668
 3512TIP3    H210543   3.652   2.718   4.707
 3513TIP3   OH210544   1.267   3.641   2.092
 3513TIP3    H110545   1.354   3.618   2.125
 3513TIP3    H210546   1.214   3.658   2.170
 3514TIP3   OH210547   1.817   0.041   1.548
 3514TIP3    H110548   1.767   0.103   1.494
 3514TIP3    H210549   1.877   0.097   1.599
 3515TIP3   OH210550   0.994   5.149   2.075
 3515TIP3    H110551   0.991   5.115   1.986
 3515TIP3    H210552   1.078   5.194   2.082
 3516TIP3   OH210553   2.888   0.172   3.396
 3516TIP3    H110554   2.867   0.107   3.328
 3516TIP3    H210555   2.933   0.242   3.350
 3517TIP3   OH210556   4.352   4.933   3.775
 3517TIP3    H110557   4.431   4.974   3.811
 3517TIP3    H210558   4.280   4.973   3.824
 3518TIP3   OH210559   4.409   5.682   2.834
 3518TIP3    H110560   4.493   5.637   2.822
 3518TIP3    H210561   4.408   5.749   2.766
 3519TIP3   OH210562   5.620   3.458   0.707
 3519TIP3    H110563   5.598   3.533   0.763
 3519TIP3    H210564   5.710   3.436   0.728
 3520TIP3   OH210565   2.678   0.921   1.937
 3520TIP3    H110566   2.598   0.933   1.886
 3520TIP3    H210567   2.681   0.827   1.955
 3521TIP3   OH210568   4.316   5.944   2.301
 3521TIP3    H110569   4.291   6.018   2.358
 3521TIP3    H210570   4.411   5.950   2.294
 3522TIP3   OH210571   4.358   4.930   0.885
 3522TIP3    H110572   4.299   4.874   0.834
 3522TIP3    H210573   4.437   4.878   0.895
 3523TIP3   OH210574   0.726   2.134   1.159
 3523TIP3    H110575   0.792   2.192   1.120
 3523TIP3    H210576   0.708   2.175   1.244
 3524TIP3   OH210577   5.546   3.240   3.114
 3524TIP3    H110578   5.516   3.218   3.202
 3524TIP3    H210579   5.524   3.333   3.104
 3525TIP3   OH210580   5.660   1.459   3.143
 3525TIP3    H110581   5.687   1.404   3.216
 3525TIP3    H210582   5.727   1.445   3.076
 3526TIP3   OH210583   4.028   3.648   0.227
 3526TIP3    H110584   4.035   3.688   0.141
 3526TIP3    H210585   3.948   3.595   0.223
 3527TIP3   OH210586   1.255   2.874   1.880
 3527TIP3    H110587   1.214   2.896   1.797
 3527TIP3    H210588   1.182   2.864   1.941
 3528TIP3   OH210589   4.055   5.962   3.337
 3528TIP3    H110590   4.116   5.897   3.301
 3528TIP3    H210591   4.068   6.040   3.283
 3529TIP3   OH210592   4.683   1.204   2.646
 3529TIP3    H110593   4.747   1.251   2.592
 3529TIP3    H210594   4.665   1.124   2.597
 3530TIP3   OH210595   1.039   3.486   4.399
 3530TIP3    H110596   1.090   3.461   4.322
 3530TIP3    H210597   1.041   3.408   4.455
 3531TIP3   OH210598   4.397   1.222   2.738
 3531TIP3    H110599   4.490   1.225   2.717
 3531TIP3    H210600   4.379   1.130   2.758
 3532TIP3   OH210601   1.035   2.535   4.606
 3532TIP3    H110602   1.026   2.562   4.515
 3532TIP3    H210603   1.129   2.523   4.619
 3533TIP3   OH210604   5.266   4.638   1.063
 3533TIP3    H110605   5.238   4.705   1.125
 3533TIP3    H210606   5.188   4.583   1.051
 3534TIP3   OH210607   0.887   3.415   3.523
 3534TIP3    H110608   0.797   3.428   3.494
 3534TIP3    H210609   0.880   3.400   3.617
 3535TIP3   OH210610   2.353   4.144   1.743
 3535TIP3    H110611   2.402   4.158   1.824
 3535TIP3    H210612   2.400   4.073   1.699
 3536TIP3   OH210613   2.023   1.684   4.200
 3536TIP3    H110614   2.015   1.682   4.105
 3536TIP3    H210615   1.994   1.597   4.228
 3537TIP3   OH210616   6.049   4.182   2.287
 3537TIP3    H110617   6.038   4.087   2.283
 3537TIP3    H210618   6.038   4.204   2.379
 3538TIP3   OH210619   3.063   3.594   0.508
 3538TIP3    H110620   3.110   3.676   0.517
 3538TIP3    H210621   2.989   3.601   0.568
 3539TIP3   OH210622   3.414   0.733   5.071
 3539TIP3    H110623   3.426   0.642   5.099
 3539TIP3    H210624   3.467   0.741   4.992
 3540TIP3   OH210625   3.205   4.313   1.051
 3540TIP3    H110626   3.253   4.263   1.117
 3540TIP3    H210627   3.269   4.332   0.983
 3541TIP3   OH210628   2.559   1.002   2.975
 3541TIP3    H110629   2.561   0.911   2.944
 3541TIP3    H210630   2.590   0.997   3.065
 3542TIP3   OH210631   5.441   0.448   4.473
 3542TIP3    H110632   5.408   0.521   4.525
 3542TIP3    H210633   5.460   0.486   4.387
 3543TIP3   OH210634   3.299   4.413   2.673
 3543TIP3    H110635   3.354   4.491   2.671
 3543TIP3    H210636   3.340   4.356   2.738
 3544TIP3   OH210637   3.624   4.505   2.104
 3544TIP3    H110638   3.546   4.528   2.054
 3544TIP3    H210639   3.677   4.585   2.104
 3545TIP3   OH210640   5.002   5.701   4.505
 3545TIP3    H110641   5.090   5.714   4.540
 3545TIP3    H210642   5.002   5.748   4.421
 3546TIP3   OH210643   5.744   4.645   2.005
 3546TIP3    H110644   5.706   4.723   2.045
 3546TIP3    H210645   5.787   4.599   2.078
 3547TIP3   OH210646   6.031   4.238   4.875
 3547TIP3    H110647   6.021   4.145   4.852
 3547TIP3    H210648   5.968   4.283   4.818
 3548TIP3   OH210649   4.704   1.779   3.819
 3548TIP3    H110650   4.635   1.752   3.759
 3548TIP3    H210651   4.659   1.828   3.888
 3549TIP3   OH210652   5.386   5.225   3.217
 3549TIP3    H110653   5.362   5.133   3.207
 3549TIP3    H210654   5.305   5.269   3.242
 3550TIP3   OH210655   5.938   0.706   2.404
 3550TIP3    H110656   5.968   0.782   2.354
 3550TIP3    H210657   5.944   0.734   2.496
 3551TIP3   OH210658   4.375   4.667   0.751
 3551TIP3    H110659   4.404   4.714   0.673
 3551TIP3    H210660   4.455   4.653   0.802
 3552TIP3   OH210661   1.261   4.050   0.414
 3552TIP3    H110662   1.254   3.960   0.445
 3552TIP3    H210663   1.220   4.049   0.327
 3553TIP3   OH210664   0.065   3.869   1.997
 3553TIP3    H110665   0.043   3.778   1.977
 3553TIP3    H210666   0.065   3.874   2.092
 3554TIP3   OH210667   3.303   4.417   0.264
 3554TIP3    H110668   3.324   4.478   0.194
 3554TIP3    H210669   3.322   4.466   0.344
 3555TIP3   OH210670   1.692   3.999   1.225
 3555TIP3    H110671   1.703   4.088   1.193
 3555TIP3    H210672   1.756   3.990   1.296
 3556TIP3   OH210673   5.188   5.633   1.930
 3556TIP3    H110674   5.203   5.700   1.997
 3556TIP3    H210675   5.134   5.567   1.974
 3557TIP3   OH210676   3.228   0.406   1.443
 3557TIP3    H110677   3.303   0.393   1.501
 3557TIP3    H210678   3.213   0.501   1.446
 3558TIP3   OH210679   2.090   4.798   3.321
 3558TIP3    H110680   1.994   4.791   3.313
 3558TIP3    H210681   2.106   4.890   3.340
 3559TIP3   OH210682   5.705   3.182   4.059
 3559TIP3    H110683   5.680   3.219   3.975
 3559TIP3    H210684   5.761   3.248   4.099
 3560TIP3   OH210685   2.699   0.300   0.194
 3560TIP3    H110686   2.615   0.255   0.192
 3560TIP3    H210687   2.761   0.234   0.224
 3561TIP3   OH210688   3.510   3.928   4.243
 3561TIP3    H110689   3.522   3.837   4.270
 3561TIP3    H210690   3.422   3.930   4.205
 3562TIP3   OH210691   1.614   4.164   4.400
 3562TIP3    H110692   1.559   4.143   4.476
 3562TIP3    H210693   1.608   4.259   4.392
 3563TIP3   OH210694   1.686   2.342   0.852
 3563TIP3    H110695   1.606   2.347   0.904
 3563TIP3    H210696   1.755   2.369   0.912
 3564TIP3   OH210697   2.034   5.834   1.683
 3564TIP3    H110698   2.036   5.811   1.776
 3564TIP3    H210699   1.947   5.870   1.670
 3565TIP3   OH210700   3.419   1.138   0.970
 3565TIP3    H110701   3.329   1.163   0.991
 3565TIP3    H210702   3.471   1.172   1.043
 3566TIP3   OH210703   1.553   3.404   1.145
 3566TIP3    H110704   1.602   3.468   1.195
 3566TIP3    H210705   1.619   3.343   1.112
 3567TIP3   OH210706   6.093   0.262   4.322
 3567TIP3    H110707   6.004   0.246   4.291
 3567TIP3    H210708   6.092   0.230   4.412
 3568TIP3   OH210709   1.754   0.818   4.601
 3568TIP3    H110710   1.693   0.881   4.640
 3568TIP3    H210711   1.829   0.871   4.575
 3569TIP3   OH210712   5.879   4.979   1.310
 3569TIP3    H110713   5.914   4.896   1.278
 3569TIP3    H210714   5.789   4.981   1.276
 3570TIP3   OH210715   1.392   5.035   2.555
 3570TIP3    H110716   1.330   5.087   2.504
 3570TIP3    H210717   1.412   5.090   2.631
 3571TIP3   OH210718   3.191   4.004   3.509
 3571TIP3    H110719   3.241   3.927   3.482
 3571TIP3    H210720   3.151   3.979   3.592
 3572TIP3   OH210721   3.318   2.942   2.248
 3572TIP3    H110722   3.246   2.884   2.223
 3572TIP3    H210723   3.294   3.027   2.213
 3573TIP3   OH210724   6.005   5.631   3.264
 3573TIP3    H110725   6.051   5.665   3.187
 3573TIP3    H210726   6.063   5.562   3.297
 3574TIP3   OH210727   2.759   2.781   0.112
 3574TIP3    H110728   2.730   2.799   0.023
 3574TIP3    H210729   2.679   2.777   0.164
 3575TIP3   OH210730   1.868   2.591   0.638
 3575TIP3    H110731   1.890   2.574   0.547
 3575TIP3    H210732   1.943   2.558   0.688
 3576TIP3   OH210733   5.403   5.251   1.487
 3576TIP3    H110734   5.407   5.188   1.559
 3576TIP3    H210735   5.494   5.278   1.473
 3577TIP3   OH210736   3.943   3.401   0.600
 3577TIP3    H110737   3.992   3.344   0.660
 3577TIP3    H210738   4.006   3.425   0.533
 3578TIP3   OH210739   4.012   6.000   3.825
 3578TIP3    H110740   4.066   6.074   3.799
 3578TIP3    H210741   3.922   6.032   3.819
 3579TIP3   OH210742   3.230   1.378   0.309
 3579TIP3    H110743   3.319   1.347   0.288
 3579TIP3    H210744   3.178   1.354   0.232
 3580TIP3   OH210745   1.424   2.316   4.419
 3580TIP3    H110746   1.429   2.220   4.422
 3580TIP3    H210747   1.402   2.336   4.328
 3581TIP3   OH210748   5.838   0.542   4.365
 3581TIP3    H110749   5.905   0.610   4.372
 3581TIP3    H210750   5.875   0.479   4.304
 3582TIP3   OH210751   2.254   3.470   4.109
 3582TIP3    H110752   2.235   3.467   4.203
 3582TIP3    H210753   2.293   3.385   4.089
 3583TIP3   OH210754   3.716   2.939   1.753
 3583TIP3    H110755   3.670   2.986   1.683
 3583TIP3    H210756   3.788   2.998   1.778
 3584TIP3   OH210757   3.865   3.866   3.952
 3584TIP3    H110758   3.896   3.956   3.961
 3584TIP3    H210759   3.910   3.832   3.875
 3585TIP3   OH210760   2.856   1.046   4.533
 3585TIP3    H110761   2.800   1.119   4.505
 3585TIP3    H210762   2.876   1.064   4.625
 3586TIP3   OH210763   4.102   5.021   3.863
 3586TIP3    H110764   4.047   5.077   3.917
 3586TIP3    H210765   4.057   5.017   3.779
 3587TIP3   OH210766   6.322   4.091   2.646
 3587TIP3    H110767   6.316   4.009   2.596
 3587TIP3    H210768   6.382   4.145   2.596
 3588TIP3   OH210769   1.024   3.135   0.803
 3588TIP3    H110770   0.962   3.180   0.861
 3588TIP3    H210771   0.971   3.075   0.752
 3589TIP3   OH210772   4.197   1.578   2.190
 3589TIP3    H110773   4.258   1.544   2.124
 3589TIP3    H210774   4.237   1.555   2.274
 3590TIP3   OH210775   4.082   0.394   0.713
 3590TIP3    H110776   4.066   0.368   0.803
 3590TIP3    H210777   4.076   0.490   0.713
 3591TIP3   OH210778   3.633   3.924   3.772
 3591TIP3    H110779   3.690   3.871   3.828
 3591TIP3    H210780   3.648   3.891   3.684
 3592TIP3   OH210781   6.287   0.573   2.160
 3592TIP3    H110782   6.232   0.545   2.087
 3592TIP3    H210783   6.272   0.667   2.167
 3593TIP3   OH210784   5.365   3.803   2.078
 3593TIP3    H110785   5.275   3.834   2.074
 3593TIP3    H210786   5.385   3.777   1.988
 3594TIP3   OH210787   3.824   3.461   5.044
 3594TIP3    H110788   3.914   3.494   5.054
 3594TIP3    H210789   3.798   3.433   5.132
 3595TIP3   OH210790   2.496   2.999   0.294
 3595TIP3    H110791   2.519   3.085   0.331
 3595TIP3    H210792   2.514   2.937   0.365
 3596TIP3   OH210793   4.196   2.780   2.172
 3596TIP3    H110794   4.250   2.841   2.222
 3596TIP3    H210795   4.216   2.695   2.209
 3597TIP3   OH210796   4.811   4.932   2.716
 3597TIP3    H110797   4.741   4.965   2.772
 3597TIP3    H210798   4.828   5.002   2.654
 3598TIP3   OH210799   5.656   1.045   1.707
 3598TIP3    H110800   5.580   1.103   1.714
 3598TIP3    H210801   5.675   1.021   1.798
 3599TIP3   OH210802   0.566   5.740   0.411
 3599TIP3    H110803   0.498   5.768   0.471
 3599TIP3    H210804   0.562   5.644   0.414
 3600TIP3   OH210805   5.601   5.067   1.235
 3600TIP3    H110806   5.557   5.042   1.154
 3600TIP3    H210807   5.590   5.162   1.240
 3601TIP3   OH210808   0.344   3.550   1.208
 3601TIP3    H110809   0.402   3.610   1.161
 3601TIP3    H210810   0.275   3.529   1.145
 3602TIP3   OH210811   5.836   5.894   2.413
 3602TIP3    H110812   5.925   5.921   2.435
 3602TIP3    H210813   5.818   5.821   2.472
 3603TIP3   OH210814   5.576   3.078   0.172
 3603TIP3    H110815   5.656   3.025   0.171
 3603TIP3    H210816   5.513   3.024   0.220
 3604TIP3   OH210817   2.235   2.673   1.483
 3604TIP3    H110818   2.184   2.640   1.557
 3604TIP3    H210819   2.307   2.722   1.524
 3605TIP3   OH210820   1.314   5.274   1.399
 3605TIP3    H110821   1.331   5.198   1.455
 3605TIP3    H210822   1.308   5.237   1.311
 3606TIP3   OH210823   6.345   0.080   2.595
 3606TIP3    H110824   6.432   0.113   2.571
 3606TIP3    H210825   6.284   0.141   2.553
 3607TIP3   OH210826   3.283   3.140   0.839
 3607TIP3    H110827   3.295   3.140   0.934
 3607TIP3    H210828   3.364   3.178   0.805
 3608TIP3   OH210829   4.952   0.816   2.297
 3608TIP3    H110830   4.898   0.752   2.342
 3608TIP3    H210831   4.966   0.886   2.361
 3609TIP3   OH210832   5.224   5.052   1.368
 3609TIP3    H110833   5.255   5.133   1.408
 3609TIP3    H210834   5.249   4.983   1.429
 3610TIP3   OH210835   5.752   0.050   1.005
 3610TIP3    H110836   5.740   0.046   0.910
 3610TIP3    H210837   5.699   0.124   1.033
 3611TIP3   OH210838   2.712   1.482   1.537
 3611TIP3    H110839   2.634   1.454   1.489
 3611TIP3    H210840   2.750   1.551   1.483
 3612TIP3   OH210841   1.893   4.698   1.906
 3612TIP3    H110842   1.977   4.655   1.919
 3612TIP3    H210843   1.858   4.712   1.994
 3613TIP3   OH210844   4.388   3.053   1.626
 3613TIP3    H110845   4.449   3.126   1.637
 3613TIP3    H210846   4.331   3.057   1.703
 3614TIP3   OH210847   1.524   0.530   3.782
 3614TIP3    H110848   1.546   0.527   3.875
 3614TIP3    H210849   1.600   0.569   3.740
 3615TIP3   OH210850   3.071   2.837   4.380
 3615TIP3    H110851   3.058   2.837   4.475
 3615TIP3    H210852   3.166   2.844   4.370
 3616TIP3   OH210853   0.756   3.969   3.579
 3616TIP3    H110854   0.811   3.926   3.515
 3616TIP3    H210855   0.811   4.037   3.617
 3617TIP3   OH210856   3.435   5.028   3.296
 3617TIP3    H110857   3.495   5.098   3.271
 3617TIP3    H210858   3.465   5.000   3.383
 3618TIP3   OH210859   4.214   2.360   0.657
 3618TIP3    H110860   4.219   2.390   0.566
 3618TIP3    H210861   4.264   2.425   0.707
 3619TIP3   OH210862   4.111   5.334   1.519
 3619TIP3    H110863   4.052   5.372   1.454
 3619TIP3    H210864   4.052   5.300   1.587
 3620TIP3   OH210865   5.588   1.714   4.993
 3620TIP3    H110866   5.562   1.666   4.914
 3620TIP3    H210867   5.564   1.805   4.975
 3621TIP3   OH210868   3.311   2.736   1.431
 3621TIP3    H110869   3.229   2.765   1.471
 3621TIP3    H210870   3.367   2.814   1.432
 3622TIP3   OH210871   0.830   2.860   2.659
 3622TIP3    H110872   0.830   2.769   2.691
 3622TIP3    H210873   0.829   2.913   2.738
 3623TIP3   OH210874   4.576   5.360   3.115
 3623TIP3    H110875   4.562   5.289   3.052
 3623TIP3    H210876   4.536   5.328   3.196
 3624TIP3   OH210877   2.435   1.498   0.317
 3624TIP3    H110878   2.526   1.471   0.300
 3624TIP3    H210879   2.442   1.569   0.380
 3625TIP3   OH210880   0.634   5.799   3.079
 3625TIP3    H110881   0.607   5.832   3.164
 3625TIP3    H210882   0.666   5.711   3.097
 3626TIP3   OH210883   3.072   4.468   0.398
 3626TIP3    H110884   3.134   4.445   0.328
 3626TIP3    H210885   3.092   4.405   0.468
 3627TIP3   OH210886   1.027   4.593   4.602
 3627TIP3    H110887   1.063   4.521   4.654
 3627TIP3    H210888   0.944   4.559   4.569
 3628TIP3   OH210889   2.827   1.438   4.071
 3628TIP3    H110890   2.778   1.356   4.057
 3628TIP3    H210891   2.804   1.492   3.995
 3629TIP3   OH210892   1.007   1.902   2.693
 3629TIP3    H110893   1.085   1.863   2.653
 3629TIP3    H210894   0.961   1.943   2.619
 3630TIP3   OH210895   0.660   1.460   5.057
 3630TIP3    H110896   0.603   1.536   5.054
 3630TIP3    H210897   0.612   1.391   5.010
 3631TIP3   OH210898   1.743   1.294   2.487
 3631TIP3    H110899   1.786   1.325   2.407
 3631TIP3    H210900   1.673   1.237   2.455
 3632TIP3   OH210901   3.135   3.346   4.159
 3632TIP3    H110902   3.050   3.307   4.136
 3632TIP3    H210903   3.176   3.366   4.075
 3633TIP3   OH210904   0.566   2.867   3.986
 3633TIP3    H110905   0.578   2.900   3.897
 3633TIP3    H210906   0.555   2.946   4.039
 3634TIP3   OH210907   5.129   1.674   1.238
 3634TIP3    H110908   5.069   1.686   1.312
 3634TIP3    H210909   5.083   1.711   1.163
 3635TIP3   OH210910   5.728   0.111   1.969
 3635TIP3    H110911   5.712   0.018   1.953
 3635TIP3    H210912   5.823   0.118   1.977
 3636TIP3   OH210913   0.068   1.021   0.492
 3636TIP3    H110914   0.006   0.951   0.471
 3636TIP3    H210915   0.039   1.054   0.577
 3637TIP3   OH210916   2.853   1.741   1.430
 3637TIP3    H110917   2.888   1.818   1.475
 3637TIP3    H210918   2.763   1.764   1.410
 3638TIP3   OH210919   0.246   4.249   3.751
 3638TIP3    H110920   0.303   4.175   3.772
 3638TIP3    H210921   0.293   4.326   3.784
 3639TIP3   OH210922   5.977   1.277   3.027
 3639TIP3    H110923   5.890   1.240   3.041
 3639TIP3    H210924   5.962   1.372   3.024
 3640TIP3   OH210925   6.043   1.672   1.998
 3640TIP3    H110926   5.975   1.639   2.056
 3640TIP3    H210927   6.086   1.741   2.049
 3641TIP3   OH210928   2.436   3.521   0.800
 3641TIP3    H110929   2.350   3.539   0.838
 3641TIP3    H210930   2.483   3.474   0.869
 3642TIP3   OH210931   3.780   1.618   4.668
 3642TIP3    H110932   3.691   1.606   4.700
 3642TIP3    H210933   3.836   1.588   4.739
 3643TIP3   OH210934   0.552   2.725   4.359
 3643TIP3    H110935   0.610   2.789   4.318
 3643TIP3    H210936   0.503   2.775   4.425
 3644TIP3   OH210937   1.071   3.302   2.583
 3644TIP3    H110938   1.097   3.315   2.674
 3644TIP3    H210939   1.112   3.219   2.558
 3645TIP3   OH210940   1.941   5.759   0.093
 3645TIP3    H110941   1.918   5.667   0.083
 3645TIP3    H210942   2.024   5.759   0.140
 3646TIP3   OH210943   3.836   2.350   3.400
 3646TIP3    H110944   3.854   2.256   3.399
 3646TIP3    H210945   3.774   2.362   3.472
 3647TIP3   OH210946   4.278   1.380   5.071
 3647TIP3    H110947   4.191   1.394   5.109
 3647TIP3    H210948   4.314   1.468   5.061
 3648TIP3   OH210949   4.936   2.493   3.924
 3648TIP3    H110950   4.954   2.531   3.838
 3648TIP3    H210951   4.982   2.408   3.922
 3649TIP3   OH210952   1.495   4.982   0.789
 3649TIP3    H110953   1.410   5.020   0.767
 3649TIP3    H210954   1.511   4.916   0.722
 3650TIP3   OH210955   5.369   5.232   0.240
 3650TIP3    H110956   5.320   5.196   0.166
 3650TIP3    H210957   5.358   5.327   0.232
 3651TIP3   OH210958   4.372   2.121   1.050
 3651TIP3    H110959   4.277   2.112   1.066
 3651TIP3    H210960   4.379   2.135   0.956
 3652TIP3   OH210961   3.649   5.537   0.280
 3652TIP3    H110962   3.604   5.617   0.254
 3652TIP3    H210963   3.737   5.566   0.306
 3653TIP3   OH210964   3.756   0.876   3.464
 3653TIP3    H110965   3.709   0.874   3.548
 3653TIP3    H210966   3.711   0.944   3.414
 3654TIP3   OH210967   2.133   0.242   3.802
 3654TIP3    H110968   2.063   0.304   3.785
 3654TIP3    H210969   2.187   0.283   3.870
 3655TIP3   OH210970   1.229   2.975   3.358
 3655TIP3    H110971   1.275   2.957   3.440
 3655TIP3    H210972   1.136   2.976   3.383
 3656TIP3   OH210973   1.131   2.985   1.627
 3656TIP3    H110974   1.068   3.052   1.652
 3656TIP3    H210975   1.177   3.022   1.551
 3657TIP3   OH210976   5.530   2.146   4.431
 3657TIP3    H110977   5.513   2.096   4.351
 3657TIP3    H210978   5.556   2.233   4.400
 3658TIP3   OH210979   3.010   3.692   3.917
 3658TIP3    H110980   2.961   3.766   3.952
 3658TIP3    H210981   2.958   3.662   3.842
 3659TIP3   OH210982   0.536   3.212   5.003
 3659TIP3    H110983   0.615   3.253   4.968
 3659TIP3    H210984   0.567   3.130   5.042
 3660TIP3   OH210985   3.828   0.602   4.299
 3660TIP3    H110986   3.799   0.650   4.222
 3660TIP3    H210987   3.844   0.669   4.365
 3661TIP3   OH210988   5.161   3.881   3.870
 3661TIP3    H110989   5.113   3.963   3.882
 3661TIP3    H210990   5.235   3.904   3.815
 3662TIP3   OH210991   0.777   2.765   4.984
 3662TIP3    H110992   0.742   2.812   4.908
 3662TIP3    H210993   0.706   2.706   5.010
 3663TIP3   OH210994   3.967   1.674   2.508
 3663TIP3    H110995   3.942   1.705   2.595
 3663TIP3    H210996   3.983   1.755   2.458
 3664TIP3   OH210997   4.239   4.348   4.067
 3664TIP3    H110998   4.272   4.351   3.977
 3664TIP3    H210999   4.250   4.438   4.098
 3665TIP3   OH211000   0.531   4.586   1.421
 3665TIP3    H111001   0.608   4.602   1.474
 3665TIP3    H211002   0.459   4.582   1.483
 3666TIP3   OH211003   5.981   0.191   1.087
 3666TIP3    H111004   5.924   0.141   1.029
 3666TIP3    H211005   5.931   0.202   1.168
 3667TIP3   OH211006   1.226   0.777   0.890
 3667TIP3    H111007   1.312   0.757   0.925
 3667TIP3    H211008   1.165   0.734   0.950
 3668TIP3   OH211009   5.028   3.622   0.829
 3668TIP3    H111010   4.934   3.606   0.836
 3668TIP3    H211011   5.059   3.622   0.919
 3669TIP3   OH211012   5.470   4.205   0.456
 3669TIP3    H111013   5.538   4.264   0.489
 3669TIP3    H211014   5.517   4.143   0.400
 3670TIP3   OH211015   4.113   3.904   2.849
 3670TIP3    H111016   4.087   3.812   2.856
 3670TIP3    H211017   4.181   3.915   2.916
 3671TIP3   OH211018   3.521   3.648   4.346
 3671TIP3    H111019   3.466   3.571   4.361
 3671TIP3    H211020   3.594   3.638   4.408
 3672TIP3   OH211021   2.272   1.471   3.652
 3672TIP3    H111022   2.252   1.559   3.621
 3672TIP3    H211023   2.190   1.423   3.646
 3673TIP3   OH211024   1.588   5.325   5.180
 3673TIP3    H111025   1.604   5.265   5.107
 3673TIP3    H211026   1.580   5.268   5.256
 3674TIP3   OH211027   3.452   3.725   2.303
 3674TIP3    H111028   3.481   3.642   2.265
 3674TIP3    H211029   3.522   3.787   2.283
 3675TIP3   OH211030   5.486   3.558   3.692
 3675TIP3    H111031   5.464   3.581   3.602
 3675TIP3    H211032   5.533   3.475   3.685
 3676TIP3   OH211033   5.908   2.931   3.762
 3676TIP3    H111034   5.816   2.936   3.735
 3676TIP3    H211035   5.954   2.903   3.683
 3677TIP3   OH211036   2.472   2.023   0.552
 3677TIP3    H111037   2.556   2.029   0.506
 3677TIP3    H211038   2.466   1.931   0.578
 3678TIP3   OH211039   2.513   1.205   0.063
 3678TIP3    H111040   2.560   1.148   0.002
 3678TIP3    H211041   2.541   1.294   0.039
 3679TIP3   OH211042   5.096   3.151   3.751
 3679TIP3    H111043   5.119   3.065   3.717
 3679TIP3    H211044   5.085   3.206   3.673
 3680TIP3   OH211045   0.638   2.515   1.673
 3680TIP3    H111046   0.629   2.439   1.731
 3680TIP3    H211047   0.712   2.564   1.708
 3681TIP3   OH211048   1.657   1.816   2.314
 3681TIP3    H111049   1.729   1.754   2.327
 3681TIP3    H211050   1.601   1.774   2.248
 3682TIP3   OH211051   1.851   0.414   3.398
 3682TIP3    H111052   1.927   0.455   3.356
 3682TIP3    H211053   1.870   0.320   3.395
 3683TIP3   OH211054   6.043   4.391   4.071
 3683TIP3    H111055   5.972   4.424   4.125
 3683TIP3    H211056   6.067   4.307   4.111
 3684TIP3   OH211057   0.996  -0.004   0.921
 3684TIP3    H111058   1.009   0.091   0.927
 3684TIP3    H211059   0.902  -0.015   0.904
 3685TIP3   OH211060   5.310   0.617   3.683
 3685TIP3    H111061   5.289   0.566   3.761
 3685TIP3    H211062   5.230   0.613   3.630
 3686TIP3   OH211063   5.341   2.322   3.239
 3686TIP3    H111064   5.351   2.414   3.214
 3686TIP3    H211065   5.419   2.302   3.290
 3687TIP3   OH211066   0.362   2.485   4.081
 3687TIP3    H111067   0.451   2.464   4.110
 3687TIP3    H211068   0.312   2.405   4.097
 3688TIP3   OH211069   4.577   2.236   4.712
 3688TIP3    H111070   4.601   2.169   4.776
 3688TIP3    H211071   4.592   2.319   4.757
 3689TIP3   OH211072   2.025   5.814   2.248
 3689TIP3    H111073   2.072   5.826   2.331
 3689TIP3    H211074   1.941   5.776   2.273
 3690TIP3   OH211075   5.002   3.111   2.243
 3690TIP3    H111076   4.931   3.087   2.303
 3690TIP3    H211077   5.066   3.155   2.298
 3691TIP3   OH211078   4.279   4.248   2.794
 3691TIP3    H111079   4.358   4.302   2.788
 3691TIP3    H211080   4.218   4.290   2.732
 3692TIP3   OH211081   6.047   2.229   4.281
 3692TIP3    H111082   6.018   2.299   4.340
 3692TIP3    H211083   5.966   2.184   4.257
 3693TIP3   OH211084   4.218   3.358   4.900
 3693TIP3    H111085   4.286   3.290   4.900
 3693TIP3    H211086   4.137   3.309   4.887
 3694TIP3   OH211087   3.665   2.151   4.387
 3694TIP3    H111088   3.614   2.224   4.352
 3694TIP3    H211089   3.717   2.120   4.312
 3695TIP3   OH211090   5.940   1.568   3.021
 3695TIP3    H111091   5.978   1.582   3.108
 3695TIP3    H211092   5.939   1.655   2.981
 3696TIP3   OH211093   0.363   4.895   0.696
 3696TIP3    H111094   0.366   4.991   0.691
 3696TIP3    H211095   0.309   4.869   0.622
 3697TIP3   OH211096   1.302   4.179   2.147
 3697TIP3    H111097   1.319   4.099   2.098
 3697TIP3    H211098   1.376   4.236   2.127
 3698TIP3   OH211099   2.058   1.941   2.224
 3698TIP3    H111100   1.976   1.986   2.199
 3698TIP3    H211101   2.126   1.990   2.179
 3699TIP3   OH211102   3.239   3.654   4.056
 3699TIP3    H111103   3.168   3.667   3.993
 3699TIP3    H211104   3.267   3.742   4.080
 3700TIP3   OH211105   1.135   1.656   4.447
 3700TIP3    H111106   1.189   1.587   4.487
 3700TIP3    H211107   1.055   1.611   4.420
 3701TIP3   OH211108   1.292   4.538   4.014
 3701TIP3    H111109   1.203   4.524   3.980
 3701TIP3    H211110   1.349   4.512   3.942
 3702TIP3   OH211111   1.872   2.838   3.519
 3702TIP3    H111112   1.857   2.926   3.485
 3702TIP3    H211113   1.964   2.838   3.546
 3703TIP3   OH211114   0.651   4.766   0.710
 3703TIP3    H111115   0.681   4.799   0.625
 3703TIP3    H211116   0.560   4.795   0.716
 3704TIP3   OH211117   0.824   3.961   0.930
 3704TIP3    H111118   0.821   3.920   0.843
 3704TIP3    H211119   0.906   3.930   0.967
 3705TIP3   OH211120   3.444   2.354   3.244
 3705TIP3    H111121   3.469   2.268   3.279
 3705TIP3    H211122   3.349   2.352   3.238
 3706TIP3   OH211123   1.918   3.385   0.579
 3706TIP3    H111124   1.965   3.304   0.598
 3706TIP3    H211125   1.963   3.452   0.630
 3707TIP3   OH211126   5.088   5.609   0.174
 3707TIP3    H111127   5.089   5.514   0.166
 3707TIP3    H211128   5.084   5.641   0.084
 3708TIP3   OH211129   4.159   4.808   4.367
 3708TIP3    H111130   4.071   4.773   4.381
 3708TIP3    H211131   4.145   4.898   4.338
 3709TIP3   OH211132   4.217   2.444   5.129
 3709TIP3    H111133   4.292   2.486   5.172
 3709TIP3    H211134   4.212   2.357   5.170
 3710TIP3   OH211135   3.598   2.816   0.103
 3710TIP3    H111136   3.676   2.847   0.149
 3710TIP3    H211137   3.526   2.864   0.143
 3711TIP3   OH211138   3.088   2.381   0.560
 3711TIP3    H111139   3.065   2.470   0.533
 3711TIP3    H211140   3.078   2.329   0.480
 3712TIP3   OH211141   3.552   1.984   4.893
 3712TIP3    H111142   3.518   2.031   4.969
 3712TIP3    H211143   3.481   1.924   4.868
 3713TIP3   OH211144   5.747   3.016   3.316
 3713TIP3    H111145   5.823   2.995   3.370
 3713TIP3    H211146   5.761   3.107   3.289
 3714TIP3   OH211147   3.994   0.874   3.881
 3714TIP3    H111148   3.967   0.965   3.894
 3714TIP3    H211149   3.993   0.861   3.787
 3715TIP3   OH211150   5.983   3.605   1.875
 3715TIP3    H111151   5.982   3.566   1.962
 3715TIP3    H211152   6.051   3.557   1.828
 3716TIP3   OH211153   3.942   0.403   0.959
 3716TIP3    H111154   3.850   0.413   0.984
 3716TIP3    H211155   3.981   0.489   0.975
 3717TIP3   OH211156   1.196   1.713   0.796
 3717TIP3    H111157   1.246   1.644   0.840
 3717TIP3    H211158   1.154   1.668   0.722
 3718TIP3   OH211159   0.744   0.146   4.208
 3718TIP3    H111160   0.700   0.073   4.251
 3718TIP3    H211161   0.814   0.105   4.157
 3719TIP3   OH211162   0.379   1.855   2.386
 3719TIP3    H111163   0.384   1.923   2.319
 3719TIP3    H211164   0.335   1.898   2.460
 3720TIP3   OH211165   1.669   2.987   2.644
 3720TIP3    H111166   1.761   2.982   2.618
 3720TIP3    H211167   1.622   2.937   2.577
 3721TIP3   OH211168   6.388   2.336   2.941
 3721TIP3    H111169   6.416   2.291   3.020
 3721TIP3    H211170   6.292   2.333   2.944
 3722TIP3   OH211171   4.623   3.860   1.751
 3722TIP3    H111172   4.594   3.926   1.687
 3722TIP3    H211173   4.675   3.798   1.699
 3723TIP3   OH211174   0.907   0.463   4.984
 3723TIP3    H111175   0.835   0.407   5.012
 3723TIP3    H211176   0.920   0.441   4.892
 3724TIP3   OH211177   0.782   0.727   3.593
 3724TIP3    H111178   0.830   0.808   3.576
 3724TIP3    H211179   0.690   0.752   3.589
 3725TIP3   OH211180   2.937   3.609   0.981
 3725TIP3    H111181   3.003   3.542   0.998
 3725TIP3    H211182   2.973   3.689   1.021
 3726TIP3   OH211183   5.750   5.476   4.690
 3726TIP3    H111184   5.810   5.532   4.738
 3726TIP3    H211185   5.734   5.522   4.608
 3727TIP3   OH211186   3.060   5.804   5.088
 3727TIP3    H111187   2.988   5.777   5.144
 3727TIP3    H211188   3.084   5.891   5.119
 3728TIP3   OH211189   0.481   0.117   0.130
 3728TIP3    H111190   0.488   0.146   0.221
 3728TIP3    H211191   0.401   0.158   0.098
 3729TIP3   OH211192   2.236   2.578   0.179
 3729TIP3    H111193   2.214   2.669   0.199
 3729TIP3    H211194   2.265   2.541   0.262
 3730TIP3   OH211195   5.231   2.795   4.942
 3730TIP3    H111196   5.313   2.842   4.930
 3730TIP3    H211197   5.191   2.836   5.018
 3731TIP3   OH211198   5.076   1.726   4.549
 3731TIP3    H111199   5.126   1.647   4.527
 3731TIP3    H211200   5.083   1.732   4.644
 3732TIP3   OH211201   0.499   0.685   4.750
 3732TIP3    H111202   0.595   0.689   4.744
 3732TIP3    H211203   0.469   0.746   4.683
 3733TIP3   OH211204   0.721   0.232   5.015
 3733TIP3    H111205   0.677   0.270   5.091
 3733TIP3    H211206   0.704   0.138   5.022
 3734TIP3   OH211207   4.638   4.290   4.248
 3734TIP3    H111208   4.664   4.199   4.233
 3734TIP3    H211209   4.655   4.334   4.165
 3735TIP3   OH211210   5.880   1.538   1.552
 3735TIP3    H111211   5.813   1.604   1.537
 3735TIP3    H211212   5.919   1.523   1.466
 3736TIP3   OH211213   1.132   5.183   2.446
 3736TIP3    H111214   1.070   5.238   2.494
 3736TIP3    H211215   1.084   5.154   2.369
 3737TIP3   OH211216   1.370   0.156   3.912
 3737TIP3    H111217   1.465   0.163   3.923
 3737TIP3    H211218   1.350   0.067   3.941
 3738TIP3   OH211219   0.973   2.170   2.081
 3738TIP3    H111220   0.977   2.082   2.119
 3738TIP3    H211221   0.936   2.156   1.994
 3739TIP3   OH211222   2.554   4.203   3.019
 3739TIP3    H111223   2.585   4.260   3.089
 3739TIP3    H211224   2.501   4.136   3.064
 3740TIP3   OH211225   4.591   0.204   1.592
 3740TIP3    H111226   4.569   0.150   1.668
 3740TIP3    H211227   4.523   0.272   1.590
 3741TIP3   OH211228   4.676   2.638   4.933
 3741TIP3    H111229   4.659   2.547   4.958
 3741TIP3    H211230   4.747   2.666   4.991
 3742TIP3   OH211231   6.004   5.589   3.665
 3742TIP3    H111232   5.995   5.670   3.717
 3742TIP3    H211233   6.037   5.619   3.581
 3743TIP3   OH211234   0.718   2.267   0.580
 3743TIP3    H111235   0.701   2.223   0.497
 3743TIP3    H211236   0.647   2.236   0.638
 3744TIP3   OH211237   6.169   1.271   4.996
 3744TIP3    H111238   6.235   1.201   4.999
 3744TIP3    H211239   6.098   1.240   5.052
 3745TIP3   OH211240   4.736   2.601   4.220
 3745TIP3    H111241   4.732   2.693   4.246
 3745TIP3    H211242   4.714   2.602   4.127
 3746TIP3   OH211243   0.052   2.558   4.016
 3746TIP3    H111244   0.133   2.588   4.058
 3746TIP3    H211245   0.010   2.638   3.984
 3747TIP3   OH211246  -0.011   4.077   0.346
 3747TIP3    H111247  -0.037   4.101   0.435
 3747TIP3    H211248   0.043   3.999   0.357
 3748TIP3   OH211249   1.220   3.008   0.961
 3748TIP3    H111250   1.191   2.931   1.010
 3748TIP3    H211251   1.145   3.029   0.904
 3749TIP3   OH211252   1.278   3.081   4.486
 3749TIP3    H111253   1.270   3.047   4.576
 3749TIP3    H211254   1.188   3.090   4.456
 3750TIP3   OH211255   2.506   3.969   4.414
 3750TIP3    H111256   2.425   3.937   4.374
 3750TIP3    H211257   2.547   3.891   4.451
 3751TIP3   OH211258   1.516   0.899   1.480
 3751TIP3    H111259   1.484   0.819   1.522
 3751TIP3    H211260   1.479   0.895   1.391
 3752TIP3   OH211261   0.596   2.084   4.793
 3752TIP3    H111262   0.620   2.147   4.861
 3752TIP3    H211263   0.620   1.999   4.830
 3753TIP3   OH211264   4.946   3.093   3.207
 3753TIP3    H111265   5.031   3.073   3.168
 3753TIP3    H211266   4.897   3.135   3.137
 3754TIP3   OH211267   1.846   2.984   4.262
 3754TIP3    H111268   1.904   3.051   4.297
 3754TIP3    H211269   1.849   2.996   4.167
 3755TIP3   OH211270   3.386   5.284   4.116
 3755TIP3    H111271   3.302   5.285   4.069
 3755TIP3    H211272   3.365   5.316   4.203
 3756TIP3   OH211273   4.140   0.890   4.451
 3756TIP3    H111274   4.085   0.966   4.431
 3756TIP3    H211275   4.117   0.825   4.385
 3757TIP3   OH211276   2.974   0.715   0.548
 3757TIP3    H111277   2.985   0.653   0.619
 3757TIP3    H211278   2.896   0.766   0.571
 3758TIP3   OH211279   0.234   4.017   1.334
 3758TIP3    H111280   0.261   4.016   1.425
 3758TIP3    H211281   0.193   4.103   1.321
 3759TIP3   OH211282   3.668   4.793   1.509
 3759TIP3    H111283   3.712   4.834   1.584
 3759TIP3    H211284   3.658   4.864   1.446
 3760TIP3   OH211285   4.654   5.189   2.436
 3760TIP3    H111286   4.603   5.220   2.361
 3760TIP3    H211287   4.744   5.214   2.417
 3761TIP3   OH211288   3.050   5.275   5.232
 3761TIP3    H111289   3.013   5.320   5.155
 3761TIP3    H211290   3.030   5.333   5.305
 3762TIP3   OH211291   4.625   1.057   3.161
 3762TIP3    H111292   4.688   1.060   3.090
 3762TIP3    H211293   4.540   1.043   3.118
 3763TIP3   OH211294   2.215   5.304   2.613
 3763TIP3    H111295   2.249   5.317   2.702
 3763TIP3    H211296   2.169   5.385   2.593
 3764TIP3   OH211297   5.481   4.820   4.441
 3764TIP3    H111298   5.409   4.871   4.404
 3764TIP3    H211299   5.438   4.744   4.481
 3765TIP3   OH211300   4.275   5.332   3.838
 3765TIP3    H111301   4.320   5.326   3.754
 3765TIP3    H211302   4.342   5.312   3.904
 3766TIP3   OH211303   0.591   1.666   2.048
 3766TIP3    H111304   0.634   1.700   1.970
 3766TIP3    H211305   0.548   1.585   2.019
 3767TIP3   OH211306   1.673   4.737   4.465
 3767TIP3    H111307   1.650   4.813   4.411
 3767TIP3    H211308   1.653   4.661   4.409
 3768TIP3   OH211309   1.504   0.582   3.163
 3768TIP3    H111310   1.517   0.615   3.074
 3768TIP3    H211311   1.457   0.653   3.208
 3769TIP3   OH211312   4.906   1.080   0.372
 3769TIP3    H111313   4.906   0.986   0.387
 3769TIP3    H211314   4.984   1.096   0.320
 3770TIP3   OH211315   4.410   2.618   4.785
 3770TIP3    H111316   4.487   2.632   4.839
 3770TIP3    H211317   4.342   2.589   4.846
 3771TIP3   OH211318   2.618   5.392   0.666
 3771TIP3    H111319   2.674   5.464   0.694
 3771TIP3    H211320   2.542   5.398   0.723
 3772TIP3   OH211321   3.227   0.571   4.759
 3772TIP3    H111322   3.246   0.556   4.666
 3772TIP3    H211323   3.300   0.530   4.805
 3773TIP3   OH211324   0.594   5.152   0.640
 3773TIP3    H111325   0.662   5.208   0.603
 3773TIP3    H211326   0.512   5.187   0.603
 3774TIP3   OH211327   2.481   3.415   3.569
 3774TIP3    H111328   2.553   3.457   3.522
 3774TIP3    H211329   2.426   3.488   3.599
 3775TIP3   OH211330   1.603   2.283   2.533
 3775TIP3    H111331   1.521   2.236   2.546
 3775TIP3    H211332   1.670   2.215   2.531
 3776TIP3   OH211333   1.510   5.943   2.120
 3776TIP3    H111334   1.594   5.987   2.132
 3776TIP3    H211335   1.496   5.894   2.201
 3777TIP3   OH211336   2.962   5.136   3.429
 3777TIP3    H111337   2.920   5.222   3.433
 3777TIP3    H211338   3.048   5.149   3.469
 3778TIP3   OH211339   4.122   3.680   3.079
 3778TIP3    H111340   4.104   3.695   3.172
 3778TIP3    H211341   4.217   3.687   3.072
 3779TIP3   OH211342   3.088   5.328   2.840
 3779TIP3    H111343   3.097   5.257   2.776
 3779TIP3    H211344   3.010   5.375   2.811
 3780TIP3   OH211345   0.169   3.507   0.950
 3780TIP3    H111346   0.215   3.591   0.936
 3780TIP3    H211347   0.098   3.508   0.886
 3781TIP3   OH211348   1.589   1.971   1.743
 3781TIP3    H111349   1.499   1.951   1.769
 3781TIP3    H211350   1.625   2.022   1.815
 3782TIP3   OH211351   0.146   3.763   1.317
 3782TIP3    H111352   0.232   3.724   1.333
 3782TIP3    H211353   0.161   3.857   1.327
 3783TIP3   OH211354   1.105   0.861   1.388
 3783TIP3    H111355   1.037   0.927   1.371
 3783TIP3    H211356   1.142   0.886   1.473
 3784TIP3   OH211357   3.463   4.735   0.379
 3784TIP3    H111358   3.503   4.742   0.292
 3784TIP3    H211359   3.532   4.762   0.439
 3785TIP3   OH211360   2.472   2.482   4.571
 3785TIP3    H111361   2.501   2.482   4.480
 3785TIP3    H211362   2.550   2.457   4.621
 3786TIP3   OH211363   6.216   4.185   0.547
 3786TIP3    H111364   6.139   4.193   0.491
 3786TIP3    H211365   6.201   4.249   0.617
 3787TIP3   OH211366   4.836   2.805   0.133
 3787TIP3    H111367   4.836   2.773   0.224
 3787TIP3    H211368   4.767   2.872   0.132
 3788TIP3   OH211369   3.586   5.791   1.071
 3788TIP3    H111370   3.600   5.885   1.065
 3788TIP3    H211371   3.528   5.770   0.998
 3789TIP3   OH211372   6.274   1.713   4.934
 3789TIP3    H111373   6.267   1.632   4.883
 3789TIP3    H211374   6.288   1.781   4.868
 3790TIP3   OH211375   6.131   5.765   4.975
 3790TIP3    H111376   6.039   5.785   4.988
 3790TIP3    H211377   6.173   5.785   5.059
 3791TIP3   OH211378   2.972   1.950   0.977
 3791TIP3    H111379   2.945   2.037   1.006
 3791TIP3    H211380   3.053   1.965   0.929
 3792TIP3   OH211381   1.339   0.411   4.056
 3792TIP3    H111382   1.341   0.318   4.030
 3792TIP3    H211383   1.286   0.412   4.136
 3793TIP3   OH211384   4.413   5.351   0.606
 3793TIP3    H111385   4.438   5.309   0.524
 3793TIP3    H211386   4.426   5.284   0.673
 3794TIP3   OH211387   1.029   4.878   2.570
 3794TIP3    H111388   1.006   4.958   2.522
 3794TIP3    H211389   1.070   4.908   2.650
 3795TIP3   OH211390   6.287   4.338   4.889
 3795TIP3    H111391   6.197   4.307   4.881
 3795TIP3    H211392   6.340   4.258   4.890
 3796TIP3   OH211393   1.244   2.012   3.236
 3796TIP3    H111394   1.236   1.940   3.172
 3796TIP3    H211395   1.251   1.967   3.320
 3797TIP3   OH211396   2.514   4.951   0.603
 3797TIP3    H111397   2.561   5.009   0.663
 3797TIP3    H211398   2.519   4.865   0.644
 3798TIP3   OH211399   0.616   5.419   0.514
 3798TIP3    H111400   0.650   5.428   0.425
 3798TIP3    H211401   0.694   5.417   0.569
 3799TIP3   OH211402   6.058   2.335   4.552
 3799TIP3    H111403   6.038   2.252   4.597
 3799TIP3    H211404   6.077   2.396   4.623
 3800TIP3   OH211405   4.113   1.773   3.512
 3800TIP3    H111406   4.077   1.718   3.582
 3800TIP3    H211407   4.110   1.862   3.547
 3801TIP3   OH211408   1.953   5.905   3.859
 3801TIP3    H111409   2.033   5.905   3.911
 3801TIP3    H211410   1.956   5.988   3.810
 3802TIP3   OH211411   5.115   1.644   3.957
 3802TIP3    H111412   5.128   1.606   4.044
 3802TIP3    H211413   5.086   1.734   3.973
 3803TIP3   OH211414   4.388   0.383   3.383
 3803TIP3    H111415   4.303   0.348   3.408
 3803TIP3    H211416   4.430   0.408   3.465
 3804TIP3   OH211417   2.464   1.888   3.647
 3804TIP3    H111418   2.397   1.825   3.619
 3804TIP3    H211419   2.539   1.870   3.590
 3805TIP3   OH211420   3.431   1.347   3.920
 3805TIP3    H111421   3.486   1.385   3.990
 3805TIP3    H211422   3.456   1.255   3.917
 3806TIP3   OH211423   5.971   2.202   2.178
 3806TIP3    H111424   6.036   2.263   2.141
 3806TIP3    H211425   5.968   2.223   2.271
 3807TIP3   OH211426   3.560   2.576   3.166
 3807TIP3    H111427   3.519   2.493   3.192
 3807TIP3    H211428   3.622   2.596   3.235
 3808TIP3   OH211429   0.719   4.310   2.493
 3808TIP3    H111430   0.693   4.376   2.558
 3808TIP3    H211431   0.814   4.315   2.490
 3809TIP3   OH211432   0.821   1.665   4.572
 3809TIP3    H111433   0.903   1.651   4.620
 3809TIP3    H211434   0.752   1.653   4.637
 3810TIP3   OH211435   0.088   0.529   3.904
 3810TIP3    H111436   0.152   0.525   3.832
 3810TIP3    H211437   0.141   0.542   3.982
 3811TIP3   OH211438   1.792   5.584   0.669
 3811TIP3    H111439   1.872   5.596   0.720
 3811TIP3    H211440   1.739   5.662   0.689
 3812TIP3   OH211441   2.602   2.598   2.082
 3812TIP3    H111442   2.540   2.650   2.133
 3812TIP3    H211443   2.632   2.530   2.143
 3813TIP3   OH211444   5.809   3.064   4.827
 3813TIP3    H111445   5.746   3.016   4.774
 3813TIP3    H211446   5.768   3.072   4.913
 3814TIP3   OH211447   3.023   1.426   2.198
 3814TIP3    H111448   3.019   1.331   2.189
 3814TIP3    H211449   3.016   1.459   2.108
 3815TIP3   OH211450   0.961   1.703   3.802
 3815TIP3    H111451   0.880   1.654   3.784
 3815TIP3    H211452   1.001   1.657   3.875
 3816TIP3   OH211453   6.294   2.683   1.712
 3816TIP3    H111454   6.333   2.756   1.760
 3816TIP3    H211455   6.308   2.705   1.620
 3817TIP3   OH211456   5.158   3.951   3.015
 3817TIP3    H111457   5.185   4.042   3.008
 3817TIP3    H211458   5.099   3.948   3.090
 3818TIP3   OH211459   5.147   3.095   0.698
 3818TIP3    H111460   5.162   3.094   0.792
 3818TIP3    H211461   5.217   3.150   0.663
 3819TIP3   OH211462   1.263   4.820   4.296
 3819TIP3    H111463   1.354   4.831   4.322
 3819TIP3    H211464   1.221   4.904   4.318
 3820TIP3   OH211465   0.285   3.843   3.648
 3820TIP3    H111466   0.361   3.786   3.637
 3820TIP3    H211467   0.311   3.904   3.718
 3821TIP3   OH211468   4.791   1.485   0.465
 3821TIP3    H111469   4.724   1.418   0.478
 3821TIP3    H211470   4.742   1.564   0.443
 3822TIP3   OH211471   4.101   0.897   4.170
 3822TIP3    H111472   4.094   0.931   4.081
 3822TIP3    H211473   4.164   0.955   4.213
 3823TIP3   OH211474   3.675   4.795   4.083
 3823TIP3    H111475   3.714   4.803   3.996
 3823TIP3    H211476   3.659   4.702   4.094
 3824TIP3   OH211477   6.257   5.227   2.064
 3824TIP3    H111478   6.280   5.162   2.130
 3824TIP3    H211479   6.227   5.303   2.115
 3825TIP3   OH211480   2.789   4.052   0.320
 3825TIP3    H111481   2.792   4.127   0.261
 3825TIP3    H211482   2.710   4.065   0.372
 3826TIP3   OH211483   5.671   4.533   1.108
 3826TIP3    H111484   5.605   4.529   1.177
 3826TIP3    H211485   5.727   4.457   1.123
 3827TIP3   OH211486   4.984   1.308   0.905
 3827TIP3    H111487   4.909   1.356   0.869
 3827TIP3    H211488   5.047   1.376   0.927
 3828TIP3   OH211489   5.781   1.107   2.180
 3828TIP3    H111490   5.869   1.096   2.217
 3828TIP3    H211491   5.789   1.079   2.089
 3829TIP3   OH211492   3.988   0.136   2.749
 3829TIP3    H111493   3.957   0.218   2.712
 3829TIP3    H211494   3.924   0.113   2.815
 3830TIP3   OH211495   0.840   0.593   2.726
 3830TIP3    H111496   0.832   0.527   2.795
 3830TIP3    H211497   0.788   0.558   2.653
 3831TIP3   OH211498   2.825   2.839   0.707
 3831TIP3    H111499   2.801   2.929   0.683
 3831TIP3    H211500   2.897   2.817   0.647
 3832TIP3   OH211501   0.592   0.038   3.510
 3832TIP3    H111502   0.500   0.046   3.534
 3832TIP3    H211503   0.604  -0.055   3.490
 3833TIP3   OH211504   2.073   5.908   1.236
 3833TIP3    H111505   2.106   5.983   1.284
 3833TIP3    H211506   1.979   5.907   1.255
 3834TIP3   OH211507   2.702   4.744   3.870
 3834TIP3    H111508   2.762   4.675   3.844
 3834TIP3    H211509   2.718   4.756   3.964
 3835TIP3   OH211510   3.463   3.095   4.822
 3835TIP3    H111511   3.474   3.002   4.842
 3835TIP3    H211512   3.537   3.116   4.766
 3836TIP3   OH211513   1.267   2.073   2.865
 3836TIP3    H111514   1.292   2.016   2.937
 3836TIP3    H211515   1.190   2.031   2.827
 3837TIP3   OH211516   3.809   0.907   4.328
 3837TIP3    H111517   3.867   0.983   4.340
 3837TIP3    H211518   3.740   0.938   4.270
 3838TIP3   OH211519   3.390   2.158   3.461
 3838TIP3    H111520   3.338   2.080   3.442
 3838TIP3    H211521   3.335   2.209   3.520
 3839TIP3   OH211522   2.209   4.544   2.709
 3839TIP3    H111523   2.238   4.613   2.650
 3839TIP3    H211524   2.117   4.531   2.686
 3840TIP3   OH211525   2.368   4.199   4.164
 3840TIP3    H111526   2.411   4.212   4.249
 3840TIP3    H211527   2.399   4.272   4.110
 3841TIP3   OH211528   5.431   3.477   1.564
 3841TIP3    H111529   5.472   3.563   1.570
 3841TIP3    H211530   5.339   3.493   1.583
 3842TIP3   OH211531   5.361   4.949   2.584
 3842TIP3    H111532   5.372   4.874   2.642
 3842TIP3    H211533   5.450   4.982   2.570
 3843TIP3   OH211534   5.111   3.388   0.614
 3843TIP3    H111535   5.128   3.460   0.675
 3843TIP3    H211536   5.193   3.339   0.610
 3844TIP3   OH211537   2.671   2.205   4.280
 3844TIP3    H111538   2.619   2.146   4.227
 3844TIP3    H211539   2.762   2.183   4.259
 3845TIP3   OH211540   0.333   5.232   2.032
 3845TIP3    H111541   0.309   5.240   2.125
 3845TIP3    H211542   0.318   5.139   2.012
 3846TIP3   OH211543   2.191   5.651   2.980
 3846TIP3    H111544   2.142   5.596   2.919
 3846TIP3    H211545   2.125   5.712   3.015
 3847TIP3   OH211546   3.947   5.625   3.166
 3847TIP3    H111547   3.857   5.629   3.199
 3847TIP3    H211548   3.938   5.627   3.071
 3848TIP3   OH211549   3.665   0.061   1.699
 3848TIP3    H111550   3.721   0.124   1.653
 3848TIP3    H211551   3.627   0.110   1.771
 3849TIP3   OH211552   5.232   2.159   1.086
 3849TIP3    H111553   5.206   2.173   0.995
 3849TIP3    H211554   5.171   2.215   1.136
 3850TIP3   OH211555   0.341   5.730   2.132
 3850TIP3    H111556   0.373   5.700   2.047
 3850TIP3    H211557   0.416   5.722   2.191
 3851TIP3   OH211558   0.972   5.733   5.067
 3851TIP3    H111559   1.034   5.749   4.996
 3851TIP3    H211560   0.947   5.641   5.056
 3852TIP3   OH211561   0.944   1.753   0.908
 3852TIP3    H111562   0.917   1.843   0.890
 3852TIP3    H211563   1.030   1.746   0.867
 3853TIP3   OH211564   2.206   0.600   0.014
 3853TIP3    H111565   2.286   0.603   0.066
 3853TIP3    H211566   2.135   0.596   0.079
 3854TIP3   OH211567   1.814   3.470   0.112
 3854TIP3    H111568   1.765   3.540   0.070
 3854TIP3    H211569   1.802   3.394   0.055
 3855TIP3   OH211570   4.908   2.937   0.991
 3855TIP3    H111571   4.855   2.999   0.941
 3855TIP3    H211572   4.857   2.857   0.991
 3856TIP3   OH211573   1.416   0.907   1.196
 3856TIP3    H111574   1.486   0.895   1.131
 3856TIP3    H211575   1.357   0.971   1.156
 3857TIP3   OH211576   2.563   0.527   5.099
 3857TIP3    H111577   2.654   0.517   5.073
 3857TIP3    H211578   2.515   0.463   5.047
 3858TIP3   OH211579   2.713   4.385   1.688
 3858TIP3    H111580   2.718   4.389   1.592
 3858TIP3    H211581   2.728   4.475   1.716
 3859TIP3   OH211582   5.284   1.925   1.374
 3859TIP3    H111583   5.280   1.873   1.293
 3859TIP3    H211584   5.366   1.974   1.367
 3860TIP3   OH211585   4.613   3.379   4.057
 3860TIP3    H111586   4.543   3.314   4.051
 3860TIP3    H211587   4.667   3.364   3.980
 3861TIP3   OH211588   2.224   3.519   4.984
 3861TIP3    H111589   2.314   3.548   4.998
 3861TIP3    H211590   2.181   3.592   4.941
 3862TIP3   OH211591   4.885   0.964   3.817
 3862TIP3    H111592   4.816   0.905   3.788
 3862TIP3    H211593   4.866   1.047   3.773
 3863TIP3   OH211594   6.002   3.239   3.101
 3863TIP3    H111595   6.079   3.293   3.089
 3863TIP3    H211596   6.016   3.163   3.043
 3864TIP3   OH211597   5.884   0.719   1.121
 3864TIP3    H111598   5.857   0.787   1.059
 3864TIP3    H211599   5.809   0.710   1.180
 3865TIP3   OH211600   2.049   3.049   4.874
 3865TIP3    H111601   2.123   2.990   4.867
 3865TIP3    H211602   2.080   3.120   4.931
 3866TIP3   OH211603   4.044   0.425   4.576
 3866TIP3    H111604   4.035   0.515   4.607
 3866TIP3    H211605   4.138   0.407   4.582
 3867TIP3   OH211606   2.294   0.210   1.638
 3867TIP3    H111607   2.269   0.293   1.599
 3867TIP3    H211608   2.289   0.147   1.567
 3868TIP3   OH211609   2.574   1.062   3.588
 3868TIP3    H111610   2.497   1.108   3.623
 3868TIP3    H211611   2.543   1.021   3.508
 3869TIP3   OH211612   5.857   4.346   1.105
 3869TIP3    H111613   5.944   4.376   1.079
 3869TIP3    H211614   5.836   4.278   1.041
 3870TIP3   OH211615   5.223   5.610   4.278
 3870TIP3    H111616   5.312   5.578   4.264
 3870TIP3    H211617   5.235   5.703   4.300
 3871TIP3   OH211618   5.325   0.217   0.376
 3871TIP3    H111619   5.365   0.148   0.322
 3871TIP3    H211620   5.368   0.297   0.347
 3872TIP3   OH211621   1.285   2.341   0.393
 3872TIP3    H111622   1.252   2.336   0.483
 3872TIP3    H211623   1.212   2.375   0.342
 3873TIP3   OH211624   4.445   3.952   4.377
 3873TIP3    H111625   4.428   4.026   4.319
 3873TIP3    H211626   4.415   3.982   4.463
 3874TIP3   OH211627   6.031   3.654   2.934
 3874TIP3    H111628   5.973   3.730   2.943
 3874TIP3    H211629   5.983   3.593   2.878
 3875TIP3   OH211630   4.935   2.203   1.833
 3875TIP3    H111631   4.861   2.219   1.891
 3875TIP3    H211632   4.920   2.260   1.758
 3876TIP3   OH211633   5.048   5.050   0.287
 3876TIP3    H111634   4.986   5.037   0.359
 3876TIP3    H211635   4.993   5.055   0.209
 3877TIP3   OH211636   1.213   5.864   2.481
 3877TIP3    H111637   1.240   5.936   2.423
 3877TIP3    H211638   1.129   5.835   2.445
 3878TIP3   OH211639   4.378   4.794   2.734
 3878TIP3    H111640   4.419   4.847   2.665
 3878TIP3    H211641   4.381   4.850   2.812
 3879TIP3   OH211642   6.228   3.178   0.253
 3879TIP3    H111643   6.305   3.235   0.258
 3879TIP3    H211644   6.258   3.093   0.284
 3880TIP3   OH211645   0.606   5.506   3.026
 3880TIP3    H111646   0.521   5.463   3.017
 3880TIP3    H211647   0.661   5.464   2.960
 3881TIP3   OH211648   2.626   1.218   0.376
 3881TIP3    H111649   2.712   1.197   0.340
 3881TIP3    H211650   2.589   1.281   0.315
 3882TIP3   OH211651   0.258   4.332   0.442
 3882TIP3    H111652   0.193   4.311   0.375
 3882TIP3    H211653   0.209   4.331   0.524
 3883TIP3   OH211654   2.990   0.033   3.772
 3883TIP3    H111655   2.910  -0.003   3.809
 3883TIP3    H211656   2.966   0.122   3.744
 3884TIP3   OH211657   0.327   2.745   4.184
 3884TIP3    H111658   0.326   2.678   4.116
 3884TIP3    H211659   0.415   2.739   4.222
 3885TIP3   OH211660   3.199   2.820   4.837
 3885TIP3    H111661   3.181   2.727   4.825
 3885TIP3    H211662   3.280   2.823   4.888
 3886TIP3   OH211663   0.137   6.001   4.846
 3886TIP3    H111664   0.146   6.000   4.750
 3886TIP3    H211665   0.087   5.922   4.866
 3887TIP3   OH211666   3.745   1.208   1.334
 3887TIP3    H111667   3.721   1.195   1.426
 3887TIP3    H211668   3.804   1.283   1.335
 3888TIP3   OH211669   4.249   2.173   0.087
 3888TIP3    H111670   4.211   2.150   0.171
 3888TIP3    H211671   4.187   2.235   0.048
 3889TIP3   OH211672   4.202   0.164   2.398
 3889TIP3    H111673   4.228   0.217   2.473
 3889TIP3    H211674   4.257   0.086   2.402
 3890TIP3   OH211675   5.892   1.336   2.588
 3890TIP3    H111676   5.947   1.381   2.652
 3890TIP3    H211677   5.820   1.300   2.641
 3891TIP3   OH211678   2.087   0.027   1.201
 3891TIP3    H111679   2.144   0.018   1.277
 3891TIP3    H211680   2.048  -0.059   1.190
 3892TIP3   OH211681   0.762   1.493   3.799
 3892TIP3    H111682   0.697   1.491   3.729
 3892TIP3    H211683   0.786   1.401   3.812
 3893TIP3   OH211684   0.068   3.515   4.783
 3893TIP3    H111685   0.080   3.554   4.870
 3893TIP3    H211686  -0.026   3.498   4.778
 3894TIP3   OH211687   4.867   2.076   0.410
 3894TIP3    H111688   4.786   2.104   0.453
 3894TIP3    H211689   4.850   2.089   0.317
 3895TIP3   OH211690   3.697   5.551   0.979
 3895TIP3    H111691   3.644   5.621   1.018
 3895TIP3    H211692   3.636   5.502   0.925
 3896TIP3   OH211693   2.104   4.443   4.184
 3896TIP3    H111694   2.120   4.352   4.160
 3896TIP3    H211695   2.085   4.439   4.278
 3897TIP3   OH211696   4.371   3.489   1.546
 3897TIP3    H111697   4.359   3.498   1.640
 3897TIP3    H211698   4.462   3.518   1.531
 3898TIP3   OH211699   1.170   1.187   2.435
 3898TIP3    H111700   1.154   1.209   2.344
 3898TIP3    H211701   1.137   1.263   2.484
 3899TIP3   OH211702   0.347   2.167   2.970
 3899TIP3    H111703   0.413   2.154   2.903
 3899TIP3    H211704   0.286   2.094   2.958
 3900TIP3   OH211705   0.597   3.334   1.638
 3900TIP3    H111706   0.585   3.246   1.674
 3900TIP3    H211707   0.557   3.392   1.703
 3901TIP3   OH211708   1.709   1.728   1.723
 3901TIP3    H111709   1.695   1.716   1.817
 3901TIP3    H211710   1.657   1.806   1.701
 3902TIP3   OH211711   3.940   1.407   2.850
 3902TIP3    H111712   3.897   1.363   2.924
 3902TIP3    H211713   4.024   1.436   2.885
 3903TIP3   OH211714   1.448   4.526   1.896
 3903TIP3    H111715   1.379   4.591   1.913
 3903TIP3    H211716   1.516   4.575   1.851
 3904TIP3   OH211717   0.496   0.825   2.557
 3904TIP3    H111718   0.434   0.888   2.519
 3904TIP3    H211719   0.540   0.787   2.481
 3905TIP3   OH211720   2.007   4.443   1.689
 3905TIP3    H111721   2.062   4.461   1.765
 3905TIP3    H211722   2.065   4.456   1.614
 3906TIP3   OH211723   3.095   2.202   5.199
 3906TIP3    H111724   3.045   2.144   5.141
 3906TIP3    H211725   3.164   2.238   5.143
 3907TIP3   OH211726   0.128   2.254   3.174
 3907TIP3    H111727   0.219   2.226   3.167
 3907TIP3    H211728   0.093   2.205   3.249
 3908TIP3   OH211729   1.223   5.669   4.300
 3908TIP3    H111730   1.302   5.701   4.343
 3908TIP3    H211731   1.218   5.577   4.323
 3909TIP3   OH211732   5.517   0.368   0.686
 3909TIP3    H111733   5.473   0.306   0.745
 3909TIP3    H211734   5.445   0.412   0.640
 3910TIP3   OH211735   2.590   2.167   2.381
 3910TIP3    H111736   2.584   2.078   2.348
 3910TIP3    H211737   2.569   2.160   2.474
 3911TIP3   OH211738   3.324   3.916   2.994
 3911TIP3    H111739   3.246   3.958   2.957
 3911TIP3    H211740   3.355   3.978   3.061
 3912TIP3   OH211741   1.814   1.637   3.540
 3912TIP3    H111742   1.822   1.719   3.587
 3912TIP3    H211743   1.881   1.580   3.579
 3913TIP3   OH211744   0.816   5.921   4.937
 3913TIP3    H111745   0.871   5.855   4.979
 3913TIP3    H211746   0.787   5.977   5.009
 3914TIP3   OH211747   2.187   0.582   4.205
 3914TIP3    H111748   2.169   0.527   4.129
 3914TIP3    H211749   2.199   0.521   4.277
 3915TIP3   OH211750   0.221   4.289   3.262
 3915TIP3    H111751   0.225   4.216   3.323
 3915TIP3    H211752   0.288   4.270   3.197
 3916TIP3   OH211753   1.987   4.865   4.012
 3916TIP3    H111754   1.937   4.945   4.030
 3916TIP3    H211755   1.951   4.833   3.929
 3917TIP3   OH211756   1.666   0.635   2.565
 3917TIP3    H111757   1.756   0.664   2.551
 3917TIP3    H211758   1.618   0.713   2.593
 3918TIP3   OH211759   4.670   5.962   2.022
 3918TIP3    H111760   4.679   5.943   1.929
 3918TIP3    H211761   4.760   5.964   2.054
 3919TIP3   OH211762   0.260   0.772   3.286
 3919TIP3    H111763   0.221   0.711   3.349
 3919TIP3    H211764   0.306   0.837   3.340
 3920TIP3   OH211765   0.598   5.938   2.551
 3920TIP3    H111766   0.541   5.990   2.608
 3920TIP3    H211767   0.578   5.969   2.462
 3921TIP3   OH211768   6.148   2.911   1.315
 3921TIP3    H111769   6.077   2.961   1.274
 3921TIP3    H211770   6.104   2.855   1.379
 3922TIP3   OH211771   1.499   1.135   1.599
 3922TIP3    H111772   1.445   1.095   1.668
 3922TIP3    H211773   1.511   1.066   1.534
 3923TIP3   OH211774   2.395   1.606   2.808
 3923TIP3    H111775   2.447   1.596   2.888
 3923TIP3    H211776   2.331   1.675   2.830
 3924TIP3   OH211777   3.459   2.030   3.886
 3924TIP3    H111778   3.462   2.126   3.888
 3924TIP3    H211779   3.378   2.009   3.840
 3925TIP3   OH211780   4.270   4.145   3.066
 3925TIP3    H111781   4.251   4.169   2.975
 3925TIP3    H211782   4.269   4.228   3.114
 3926TIP3   OH211783   2.006   3.311   3.885
 3926TIP3    H111784   2.022   3.403   3.902
 3926TIP3    H211785   1.982   3.307   3.792
 3927TIP3   OH211786   5.461   5.935   2.313
 3927TIP3    H111787   5.479   5.996   2.385
 3927TIP3    H211788   5.424   5.990   2.244
 3928TIP3   OH211789   2.293   0.411   3.389
 3928TIP3    H111790   2.322   0.396   3.479
 3928TIP3    H211791   2.343   0.348   3.337
 3929TIP3   OH211792   4.566   1.339   1.012
 3929TIP3    H111793   4.501   1.273   1.036
 3929TIP3    H211794   4.647   1.310   1.055
 3930TIP3   OH211795   1.754   3.121   3.752
 3930TIP3    H111796   1.717   3.032   3.753
 3930TIP3    H211797   1.835   3.113   3.801
 3931TIP3   OH211798   4.998   4.053   2.257
 3931TIP3    H111799   5.019   4.120   2.193
 3931TIP3    H211800   5.083   4.024   2.291
 3932TIP3   OH211801   0.089   1.517   3.662
 3932TIP3    H111802   0.109   1.501   3.754
 3932TIP3    H211803  -0.006   1.526   3.659
 3933TIP3   OH211804   5.713   5.182   1.885
 3933TIP3    H111805   5.775   5.139   1.827
 3933TIP3    H211806   5.705   5.271   1.850
 3934TIP3   OH211807   5.952   3.945   2.985
 3934TIP3    H111808   6.031   3.924   3.034
 3934TIP3    H211809   5.947   4.041   2.987
 3935TIP3   OH211810   3.341   5.447   3.796
 3935TIP3    H111811   3.273   5.393   3.836
 3935TIP3    H211812   3.301   5.477   3.714
 3936TIP3   OH211813   1.090   3.974   4.433
 3936TIP3    H111814   1.013   3.947   4.482
 3936TIP3    H211815   1.161   3.976   4.498
 3937TIP3   OH211816   4.311   1.058   4.259
 3937TIP3    H111817   4.378   1.091   4.319
 3937TIP3    H211818   4.269   1.136   4.224
 3938TIP3   OH211819   3.945   4.484   0.939
 3938TIP3    H111820   3.854   4.496   0.913
 3938TIP3    H211821   3.943   4.407   0.996
 3939TIP3   OH211822   6.342   1.519   1.790
 3939TIP3    H111823   6.418   1.503   1.734
 3939TIP3    H211824   6.315   1.432   1.819
 3940TIP3   OH211825   5.680   4.048   1.847
 3940TIP3    H111826   5.732   3.980   1.889
 3940TIP3    H211827   5.631   4.089   1.918
 3941TIP3   OH211828   0.318   5.256   3.745
 3941TIP3    H111829   0.406   5.262   3.782
 3941TIP3    H211830   0.291   5.166   3.764
 3942TIP3   OH211831   3.518   2.282   1.418
 3942TIP3    H111832   3.515   2.291   1.513
 3942TIP3    H211833   3.609   2.300   1.394
 3943TIP3   OH211834   5.246   3.729   3.206
 3943TIP3    H111835   5.219   3.657   3.149
 3943TIP3    H211836   5.250   3.805   3.149
 3944TIP3   OH211837   2.637   3.023   2.869
 3944TIP3    H111838   2.612   2.936   2.838
 3944TIP3    H211839   2.720   3.011   2.914
 3945TIP3   OH211840   4.818   2.754   1.830
 3945TIP3    H111841   4.761   2.682   1.856
 3945TIP3    H211842   4.768   2.803   1.765
 3946TIP3   OH211843   1.088   3.641   2.623
 3946TIP3    H111844   1.034   3.591   2.685
 3946TIP3    H211845   1.111   3.721   2.670
 3947TIP3   OH211846   2.280   2.090   3.050
 3947TIP3    H111847   2.253   2.033   3.122
 3947TIP3    H211848   2.374   2.104   3.064
 3948TIP3   OH211849   3.767   2.798   2.516
 3948TIP3    H111850   3.816   2.819   2.437
 3948TIP3    H211851   3.771   2.878   2.569
 3949TIP3   OH211852   6.161   3.118   0.947
 3949TIP3    H111853   6.245   3.161   0.931
 3949TIP3    H211854   6.111   3.133   0.866
 3950TIP3   OH211855   2.516   1.907   2.357
 3950TIP3    H111856   2.470   1.834   2.397
 3950TIP3    H211857   2.481   1.911   2.268
 3951TIP3   OH211858   3.648   4.072   0.763
 3951TIP3    H111859   3.736   4.060   0.800
 3951TIP3    H211860   3.624   4.161   0.789
 3952TIP3   OH211861   3.299   0.126   4.930
 3952TIP3    H111862   3.359   0.172   4.989
 3952TIP3    H211863   3.348   0.115   4.849
 3953TIP3   OH211864   2.127   2.403  -0.001
 3953TIP3    H111865   2.056   2.366   0.052
 3953TIP3    H211866   2.172   2.463   0.059
 3954TIP3   OH211867   5.897   4.460   0.230
 3954TIP3    H111868   5.903   4.555   0.241
 3954TIP3    H211869   5.868   4.448   0.140
 3955TIP3   OH211870   4.575   4.965   4.446
 3955TIP3    H111871   4.506   5.029   4.463
 3955TIP3    H211872   4.655   5.007   4.478
 3956TIP3   OH211873   6.069   5.814   0.917
 3956TIP3    H111874   6.130   5.843   0.850
 3956TIP3    H211875   6.124   5.789   0.991
 3957TIP3   OH211876   0.463   1.759   0.656
 3957TIP3    H111877   0.386   1.785   0.604
 3957TIP3    H211878   0.515   1.839   0.664
 3958TIP3   OH211879   2.851   0.729   1.342
 3958TIP3    H111880   2.860   0.720   1.437
 3958TIP3    H211881   2.816   0.645   1.313
 3959TIP3   OH211882   1.850   4.991   0.804
 3959TIP3    H111883   1.821   4.932   0.735
 3959TIP3    H211884   1.849   5.078   0.763
 3960TIP3   OH211885   1.478   3.033   0.535
 3960TIP3    H111886   1.459   2.948   0.574
 3960TIP3    H211887   1.475   3.018   0.441
 3961TIP3   OH211888   4.954   5.885   0.837
 3961TIP3    H111889   4.931   5.978   0.834
 3961TIP3    H211890   4.948   5.855   0.746
 3962TIP3   OH211891   2.487   5.202   3.394
 3962TIP3    H111892   2.516   5.264   3.461
 3962TIP3    H211893   2.455   5.126   3.445
 3963TIP3   OH211894   1.111   3.334   4.618
 3963TIP3    H111895   1.203   3.339   4.590
 3963TIP3    H211896   1.115   3.304   4.708
 3964TIP3   OH211897   6.325   4.670   4.370
 3964TIP3    H111898   6.316   4.575   4.369
 3964TIP3    H211899   6.367   4.689   4.453
 3965TIP3   OH211900   0.927   1.966   0.690
 3965TIP3    H111901   1.011   1.983   0.733
 3965TIP3    H211902   0.862   1.981   0.759
 3966TIP3   OH211903   2.779   2.675   3.966
 3966TIP3    H111904   2.745   2.756   4.003
 3966TIP3    H211905   2.874   2.683   3.974
 3967TIP3   OH211906   1.470   0.552   2.029
 3967TIP3    H111907   1.486   0.575   2.120
 3967TIP3    H211908   1.449   0.459   2.031
 3968TIP3   OH211909   3.993   3.931   3.163
 3968TIP3    H111910   3.905   3.893   3.168
 3968TIP3    H211911   4.043   3.867   3.113
 3969TIP3   OH211912   4.829   4.118   3.331
 3969TIP3    H111913   4.743   4.141   3.294
 3969TIP3    H211914   4.847   4.188   3.395
 3970TIP3   OH211915   2.342   4.341   4.549
 3970TIP3    H111916   2.410   4.302   4.493
 3970TIP3    H211917   2.281   4.269   4.566
 3971TIP3   OH211918   1.271   1.101   3.767
 3971TIP3    H111919   1.327   1.157   3.713
 3971TIP3    H211920   1.302   1.012   3.750
 3972TIP3   OH211921   5.414   3.674   4.484
 3972TIP3    H111922   5.439   3.709   4.399
 3972TIP3    H211923   5.493   3.630   4.516
 3973TIP3   OH211924   5.175   5.953   2.612
 3973TIP3    H111925   5.096   5.903   2.630
 3973TIP3    H211926   5.149   6.044   2.623
 3974TIP3   OH211927   5.532   4.581   4.200
 3974TIP3    H111928   5.535   4.666   4.156
 3974TIP3    H211929   5.498   4.521   4.134
 3975TIP3   OH211930   5.808   5.553   3.437
 3975TIP3    H111931   5.737   5.516   3.385
 3975TIP3    H211932   5.868   5.591   3.373
 3976TIP3   OH211933   5.603   0.507   3.185
 3976TIP3    H111934   5.632   0.562   3.258
 3976TIP3    H211935   5.684   0.471   3.149
 3977TIP3   OH211936   4.974   3.156   1.660
 3977TIP3    H111937   5.036   3.172   1.731
 3977TIP3    H211938   5.016   3.088   1.606
 3978TIP3   OH211939   1.103   4.687   4.131
 3978TIP3    H111940   1.154   4.742   4.190
 3978TIP3    H211941   1.165   4.623   4.097
 3979TIP3   OH211942   2.739   1.944   4.440
 3979TIP3    H111943   2.808   1.878   4.447
 3979TIP3    H211944   2.711   1.941   4.349
 3980TIP3   OH211945   2.350   4.583   2.393
 3980TIP3    H111946   2.398   4.509   2.356
 3980TIP3    H211947   2.409   4.619   2.459
 3981TIP3   OH211948   2.961   0.302   1.424
 3981TIP3    H111949   2.939   0.394   1.441
 3981TIP3    H211950   3.057   0.300   1.430
 3982TIP3   OH211951   3.699   1.570   1.259
 3982TIP3    H111952   3.665   1.510   1.192
 3982TIP3    H211953   3.790   1.543   1.271
 3983TIP3   OH211954   0.686   2.962   4.238
 3983TIP3    H111955   0.744   3.014   4.293
 3983TIP3    H211956   0.637   3.026   4.187
 3984TIP3   OH211957   5.646   2.779   0.812
 3984TIP3    H111958   5.559   2.740   0.803
 3984TIP3    H211959   5.662   2.822   0.728
 3985TIP3   OH211960   6.094   5.803   4.291
 3985TIP3    H111961   6.062   5.893   4.295
 3985TIP3    H211962   6.042   5.761   4.222
 3986TIP3   OH211963   4.481   2.205   3.003
 3986TIP3    H111964   4.483   2.276   3.067
 3986TIP3    H211965   4.572   2.178   2.994
 3987TIP3   OH211966   5.872   4.243   1.791
 3987TIP3    H111967   5.796   4.187   1.805
 3987TIP3    H211968   5.947   4.186   1.808
 3988TIP3   OH211969   4.614   1.754   2.929
 3988TIP3    H111970   4.610   1.690   3.000
 3988TIP3    H211971   4.543   1.815   2.946
 3989TIP3   OH211972   6.082   4.114   5.124
 3989TIP3    H111973   6.118   4.029   5.099
 3989TIP3    H211974   6.085   4.166   5.043
 3990TIP3   OH211975   2.636   1.894   4.140
 3990TIP3    H111976   2.648   1.806   4.176
 3990TIP3    H211977   2.650   1.883   4.046
 3991TIP3   OH211978   4.782   5.250   1.806
 3991TIP3    H111979   4.856   5.297   1.767
 3991TIP3    H211980   4.704   5.296   1.774
 3992TIP3   OH211981   5.086   4.971   3.154
 3992TIP3    H111982   5.047   4.884   3.149
 3992TIP3    H211983   5.163   4.960   3.210
 3993TIP3   OH211984   0.136   1.683   5.132
 3993TIP3    H111985   0.105   1.686   5.041
 3993TIP3    H211986   0.103   1.600   5.166
 3994TIP3   OH211987   1.679   5.527   4.394
 3994TIP3    H111988   1.636   5.454   4.437
 3994TIP3    H211989   1.765   5.531   4.434
 3995TIP3   OH211990   4.663   2.184   3.378
 3995TIP3    H111991   4.630   2.212   3.463
 3995TIP3    H211992   4.695   2.264   3.336
 3996TIP3   OH211993   0.382   1.421   1.406
 3996TIP3    H111994   0.472   1.427   1.375
 3996TIP3    H211995   0.333   1.481   1.349
 3997TIP3   OH211996   3.302   2.614   0.244
 3997TIP3    H111997   3.258   2.699   0.241
 3997TIP3    H211998   3.302   2.591   0.337
 3998TIP3   OH211999   0.155   2.725   2.440
 3998TIP3    H112000   0.129   2.727   2.348
 3998TIP3    H212001   0.100   2.791   2.482
 3999TIP3   OH212002   2.334   0.656   2.533
 3999TIP3    H112003   2.361   0.747   2.539
 3999TIP3    H212004   2.240   0.660   2.512
 4000TIP3   OH212005   3.763   3.640   2.821
 4000TIP3    H112006   3.709   3.561   2.829
 4000TIP3    H212007   3.722   3.704   2.878
 4001TIP3   OH212008   1.059   5.481   0.214
 4001TIP3    H112009   1.105   5.537   0.277
 4001TIP3    H212010   1.101   5.501   0.130
 4002TIP3   OH212011   4.520   0.799   3.264
 4002TIP3    H112012   4.564   0.760   3.340
 4002TIP3    H212013   4.569   0.880   3.248
 4003TIP3   OH212014   4.193   2.902   1.476
 4003TIP3    H112015   4.253   2.881   1.404
 4003TIP3    H212016   4.249   2.939   1.544
 4004TIP3   OH212017   5.293   1.336   3.488
 4004TIP3    H112018   5.338   1.277   3.427
 4004TIP3    H212019   5.224   1.376   3.436
 4005TIP3   OH212020   2.393   5.524   3.146
 4005TIP3    H112021   2.353   5.580   3.080
 4005TIP3    H212022   2.388   5.576   3.227
 4006TIP3   OH212023   3.936   5.677   2.196
 4006TIP3    H112024   3.872   5.748   2.199
 4006TIP3    H212025   4.019   5.719   2.218
 4007TIP3   OH212026   0.891   3.566   1.131
 4007TIP3    H112027   0.836   3.489   1.141
 4007TIP3    H212028   0.936   3.553   1.047
 4008TIP3   OH212029   1.175   0.460   5.053
 4008TIP3    H112030   1.080   0.458   5.042
 4008TIP3    H212031   1.209   0.410   4.978
 4009TIP3   OH212032   2.105   1.874   0.730
 4009TIP3    H112033   2.068   1.791   0.760
 4009TIP3    H212034   2.198   1.856   0.718
 4010TIP3   OH212035   1.761   5.752   3.629
 4010TIP3    H112036   1.761   5.669   3.581
 4010TIP3    H212037   1.692   5.804   3.588
 4011TIP3   OH212038   0.942   4.148   3.744
 4011TIP3    H112039   0.893   4.116   3.820
 4011TIP3    H212040   1.005   4.079   3.725
 4012TIP3   OH212041   3.678   2.518   2.481
 4012TIP3    H112042   3.603   2.511   2.540
 4012TIP3    H212043   3.714   2.605   2.499
 4013TIP3   OH212044   1.888   2.040   3.458
 4013TIP3    H112045   1.924   1.959   3.421
 4013TIP3    H212046   1.855   2.014   3.544
 4014TIP3   OH212047   0.699   3.954   0.412
 4014TIP3    H112048   0.622   3.900   0.399
 4014TIP3    H212049   0.686   3.996   0.497
 4015TIP3   OH212050   3.260   5.296   3.271
 4015TIP3    H112051   3.250   5.201   3.280
 4015TIP3    H212052   3.195   5.332   3.332
 4016TIP3   OH212053   0.981   2.086   1.340
 4016TIP3    H112054   1.027   2.103   1.258
 4016TIP3    H212055   0.952   1.995   1.333
 4017TIP3   OH212056   3.449   4.197   3.961
 4017TIP3    H112057   3.540   4.166   3.956
 4017TIP3    H212058   3.423   4.208   3.870
 4018TIP3   OH212059   3.709   0.770   4.529
 4018TIP3    H112060   3.617   0.796   4.531
 4018TIP3    H212061   3.744   0.814   4.451
 4019TIP3   OH212062   3.907   3.809   1.388
 4019TIP3    H112063   3.955   3.890   1.368
 4019TIP3    H212064   3.976   3.743   1.400
 4020TIP3   OH212065   4.999   3.007   2.877
 4020TIP3    H112066   4.946   3.087   2.877
 4020TIP3    H212067   5.055   3.016   2.800
 4021TIP3   OH212068   4.655   1.746   0.473
 4021TIP3    H112069   4.657   1.841   0.464
 4021TIP3    H212070   4.591   1.717   0.408
 4022TIP3   OH212071   6.401   3.238   2.400
 4022TIP3    H112072   6.450   3.289   2.335
 4022TIP3    H212073   6.360   3.303   2.456
 4023TIP3   OH212074   5.737   0.883   3.263
 4023TIP3    H112075   5.809   0.845   3.213
 4023TIP3    H212076   5.779   0.927   3.337
 4024TIP3   OH212077   5.156   5.587   3.405
 4024TIP3    H112078   5.142   5.666   3.352
 4024TIP3    H212079   5.173   5.518   3.341
 4025TIP3   OH212080   4.696   1.133   1.671
 4025TIP3    H112081   4.690   1.144   1.766
 4025TIP3    H212082   4.613   1.093   1.646
 4026TIP3   OH212083   5.576   5.719   1.025
 4026TIP3    H112084   5.554   5.777   0.952
 4026TIP3    H212085   5.668   5.736   1.042
 4027TIP3   OH212086   6.093   0.202   3.489
 4027TIP3    H112087   6.140   0.134   3.441
 4027TIP3    H212088   6.033   0.155   3.546
 4028TIP3   OH212089   0.836   2.740   3.360
 4028TIP3    H112090   0.875   2.731   3.272
 4028TIP3    H212091   0.846   2.833   3.380
 4029TIP3   OH212092   3.439   0.088   4.421
 4029TIP3    H112093   3.351   0.121   4.438
 4029TIP3    H212094   3.469   0.056   4.506
 4030TIP3   OH212095   0.772   4.394   1.551
 4030TIP3    H112096   0.714   4.366   1.480
 4030TIP3    H212097   0.851   4.342   1.539
 4031TIP3   OH212098   1.446   0.327   3.227
 4031TIP3    H112099   1.354   0.330   3.254
 4031TIP3    H212100   1.472   0.419   3.222
 4032TIP3   OH212101   2.377   5.466   2.806
 4032TIP3    H112102   2.328   5.474   2.888
 4032TIP3    H212103   2.393   5.557   2.780
 4033TIP3   OH212104   1.903   2.368   2.904
 4033TIP3    H112105   1.997   2.357   2.918
 4033TIP3    H212106   1.872   2.280   2.880
 4034TIP3   OH212107   2.769   4.975   4.530
 4034TIP3    H112108   2.676   4.985   4.549
 4034TIP3    H212109   2.805   5.063   4.536
 4035TIP3   OH212110   1.375   5.250   1.885
 4035TIP3    H112111   1.450   5.213   1.931
 4035TIP3    H212112   1.412   5.286   1.805
 4036TIP3   OH212113   5.640   4.142   4.732
 4036TIP3    H112114   5.566   4.141   4.792
 4036TIP3    H212115   5.603   4.169   4.648
 4037TIP3   OH212116   3.453   4.722   3.183
 4037TIP3    H112117   3.425   4.779   3.255
 4037TIP3    H212118   3.526   4.769   3.142
 4038TIP3   OH212119   3.454   4.204   4.853
 4038TIP3    H112120   3.408   4.120   4.840
 4038TIP3    H212121   3.386   4.263   4.885
 4039TIP3   OH212122   1.621   4.659   4.987
 4039TIP3    H112123   1.621   4.653   4.892
 4039TIP3    H212124   1.550   4.600   5.015
 4040TIP3   OH212125   2.577   2.207   3.357
 4040TIP3    H112126   2.552   2.176   3.444
 4040TIP3    H212127   2.604   2.129   3.309
 4041TIP3   OH212128   3.840   5.492   1.997
 4041TIP3    H112129   3.830   5.587   2.004
 4041TIP3    H212130   3.761   5.456   2.039
 4042TIP3   OH212131   1.536   2.473   2.266
 4042TIP3    H112132   1.447   2.506   2.256
 4042TIP3    H212133   1.552   2.423   2.186
 4043TIP3   OH212134   6.251   5.155   3.109
 4043TIP3    H112135   6.309   5.231   3.118
 4043TIP3    H212136   6.239   5.123   3.198
 4044TIP3   OH212137   3.279   2.203   2.662
 4044TIP3    H112138   3.339   2.278   2.667
 4044TIP3    H212139   3.193   2.241   2.644
 4045TIP3   OH212140   5.214   2.679   2.071
 4045TIP3    H112141   5.221   2.604   2.011
 4045TIP3    H212142   5.125   2.712   2.058
 4046TIP3   OH212143   1.934   0.742   3.489
 4046TIP3    H112144   1.879   0.741   3.411
 4046TIP3    H212145   1.940   0.651   3.516
 4047TIP3   OH212146   1.281   4.258   3.736
 4047TIP3    H112147   1.233   4.339   3.747
 4047TIP3    H212148   1.262   4.207   3.815
 4048TIP3   OH212149   2.665   1.253   4.443
 4048TIP3    H112150   2.679   1.332   4.495
 4048TIP3    H212151   2.592   1.276   4.384
 4049TIP3   OH212152   3.164   5.433   1.259
 4049TIP3    H112153   3.149   5.481   1.177
 4049TIP3    H212154   3.257   5.443   1.275
 4050TIP3   OH212155   4.110   2.531   4.900
 4050TIP3    H112156   4.153   2.510   4.983
 4050TIP3    H212157   4.041   2.465   4.892
 4051TIP3   OH212158   3.357   1.416  -0.027
 4051TIP3    H112159   3.358   1.448   0.064
 4051TIP3    H212160   3.442   1.373  -0.037
 4052TIP3   OH212161   0.818   2.323   1.548
 4052TIP3    H112162   0.909   2.337   1.576
 4052TIP3    H212163   0.770   2.398   1.583
 4053TIP3   OH212164   2.117   4.960   2.816
 4053TIP3    H112165   2.200   4.975   2.770
 4053TIP3    H212166   2.079   5.047   2.826
 4054TIP3   OH212167   2.360   4.653   2.922
 4054TIP3    H112168   2.360   4.578   2.981
 4054TIP3    H212169   2.296   4.630   2.855
 4055TIP3   OH212170   5.901   2.767   1.289
 4055TIP3    H112171   5.855   2.728   1.363
 4055TIP3    H212172   5.950   2.695   1.250
 4056TIP3   OH212173   3.750   3.971   0.063
 4056TIP3    H112174   3.842   3.995   0.051
 4056TIP3    H212175   3.711   3.980  -0.025
 4057TIP3   OH212176   5.486   2.517   3.497
 4057TIP3    H112177   5.523   2.432   3.475
 4057TIP3    H212178   5.412   2.498   3.555
 4058TIP3   OH212179   3.453   2.966   0.281
 4058TIP3    H112180   3.491   3.053   0.268
 4058TIP3    H212181   3.440   2.960   0.375
 4059TIP3   OH212182   1.573   2.589   4.203
 4059TIP3    H112183   1.604   2.574   4.292
 4059TIP3    H212184   1.514   2.664   4.210
 4060TIP3   OH212185   2.325   3.062   3.326
 4060TIP3    H112186   2.257   3.006   3.289
 4060TIP3    H212187   2.323   3.141   3.273
 4061TIP3   OH212188   0.199   3.611   2.663
 4061TIP3    H112189   0.258   3.681   2.632
 4061TIP3    H212190   0.249   3.530   2.649
 4062TIP3   OH212191   2.933   5.656   4.891
 4062TIP3    H112192   2.856   5.710   4.872
 4062TIP3    H212193   2.983   5.705   4.956
 4063TIP3   OH212194   2.052   4.082   1.432
 4063TIP3    H112195   2.076   4.080   1.525
 4063TIP3    H212196   1.981   4.147   1.427
 4064TIP3   OH212197   5.887   4.339   4.498
 4064TIP3    H112198   5.975   4.376   4.507
 4064TIP3    H212199   5.856   4.371   4.413
 4065TIP3   OH212200   2.077   5.333   4.378
 4065TIP3    H112201   2.013   5.274   4.338
 4065TIP3    H212202   2.159   5.285   4.377
 4066TIP3   OH212203   3.164   5.776   0.252
 4066TIP3    H112204   3.159   5.768   0.157
 4066TIP3    H212205   3.153   5.687   0.285
 4067TIP3   OH212206   2.593   4.100   3.853
 4067TIP3    H112207   2.605   4.190   3.821
 4067TIP3    H212208   2.682   4.066   3.861
 4068TIP3   OH212209   0.679   3.708   1.219
 4068TIP3    H112210   0.720   3.626   1.192
 4068TIP3    H212211   0.752   3.769   1.230
 4069TIP3   OH212212   4.171   4.781   1.203
 4069TIP3    H112213   4.122   4.718   1.255
 4069TIP3    H212214   4.108   4.814   1.138
 4070TIP3   OH212215   2.071   2.083   3.986
 4070TIP3    H112216   2.003   2.087   4.053
 4070TIP3    H212217   2.110   1.996   3.995
 4071TIP3   OH212218   1.373   0.275   0.002
 4071TIP3    H112219   1.302   0.286   0.065
 4071TIP3    H212220   1.441   0.336   0.032
 4072TIP3   OH212221   4.071   5.385   3.620
 4072TIP3    H112222   4.121   5.381   3.701
 4072TIP3    H212223   4.123   5.442   3.563
 4073TIP3   OH212224   3.905   3.228   4.045
 4073TIP3    H112225   3.973   3.174   4.086
 4073TIP3    H212226   3.836   3.166   4.023
 4074TIP3   OH212227   5.659   0.073   2.307
 4074TIP3    H112228   5.588   0.116   2.260
 4074TIP3    H212229   5.706   0.024   2.240
 4075TIP3   OH212230   3.864   2.835   0.190
 4075TIP3    H112231   3.932   2.796   0.136
 4075TIP3    H212232   3.910   2.894   0.249
 4076TIP3   OH212233   0.055   5.380   0.488
 4076TIP3    H112234   0.020   5.323   0.556
 4076TIP3    H212235   0.142   5.404   0.520
 4077TIP3   OH212236   4.370   4.185   0.676
 4077TIP3    H112237   4.462   4.174   0.700
 4077TIP3    H212238   4.346   4.102   0.635
 4078TIP3   OH212239   4.613   1.694   2.657
 4078TIP3    H112240   4.684   1.736   2.608
 4078TIP3    H212241   4.616   1.736   2.743
 4079TIP3   OH212242   4.392   3.731   4.938
 4079TIP3    H112243   4.423   3.810   4.982
 4079TIP3    H212244   4.354   3.678   5.008
 4080TIP3   OH212245   1.986   3.286   3.597
 4080TIP3    H112246   1.906   3.300   3.547
 4080TIP3    H212247   2.035   3.367   3.587
 4081TIP3   OH212248   2.689   1.289   1.848
 4081TIP3    H112249   2.667   1.380   1.871
 4081TIP3    H212250   2.621   1.264   1.786
 4082TIP3   OH212251   2.323   1.741   4.031
 4082TIP3    H112252   2.244   1.687   4.025
 4082TIP3    H212253   2.396   1.678   4.021
 4083TIP3   OH212254   1.068   2.753   0.354
 4083TIP3    H112255   1.150   2.798   0.375
 4083TIP3    H212256   1.044   2.708   0.435
 4084TIP3   OH212257   3.545   0.487   5.150
 4084TIP3    H112258   3.631   0.503   5.110
 4084TIP3    H212259   3.536   0.392   5.150
 4085TIP3   OH212260   4.601   0.922   4.095
 4085TIP3    H112261   4.606   0.988   4.026
 4085TIP3    H212262   4.529   0.951   4.152
 4086TIP3   OH212263   5.316   4.625   4.947
 4086TIP3    H112264   5.258   4.551   4.929
 4086TIP3    H212265   5.378   4.591   5.012
 4087TIP3   OH212266   3.486   4.568   1.504
 4087TIP3    H112267   3.494   4.534   1.415
 4087TIP3    H212268   3.513   4.660   1.497
 4088TIP3   OH212269   1.787   2.202   1.866
 4088TIP3    H112270   1.780   2.296   1.853
 4088TIP3    H212271   1.811   2.167   1.780
 4089TIP3   OH212272   4.570   4.137   3.967
 4089TIP3    H112273   4.606   4.226   3.956
 4089TIP3    H212274   4.516   4.124   3.889
 4090TIP3   OH212275   5.942   2.392   1.814
 4090TIP3    H112276   6.008   2.325   1.836
 4090TIP3    H212277   5.913   2.369   1.726
 4091TIP3   OH212278   3.764   5.847   2.717
 4091TIP3    H112279   3.723   5.830   2.801
 4091TIP3    H212280   3.692   5.845   2.654
 4092TIP3   OH212281   4.463   2.885   4.632
 4092TIP3    H112282   4.448   2.843   4.717
 4092TIP3    H212283   4.447   2.817   4.568
 4093TIP3   OH212284   4.614   4.891   4.891
 4093TIP3    H112285   4.648   4.842   4.966
 4093TIP3    H212286   4.581   4.824   4.832
 4094TIP3   OH212287   2.224   2.165   4.271
 4094TIP3    H112288   2.214   2.239   4.331
 4094TIP3    H212289   2.136   2.150   4.237
 4095TIP3   OH212290   0.556   1.099   3.835
 4095TIP3    H112291   0.552   1.054   3.751
 4095TIP3    H212292   0.465   1.103   3.865
 4096TIP3   OH212293   5.251   4.305   4.806
 4096TIP3    H112294   5.263   4.229   4.750
 4096TIP3    H212295   5.265   4.272   4.895
 4097TIP3   OH212296   1.252   2.223   3.466
 4097TIP3    H112297   1.283   2.133   3.475
 4097TIP3    H212298   1.321   2.266   3.415
 4098TIP3   OH212299   0.522   2.689   0.664
 4098TIP3    H112300   0.495   2.712   0.752
 4098TIP3    H212301   0.457   2.729   0.607
 4099TIP3   OH212302   3.861   3.481   2.540
 4099TIP3    H112303   3.912   3.541   2.595
 4099TIP3    H212304   3.770   3.498   2.563
 4100TIP3   OH212305   4.065   2.876   0.716
 4100TIP3    H112306   4.009   2.830   0.778
 4100TIP3    H212307   4.012   2.949   0.685
 4101TIP3   OH212308   4.300   6.000   3.935
 4101TIP3    H112309   4.313   5.970   4.025
 4101TIP3    H212310   4.218   5.959   3.908
 4102TIP3   OH212311   0.424   1.755   1.613
 4102TIP3    H112312   0.400   1.843   1.584
 4102TIP3    H212313   0.379   1.743   1.697
 4103TIP3   OH212314   4.753   0.899   5.098
 4103TIP3    H112315   4.821   0.843   5.061
 4103TIP3    H212316   4.686   0.838   5.130
 4104TIP3   OH212317   2.997   3.295   4.450
 4104TIP3    H112318   3.091   3.300   4.436
 4104TIP3    H212319   2.988   3.252   4.536
 4105TIP3   OH212320   6.058   0.357   4.741
 4105TIP3    H112321   6.098   0.315   4.665
 4105TIP3    H212322   6.028   0.442   4.708
 4106TIP3   OH212323   0.620   3.052   0.655
 4106TIP3    H112324   0.532   3.015   0.650
 4106TIP3    H212325   0.650   3.031   0.743
 4107TIP3   OH212326   0.722   2.068   4.169
 4107TIP3    H112327   0.768   2.141   4.128
 4107TIP3    H212328   0.777   2.045   4.245
 4108TIP3   OH212329   0.961   4.196   2.275
 4108TIP3    H112330   1.003   4.173   2.193
 4108TIP3    H212331   0.991   4.131   2.338
 4109TIP3   OH212332   0.526   5.269   2.335
 4109TIP3    H112333   0.483   5.190   2.302
 4109TIP3    H212334   0.459   5.337   2.328
 4110TIP3   OH212335   4.109   4.076   0.410
 4110TIP3    H112336   4.035   4.044   0.462
 4110TIP3    H212337   4.087   4.167   0.392
 4111TIP3   OH212338   4.860   5.706   3.830
 4111TIP3    H112339   4.844   5.706   3.925
 4111TIP3    H212340   4.927   5.772   3.817
 4112TIP3   OH212341   3.867   4.532   4.445
 4112TIP3    H112342   3.960   4.554   4.457
 4112TIP3    H212343   3.841   4.584   4.368
 4113TIP3   OH212344   5.842   0.562   2.720
 4113TIP3    H112345   5.928   0.576   2.760
 4113TIP3    H212346   5.859   0.507   2.644
 4114TIP3   OH212347   2.375   4.890   4.447
 4114TIP3    H112348   2.457   4.914   4.405
 4114TIP3    H212349   2.357   4.801   4.415
 4115TIP3   OH212350   1.167   2.375   1.223
 4115TIP3    H112351   1.156   2.348   1.314
 4115TIP3    H212352   1.259   2.398   1.215
 4116TIP3   OH212353   4.185   3.488   2.883
 4116TIP3    H112354   4.244   3.544   2.934
 4116TIP3    H212355   4.220   3.399   2.896
 4117TIP3   OH212356   5.099   3.384   2.399
 4117TIP3    H112357   5.008   3.401   2.424
 4117TIP3    H212358   5.136   3.470   2.383
 4118TIP3   OH212359   2.049   0.793   3.747
 4118TIP3    H112360   2.104   0.869   3.767
 4118TIP3    H212361   2.032   0.799   3.654
 4119TIP3   OH212362   5.334   4.109   0.039
 4119TIP3    H112363   5.332   4.042   0.107
 4119TIP3    H212364   5.244   4.143   0.035
 4120TIP3   OH212365   4.026   1.790   1.173
 4120TIP3    H112366   4.078   1.816   1.249
 4120TIP3    H212367   4.069   1.711   1.140
 4121TIP3   OH212368   5.130   1.084   4.150
 4121TIP3    H112369   5.104   1.006   4.101
 4121TIP3    H212370   5.129   1.154   4.085
 4122TIP3   OH212371   3.178   3.187   3.443
 4122TIP3    H112372   3.268   3.195   3.412
 4122TIP3    H212373   3.125   3.189   3.363
 4123TIP3   OH212374   2.819   3.051   4.858
 4123TIP3    H112375   2.807   2.961   4.828
 4123TIP3    H212376   2.845   3.043   4.950
 4124TIP3   OH212377   1.898   4.786   0.316
 4124TIP3    H112378   1.900   4.695   0.284
 4124TIP3    H212379   1.926   4.838   0.240
 4125TIP3   OH212380   3.879   5.304   3.443
 4125TIP3    H112381   3.854   5.396   3.448
 4125TIP3    H212382   3.950   5.295   3.507
 4126TIP3   OH212383   5.293   4.546   0.812
 4126TIP3    H112384   5.297   4.613   0.743
 4126TIP3    H212385   5.326   4.590   0.890
 4127TIP3   OH212386   3.001   5.473   3.595
 4127TIP3    H112387   2.949   5.531   3.539
 4127TIP3    H212388   3.089   5.512   3.595
 4128TIP3   OH212389   5.724   4.274   3.989
 4128TIP3    H112390   5.799   4.215   3.985
 4128TIP3    H212391   5.675   4.256   3.908
 4129TIP3   OH212392   2.154   2.839   0.818
 4129TIP3    H112393   2.189   2.862   0.732
 4129TIP3    H212394   2.059   2.847   0.808
 4130TIP3   OH212395   6.001   4.091   3.256
 4130TIP3    H112396   5.906   4.092   3.256
 4130TIP3    H212397   6.025   4.001   3.279
 4131TIP3   OH212398   3.241   1.989   1.117
 4131TIP3    H112399   3.299   2.000   1.193
 4131TIP3    H212400   3.154   2.013   1.150
 4132TIP3   OH212401   1.075   2.628   0.580
 4132TIP3    H112402   1.045   2.679   0.655
 4132TIP3    H212403   1.167   2.608   0.599
 4133TIP3   OH212404   2.343   5.821   1.133
 4133TIP3    H112405   2.328   5.733   1.169
 4133TIP3    H212406   2.279   5.876   1.178
 4134TIP3   OH212407   5.239   5.538   0.391
 4134TIP3    H112408   5.187   5.567   0.317
 4134TIP3    H212409   5.326   5.573   0.374
 4135TIP3   OH212410   5.834   0.235   3.863
 4135TIP3    H112411   5.853   0.246   3.770
 4135TIP3    H212412   5.763   0.170   3.866
 4136TIP3   OH212413   5.822   1.589   5.132
 4136TIP3    H112414   5.742   1.540   5.114
 4136TIP3    H212415   5.807   1.676   5.095
 4137TIP3   OH212416   3.778   1.802   3.197
 4137TIP3    H112417   3.695   1.823   3.238
 4137TIP3    H212418   3.797   1.877   3.141
 4138TIP3   OH212419   5.142   4.328   3.886
 4138TIP3    H112420   5.110   4.315   3.975
 4138TIP3    H212421   5.109   4.252   3.837
 4139TIP3   OH212422   5.375   4.399   4.017
 4139TIP3    H112423   5.416   4.443   3.943
 4139TIP3    H212424   5.298   4.356   3.980
 4140TIP3   OH212425   5.437   2.995   1.982
 4140TIP3    H112426   5.372   2.973   2.049
 4140TIP3    H212427   5.403   3.074   1.940
 4141TIP3   OH212428   2.700   1.053   4.066
 4141TIP3    H112429   2.680   0.989   3.998
 4141TIP3    H212430   2.708   1.001   4.146
 4142TIP3   OH212431   2.677   0.499  -0.001
 4142TIP3    H112432   2.588   0.480  -0.031
 4142TIP3    H212433   2.695   0.432   0.065
 4143TIP3   OH212434   3.887   1.535   3.549
 4143TIP3    H112435   3.818   1.597   3.572
 4143TIP3    H212436   3.906   1.552   3.457
 4144TIP3   OH212437   3.985   4.175   3.324
 4144TIP3    H112438   3.944   4.132   3.399
 4144TIP3    H212439   3.969   4.116   3.250
 4145TIP3   OH212440   3.461   2.089   5.124
 4145TIP3    H112441   3.414   2.170   5.104
 4145TIP3    H212442   3.515   2.111   5.200
 4146TIP3   OH212443   5.009   1.149   4.675
 4146TIP3    H112444   5.029   1.157   4.582
 4146TIP3    H212445   5.001   1.239   4.706
 4147TIP3   OH212446   5.239   1.869   2.916
 4147TIP3    H112447   5.158   1.895   2.871
 4147TIP3    H212448   5.269   1.948   2.960
 4148TIP3   OH212449   0.642   0.724   3.213
 4148TIP3    H112450   0.673   0.667   3.283
 4148TIP3    H212451   0.601   0.798   3.258
 4149TIP3   OH212452   2.622   0.343   3.075
 4149TIP3    H112453   2.646   0.283   3.005
 4149TIP3    H212454   2.706   0.378   3.105
 4150TIP3   OH212455   3.160   1.445   0.781
 4150TIP3    H112456   3.242   1.469   0.826
 4150TIP3    H212457   3.095   1.442   0.851
 4151TIP3   OH212458   0.842   0.140   2.343
 4151TIP3    H112459   0.835   0.045   2.351
 4151TIP3    H212460   0.777   0.163   2.276
 4152TIP3   OH212461   4.594   4.221   3.231
 4152TIP3    H112462   4.623   4.304   3.194
 4152TIP3    H212463   4.522   4.244   3.290
 4153TIP3   OH212464   2.050   4.221   1.921
 4153TIP3    H112465   2.071   4.314   1.932
 4153TIP3    H212466   1.957   4.220   1.898
 4154TIP3   OH212467   3.472   1.860   1.916
 4154TIP3    H112468   3.551   1.876   1.967
 4154TIP3    H212469   3.427   1.790   1.963
 4155TIP3   OH212470   3.859   4.960   2.218
 4155TIP3    H112471   3.826   4.876   2.248
 4155TIP3    H212472   3.953   4.947   2.207
 4156TIP3   OH212473   4.132   3.156   3.888
 4156TIP3    H112474   4.132   3.154   3.984
 4156TIP3    H212475   4.130   3.064   3.862
 4157TIP3   OH212476   1.845   1.195   3.595
 4157TIP3    H112477   1.798   1.192   3.679
 4157TIP3    H212478   1.815   1.117   3.548
 4158TIP3   OH212479   5.462   4.170   4.223
 4158TIP3    H112480   5.556   4.163   4.209
 4158TIP3    H212481   5.430   4.219   4.148
 4159TIP3   OH212482   4.749   1.485   4.310
 4159TIP3    H112483   4.717   1.568   4.344
 4159TIP3    H212484   4.687   1.462   4.240
 4160TIP3   OH212485   0.781   5.045   3.355
 4160TIP3    H112486   0.823   5.021   3.272
 4160TIP3    H212487   0.750   5.134   3.341
 4161TIP3   OH212488   5.456   1.884   3.892
 4161TIP3    H112489   5.543   1.910   3.923
 4161TIP3    H212490   5.401   1.886   3.970
 4162TIP3   OH212491   2.291   0.248   4.165
 4162TIP3    H112492   2.287   0.312   4.094
 4162TIP3    H212493   2.287   0.163   4.120
 4163TIP3   OH212494   6.037   5.762   1.569
 4163TIP3    H112495   6.012   5.854   1.561
 4163TIP3    H212496   5.999   5.720   1.491
 4164TIP3   OH212497   3.166   4.604   2.069
 4164TIP3    H112498   3.222   4.560   2.133
 4164TIP3    H212499   3.224   4.665   2.024
 4165TIP3   OH212500   0.174   5.488   2.044
 4165TIP3    H112501   0.238   5.549   2.079
 4165TIP3    H212502   0.225   5.412   2.017
 4166TIP3   OH212503   2.841   4.274   1.934
 4166TIP3    H112504   2.799   4.319   1.861
 4166TIP3    H212505   2.810   4.184   1.927
 4167TIP3   OH212506   4.534   4.092   0.998
 4167TIP3    H112507   4.528   4.006   0.958
 4167TIP3    H212508   4.502   4.079   1.087
 4168TIP3   OH212509   4.352   2.595   2.977
 4168TIP3    H112510   4.422   2.570   2.917
 4168TIP3    H212511   4.321   2.512   3.013
 4169TIP3   OH212512   4.161   0.346   0.466
 4169TIP3    H112513   4.133   0.421   0.413
 4169TIP3    H212514   4.107   0.350   0.544
 4170TIP3   OH212515   1.076   1.494   2.247
 4170TIP3    H112516   1.099   1.405   2.221
 4170TIP3    H212517   1.012   1.483   2.317
 4171TIP3   OH212518   3.569   2.179   2.006
 4171TIP3    H112519   3.659   2.188   1.974
 4171TIP3    H212520   3.573   2.114   2.075
 4172TIP3   OH212521   5.148   1.447   3.773
 4172TIP3    H112522   5.204   1.497   3.714
 4172TIP3    H212523   5.133   1.506   3.847
 4173TIP3   OH212524   5.585   2.402   1.891
 4173TIP3    H112525   5.541   2.439   1.967
 4173TIP3    H212526   5.674   2.382   1.921
 4174TIP3   OH212527   4.025   1.786   2.933
 4174TIP3    H112528   3.979   1.869   2.938
 4174TIP3    H212529   3.985   1.740   2.860
 4175TIP3   OH212530   6.236   5.953   0.677
 4175TIP3    H112531   6.277   5.875   0.714
 4175TIP3    H212532   6.299   6.023   0.693
 4176TIP3   OH212533   2.151   3.248   5.041
 4176TIP3    H112534   2.080   3.267   5.103
 4176TIP3    H212535   2.195   3.332   5.029
 4177TIP3   OH212536   1.033   4.349   0.627
 4177TIP3    H112537   1.086   4.386   0.698
 4177TIP3    H212538   0.965   4.414   0.612
 4178TIP3   OH212539   4.296   0.243   3.036
 4178TIP3    H112540   4.280   0.329   3.074
 4178TIP3    H212541   4.373   0.210   3.083
 4179TIP3   OH212542   5.099   1.670   2.430
 4179TIP3    H112543   5.145   1.615   2.493
 4179TIP3    H212544   5.165   1.733   2.401
 4180TIP3   OH212545   0.911   5.398   0.968
 4180TIP3    H112546   0.824   5.370   0.940
 4180TIP3    H212547   0.938   5.463   0.903
 4181TIP3   OH212548   0.244   1.606   2.835
 4181TIP3    H112549   0.327   1.653   2.832
 4181TIP3    H212550   0.246   1.558   2.918
 4182TIP3   OH212551   3.759   1.009   0.235
 4182TIP3    H112552   3.725   0.940   0.179
 4182TIP3    H212553   3.792   1.076   0.175
 4183TIP3   OH212554   5.487   2.699   1.912
 4183TIP3    H112555   5.479   2.652   1.995
 4183TIP3    H212556   5.430   2.775   1.922
 4184TIP3   OH212557   1.048   0.328   3.486
 4184TIP3    H112558   0.971   0.285   3.524
 4184TIP3    H212559   1.122   0.274   3.515
 4185TIP3   OH212560   2.612   4.377   3.795
 4185TIP3    H112561   2.547   4.414   3.735
 4185TIP3    H212562   2.696   4.397   3.753
 4186TIP3   OH212563   4.553   3.230   3.359
 4186TIP3    H112564   4.599   3.149   3.338
 4186TIP3    H212565   4.617   3.282   3.407
 4187TIP3   OH212566   5.961   1.672   0.347
 4187TIP3    H112567   5.987   1.583   0.326
 4187TIP3    H212568   5.956   1.716   0.263
 4188TIP3   OH212569   5.817   3.375   1.957
 4188TIP3    H112570   5.890   3.402   2.012
 4188TIP3    H212571   5.857   3.343   1.876
 4189TIP3   OH212572   2.310   2.585   4.842
 4189TIP3    H112573   2.264   2.502   4.858
 4189TIP3    H212574   2.340   2.579   4.752
 4190TIP3   OH212575   4.129   0.665   0.668
 4190TIP3    H112576   4.225   0.666   0.673
 4190TIP3    H212577   4.109   0.698   0.580
 4191TIP3   OH212578   5.719   3.674   2.659
 4191TIP3    H112579   5.741   3.731   2.733
 4191TIP3    H212580   5.623   3.673   2.657
 4192TIP3   OH212581   2.795   2.457   2.255
 4192TIP3    H112582   2.888   2.466   2.236
 4192TIP3    H212583   2.790   2.389   2.321
 4193TIP3   OH212584   2.666   0.059   2.298
 4193TIP3    H112585   2.705   0.141   2.328
 4193TIP3    H212586   2.584   0.086   2.256
 4194TIP3   OH212587   4.508   1.023   2.355
 4194TIP3    H112588   4.424   1.011   2.400
 4194TIP3    H212589   4.495   0.986   2.268
 4195TIP3   OH212590   3.557   3.205   2.634
 4195TIP3    H112591   3.543   3.153   2.555
 4195TIP3    H212592   3.638   3.172   2.671
 4196TIP3   OH212593   1.972   3.759   4.522
 4196TIP3    H112594   1.879   3.751   4.501
 4196TIP3    H212595   1.989   3.687   4.582
 4197TIP3   OH212596   4.820   0.845   1.506
 4197TIP3    H112597   4.868   0.801   1.576
 4197TIP3    H212598   4.876   0.918   1.481
 4198TIP3   OH212599   0.081   5.367   3.246
 4198TIP3    H112600   0.049   5.455   3.266
 4198TIP3    H212601   0.115   5.334   3.329
 4199TIP3   OH212602   2.405   5.889   2.616
 4199TIP3    H112603   2.375   5.957   2.676
 4199TIP3    H212604   2.499   5.906   2.607
 4200TIP3   OH212605   3.613   2.786   3.760
 4200TIP3    H112606   3.620   2.707   3.815
 4200TIP3    H212607   3.600   2.752   3.672
 4201TIP3   OH212608   5.201   1.372   1.804
 4201TIP3    H112609   5.237   1.382   1.892
 4201TIP3    H212610   5.204   1.460   1.767
 4202TIP3   OH212611   0.837   0.909   4.140
 4202TIP3    H112612   0.913   0.876   4.187
 4202TIP3    H212613   0.848   0.875   4.051
 4203TIP3   OH212614   0.172   2.282   3.659
 4203TIP3    H112615   0.163   2.192   3.692
 4203TIP3    H212616   0.121   2.335   3.721
 4204TIP3   OH212617   4.074   4.091   2.064
 4204TIP3    H112618   4.022   4.171   2.056
 4204TIP3    H212619   4.117   4.099   2.149
 4205TIP3   OH212620   5.010   3.951   0.536
 4205TIP3    H112621   5.080   3.989   0.483
 4205TIP3    H212622   4.963   4.026   0.572
 4206TIP3   OH212623   6.230   5.134   0.892
 4206TIP3    H112624   6.265   5.218   0.921
 4206TIP3    H212625   6.303   5.090   0.849
 4207TIP3   OH212626   4.041   0.661   0.938
 4207TIP3    H112627   4.070   0.642   0.849
 4207TIP3    H212628   4.013   0.753   0.935
 4208TIP3   OH212629   0.641   3.925   4.422
 4208TIP3    H112630   0.719   3.931   4.477
 4208TIP3    H212631   0.633   3.832   4.402
 4209TIP3   OH212632   0.397   5.658   1.882
 4209TIP3    H112633   0.449   5.578   1.876
 4209TIP3    H212634   0.411   5.701   1.798
 4210TIP3   OH212635   2.606   0.844   4.808
 4210TIP3    H112636   2.658   0.923   4.796
 4210TIP3    H212637   2.613   0.799   4.723
 4211TIP3   OH212638   3.263   1.242   2.199
 4211TIP3    H112639   3.339   1.251   2.257
 4211TIP3    H212640   3.218   1.326   2.206
 4212TIP3   OH212641   0.425   0.915   0.728
 4212TIP3    H112642   0.395   1.006   0.724
 4212TIP3    H212643   0.395   0.883   0.813
 4213TIP3   OH212644   2.480   5.868   4.016
 4213TIP3    H112645   2.446   5.862   4.105
 4213TIP3    H212646   2.559   5.814   4.017
 4214TIP3   OH212647   5.494   1.098   0.852
 4214TIP3    H112648   5.473   1.145   0.772
 4214TIP3    H212649   5.456   1.151   0.922
 4215TIP3   OH212650   3.976   3.548   3.789
 4215TIP3    H112651   4.009   3.535   3.878
 4215TIP3    H212652   3.971   3.460   3.752
 4216TIP3   OH212653   2.868   5.350   4.995
 4216TIP3    H112654   2.885   5.444   4.992
 4216TIP3    H212655   2.783   5.342   5.039
 4217TIP3   OH212656   6.284   1.468   3.341
 4217TIP3    H112657   6.265   1.437   3.252
 4217TIP3    H212658   6.250   1.557   3.343
 4218TIP3   OH212659   1.247   2.350   4.753
 4218TIP3    H112660   1.295   2.387   4.679
 4218TIP3    H212661   1.194   2.280   4.715
 4219TIP3   OH212662   1.438   3.389   4.031
 4219TIP3    H112663   1.450   3.480   4.058
 4219TIP3    H212664   1.522   3.347   4.049
 4220TIP3   OH212665   3.197   3.025   4.617
 4220TIP3    H112666   3.128   3.081   4.655
 4220TIP3    H212667   3.213   2.959   4.684
 4221TIP3   OH212668   6.261   0.503   0.866
 4221TIP3    H112669   6.320   0.549   0.926
 4221TIP3    H212670   6.178   0.499   0.914
 4222TIP3   OH212671   4.192   3.105   2.045
 4222TIP3    H112672   4.245   3.058   1.981
 4222TIP3    H212673   4.225   3.076   2.130
 4223TIP3   OH212674   0.566   0.719   2.302
 4223TIP3    H112675   0.648   0.701   2.256
 4223TIP3    H212676   0.499   0.712   2.234
 4224TIP3   OH212677   1.847   4.390   0.547
 4224TIP3    H112678   1.771   4.334   0.563
 4224TIP3    H212679   1.895   4.347   0.476
 4225TIP3   OH212680   3.549   5.716   0.091
 4225TIP3    H112681   3.618   5.727   0.026
 4225TIP3    H212682   3.513   5.804   0.104
 4226TIP3   OH212683   2.702   5.155   1.906
 4226TIP3    H112684   2.610   5.129   1.910
 4226TIP3    H212685   2.713   5.217   1.978
 4227TIP3   OH212686   4.555   5.168   2.912
 4227TIP3    H112687   4.590   5.212   2.835
 4227TIP3    H212688   4.618   5.098   2.929
 4228TIP3   OH212689   3.078   5.666   1.816
 4228TIP3    H112690   3.097   5.661   1.722
 4228TIP3    H212691   3.059   5.576   1.842
 4229TIP3   OH212692   5.247   0.455   3.880
 4229TIP3    H112693   5.294   0.383   3.837
 4229TIP3    H212694   5.271   0.448   3.972
 4230TIP3   OH212695   6.155   4.366   0.744
 4230TIP3    H112696   6.153   4.373   0.839
 4230TIP3    H212697   6.099   4.437   0.713
 4231TIP3   OH212698   6.269   1.418   3.078
 4231TIP3    H112699   6.258   1.333   3.035
 4231TIP3    H212700   6.257   1.482   3.008
 4232TIP3   OH212701   3.945   3.123   1.799
 4232TIP3    H112702   3.958   3.153   1.889
 4232TIP3    H212703   4.027   3.145   1.754
 4233TIP3   OH212704   1.184   3.993   3.441
 4233TIP3    H112705   1.107   3.964   3.393
 4233TIP3    H212706   1.170   3.961   3.531
 4234TIP3   OH212707   4.544   0.163   2.727
 4234TIP3    H112708   4.469   0.180   2.784
 4234TIP3    H212709   4.620   0.168   2.784
 4235TIP3   OH212710   1.153   0.469   1.470
 4235TIP3    H112711   1.083   0.466   1.536
 4235TIP3    H212712   1.193   0.382   1.474
 4236TIP3   OH212713   4.725   0.494   3.540
 4236TIP3    H112714   4.780   0.420   3.514
 4236TIP3    H212715   4.771   0.534   3.613
 4237TIP3   OH212716   1.689   3.976   4.907
 4237TIP3    H112717   1.603   3.936   4.897
 4237TIP3    H212718   1.696   3.996   5.000
 4238TIP3   OH212719   4.177   1.181   3.550
 4238TIP3    H112720   4.201   1.109   3.607
 4238TIP3    H212721   4.086   1.200   3.572
 4239TIP3   OH212722   5.457   1.211   1.850
 4239TIP3    H112723   5.458   1.171   1.937
 4239TIP3    H212724   5.365   1.234   1.836
 4240TIP3   OH212725   1.653   2.121   3.036
 4240TIP3    H112726   1.561   2.117   3.010
 4240TIP3    H212727   1.668   2.211   3.063
 4241TIP3   OH212728   2.928   4.414   2.382
 4241TIP3    H112729   2.951   4.328   2.418
 4241TIP3    H212730   2.930   4.401   2.287
 4242TIP3   OH212731   0.347   2.739   0.032
 4242TIP3    H112732   0.254   2.729   0.011
 4242TIP3    H212733   0.392   2.718  -0.049
 4243TIP3   OH212734   1.172   5.080   0.505
 4243TIP3    H112735   1.254   5.041   0.477
 4243TIP3    H212736   1.147   5.138   0.433
 4244TIP3   OH212737   4.557   3.802   2.839
 4244TIP3    H112738   4.534   3.877   2.784
 4244TIP3    H212739   4.653   3.800   2.839
 4245TIP3   OH212740   4.756   3.122   0.818
 4245TIP3    H112741   4.784   3.190   0.756
 4245TIP3    H212742   4.692   3.164   0.874
 4246TIP3   OH212743   3.929   1.918   4.500
 4246TIP3    H112744   3.855   1.929   4.561
 4246TIP3    H212745   3.894   1.864   4.430
 4247TIP3   OH212746   5.330   4.073   2.676
 4247TIP3    H112747   5.398   4.110   2.732
 4247TIP3    H212748   5.262   4.140   2.672
 4248TIP3   OH212749   1.285   0.043   1.384
 4248TIP3    H112750   1.240  -0.035   1.351
 4248TIP3    H212751   1.363   0.009   1.428
 4249TIP3   OH212752   5.865   4.741   1.118
 4249TIP3    H112753   5.788   4.686   1.108
 4249TIP3    H212754   5.839   4.826   1.082
 4250TIP3   OH212755   1.308   2.628   1.957
 4250TIP3    H112756   1.233   2.586   1.999
 4250TIP3    H212757   1.280   2.718   1.941
 4251TIP3   OH212758   4.141   0.162   4.888
 4251TIP3    H112759   4.186   0.241   4.859
 4251TIP3    H212760   4.209   0.111   4.932
 4252TIP3   OH212761   4.416   4.751   4.416
 4252TIP3    H112762   4.470   4.827   4.394
 4252TIP3    H212763   4.326   4.783   4.411
 4253TIP3   OH212764   5.967   3.024   1.847
 4253TIP3    H112765   5.968   2.963   1.920
 4253TIP3    H212766   5.875   3.052   1.841
 4254TIP3   OH212767   5.528   4.839   4.117
 4254TIP3    H112768   5.468   4.899   4.160
 4254TIP3    H212769   5.502   4.839   4.025
 4255TIP3   OH212770   3.961   4.375   1.909
 4255TIP3    H112771   3.905   4.452   1.910
 4255TIP3    H212772   3.926   4.320   1.838
 4256TIP3   OH212773   0.514   3.372   3.917
 4256TIP3    H112774   0.576   3.443   3.937
 4256TIP3    H212775   0.441   3.417   3.874
 4257TIP3   OH212776   0.995   0.597   4.181
 4257TIP3    H112777   0.989   0.513   4.228
 4257TIP3    H212778   0.949   0.582   4.099
 4258TIP3   OH212779   1.791   1.950   3.907
 4258TIP3    H112780   1.744   1.920   3.830
 4258TIP3    H212781   1.846   2.022   3.876
 4259TIP3   OH212782   5.849   0.367   4.086
 4259TIP3    H112783   5.830   0.328   4.001
 4259TIP3    H212784   5.795   0.319   4.148
 4260TIP3   OH212785   5.943   0.982   0.704
 4260TIP3    H112786   5.945   1.015   0.614
 4260TIP3    H212787   6.018   1.024   0.747
 4261TIP3   OH212788   1.532   1.918   2.566
 4261TIP3    H112789   1.592   1.911   2.491
 4261TIP3    H212790   1.549   1.840   2.618
 4262TIP3   OH212791   2.342   4.967   2.661
 4262TIP3    H112792   2.290   4.897   2.623
 4262TIP3    H212793   2.370   5.019   2.586
 4263TIP3   OH212794   5.222   2.277   4.363
 4263TIP3    H112795   5.210   2.354   4.308
 4263TIP3    H212796   5.220   2.311   4.453
 4264TIP3   OH212797   4.330   3.922   0.576
 4264TIP3    H112798   4.425   3.916   0.570
 4264TIP3    H212799   4.298   3.895   0.490
 4265TIP3   OH212800   5.692   0.693   1.701
 4265TIP3    H112801   5.689   0.776   1.748
 4265TIP3    H212802   5.731   0.716   1.616
 4266TIP3   OH212803   3.376   4.226   2.872
 4266TIP3    H112804   3.397   4.278   2.949
 4266TIP3    H212805   3.291   4.186   2.892
 4267TIP3   OH212806   2.594   3.856   0.080
 4267TIP3    H112807   2.546   3.840  -0.001
 4267TIP3    H212808   2.528   3.882   0.143
 4268TIP3   OH212809   2.675   3.718   3.855
 4268TIP3    H112810   2.646   3.731   3.765
 4268TIP3    H212811   2.703   3.805   3.885
 4269TIP3   OH212812   0.079   1.281   4.719
 4269TIP3    H112813   0.166   1.245   4.701
 4269TIP3    H212814   0.024   1.203   4.728
 4270TIP3   OH212815   5.572   1.506   4.800
 4270TIP3    H112816   5.608   1.448   4.866
 4270TIP3    H212817   5.645   1.524   4.741
 4271TIP3   OH212818   2.673   5.652   2.643
 4271TIP3    H112819   2.610   5.713   2.681
 4271TIP3    H212820   2.688   5.686   2.555
 4272TIP3   OH212821   2.926   4.732   2.041
 4272TIP3    H112822   3.007   4.684   2.058
 4272TIP3    H212823   2.950   4.798   1.975
 4273TIP3   OH212824   1.382   5.899   3.466
 4273TIP3    H112825   1.424   5.816   3.446
 4273TIP3    H212826   1.446   5.965   3.439
 4274TIP3   OH212827   4.022   5.388   4.790
 4274TIP3    H112828   3.985   5.315   4.740
 4274TIP3    H212829   4.038   5.352   4.877
 4275TIP3   OH212830   1.666   3.958   3.954
 4275TIP3    H112831   1.694   3.867   3.952
 4275TIP3    H212832   1.701   3.996   3.873
 4276TIP3   OH212833   1.487   2.474   1.067
 4276TIP3    H112834   1.467   2.520   1.149
 4276TIP3    H212835   1.423   2.508   1.004
 4277TIP3   OH212836   3.703   2.813   5.103
 4277TIP3    H112837   3.723   2.768   5.185
 4277TIP3    H212838   3.752   2.895   5.108
 4278TIP3   OH212839   0.284   4.473   1.746
 4278TIP3    H112840   0.261   4.487   1.838
 4278TIP3    H212841   0.374   4.504   1.739
 4279TIP3   OH212842   1.757   3.968   3.536
 4279TIP3    H112843   1.689   3.982   3.470
 4279TIP3    H212844   1.730   3.888   3.581
 4280TIP3   OH212845   2.758   4.647   1.725
 4280TIP3    H112846   2.768   4.687   1.639
 4280TIP3    H212847   2.769   4.720   1.787
 4281TIP3   OH212848   2.748   5.539   3.061
 4281TIP3    H112849   2.772   5.542   2.968
 4281TIP3    H212850   2.707   5.624   3.078
 4282TIP3   OH212851   0.367   5.555   4.708
 4282TIP3    H112852   0.360   5.610   4.786
 4282TIP3    H212853   0.344   5.613   4.635
 4283TIP3   OH212854   5.394   3.018   4.413
 4283TIP3    H112855   5.388   3.007   4.318
 4283TIP3    H212856   5.307   2.996   4.445
 4284TIP3   OH212857   5.620   5.104   2.851
 4284TIP3    H112858   5.705   5.146   2.853
 4284TIP3    H212859   5.633   5.019   2.893
 4285TIP3   OH212860   3.074   5.110   2.673
 4285TIP3    H112861   3.037   5.024   2.694
 4285TIP3    H212862   3.158   5.090   2.631
 4286TIP3   OH212863   6.258   1.824   4.057
 4286TIP3    H112864   6.270   1.739   4.014
 4286TIP3    H212865   6.198   1.806   4.129
 4287TIP3   OH212866   5.718   2.578   1.408
 4287TIP3    H112867   5.730   2.515   1.337
 4287TIP3    H212868   5.696   2.524   1.484
 4288TIP3   OH212869   2.371   2.743   2.121
 4288TIP3    H112870   2.386   2.758   2.215
 4288TIP3    H212871   2.275   2.747   2.112
 4289TIP3   OH212872   3.881   5.645   0.379
 4289TIP3    H112873   3.900   5.593   0.457
 4289TIP3    H212874   3.960   5.639   0.326
 4290TIP3   OH212875   1.195   2.691   3.924
 4290TIP3    H112876   1.272   2.642   3.895
 4290TIP3    H212877   1.159   2.729   3.844
 4291TIP3   OH212878   4.281   6.007   4.489
 4291TIP3    H112879   4.317   5.921   4.466
 4291TIP3    H212880   4.191   6.005   4.456
 4292TIP3   OH212881   2.910   5.455   0.095
 4292TIP3    H112882   2.987   5.512   0.106
 4292TIP3    H212883   2.946   5.372   0.063
 4293TIP3   OH212884   5.055   2.091   1.450
 4293TIP3    H112885   5.003   2.016   1.480
 4293TIP3    H212886   5.143   2.056   1.437
 4294TIP3   OH212887   4.478   1.612   2.437
 4294TIP3    H112888   4.516   1.633   2.522
 4294TIP3    H212889   4.412   1.545   2.456
 4295TIP3   OH212890   5.327   0.070   3.209
 4295TIP3    H112891   5.321   0.127   3.286
 4295TIP3    H212892   5.355   0.128   3.138
 4296TIP3   OH212893   1.458   1.284   4.657
 4296TIP3    H112894   1.490   1.215   4.599
 4296TIP3    H212895   1.501   1.364   4.625
 4297TIP3   OH212896   4.012   5.264   0.326
 4297TIP3    H112897   4.064   5.307   0.258
 4297TIP3    H212898   4.044   5.302   0.408
 4298TIP3   OH212899   2.757   5.967   1.430
 4298TIP3    H112900   2.665   5.948   1.445
 4298TIP3    H212901   2.799   5.881   1.422
 4299TIP3   OH212902   2.651   0.108   3.669
 4299TIP3    H112903   2.589   0.171   3.707
 4299TIP3    H212904   2.737   0.147   3.683
 4300TIP3   OH212905   4.039   2.256   2.929
 4300TIP3    H112906   4.039   2.242   2.835
 4300TIP3    H212907   3.980   2.330   2.942
 4301TIP3   OH212908   3.965   0.230   0.217
 4301TIP3    H112909   4.033   0.205   0.155
 4301TIP3    H212910   3.992   0.317   0.249
 4302TIP3   OH212911   3.623   4.562   4.226
 4302TIP3    H112912   3.538   4.539   4.263
 4302TIP3    H212913   3.670   4.478   4.222
 4303TIP3   OH212914   1.481   0.406   1.494
 4303TIP3    H112915   1.524   0.487   1.466
 4303TIP3    H212916   1.484   0.410   1.590
 4304TIP3   OH212917   0.860   4.333   1.925
 4304TIP3    H112918   0.945   4.298   1.952
 4304TIP3    H212919   0.805   4.256   1.915
 4305TIP3   OH212920   5.654   2.360   4.283
 4305TIP3    H112921   5.648   2.432   4.221
 4305TIP3    H212922   5.724   2.386   4.343
 4306TIP3   OH212923   0.204   3.264   4.858
 4306TIP3    H112924   0.265   3.337   4.852
 4306TIP3    H212925   0.120   3.300   4.828
 4307TIP3   OH212926   1.588   0.046   2.140
 4307TIP3    H112927   1.640   0.051   2.220
 4307TIP3    H212928   1.585  -0.048   2.120
 4308TIP3   OH212929   2.881   1.197   0.993
 4308TIP3    H112930   2.852   1.286   0.970
 4308TIP3    H212931   2.806   1.142   0.972
 4309TIP3   OH212932   0.903   2.920   0.668
 4309TIP3    H112933   0.811   2.935   0.646
 4309TIP3    H212934   0.901   2.851   0.734
 4310TIP3   OH212935   5.544   3.269   3.845
 4310TIP3    H112936   5.544   3.278   3.749
 4310TIP3    H212937   5.486   3.195   3.862
 4311TIP3   OH212938   1.643   1.901   3.686
 4311TIP3    H112939   1.634   1.935   3.597
 4311TIP3    H212940   1.556   1.909   3.724
 4312TIP3   OH212941   3.759   1.053   2.537
 4312TIP3    H112942   3.834   1.077   2.592
 4312TIP3    H212943   3.775   1.099   2.454
 4313TIP3   OH212944   5.336   0.854   3.298
 4313TIP3    H112945   5.372   0.771   3.266
 4313TIP3    H212946   5.242   0.839   3.306
 4314TIP3   OH212947   0.647   3.656   4.406
 4314TIP3    H112948   0.668   3.595   4.335
 4314TIP3    H212949   0.634   3.600   4.483
 4315TIP3   OH212950   1.444   1.412   3.833
 4315TIP3    H112951   1.466   1.503   3.811
 4315TIP3    H212952   1.409   1.376   3.752
 4316TIP3   OH212953   3.263   2.246   0.994
 4316TIP3    H112954   3.222   2.165   0.962
 4316TIP3    H212955   3.331   2.265   0.929
 4317TIP3   OH212956   3.742   3.776   1.773
 4317TIP3    H112957   3.735   3.826   1.692
 4317TIP3    H212958   3.683   3.702   1.761
 4318TIP3   OH212959   2.734   3.284   2.793
 4318TIP3    H112960   2.706   3.198   2.823
 4318TIP3    H212961   2.662   3.315   2.738
 4319TIP3   OH212962   2.632   0.671   0.215
 4319TIP3    H112963   2.545   0.652   0.252
 4319TIP3    H212964   2.646   0.603   0.149
 4320TIP3   OH212965   4.342   3.405   4.242
 4320TIP3    H112966   4.386   3.443   4.166
 4320TIP3    H212967   4.349   3.473   4.310
 4321TIP3   OH212968   1.562   3.787   1.074
 4321TIP3    H112969   1.624   3.748   1.136
 4321TIP3    H212970   1.569   3.881   1.089
 4322TIP3   OH212971   6.166   3.278   2.018
 4322TIP3    H112972   6.121   3.218   2.077
 4322TIP3    H212973   6.171   3.230   1.935
 4323TIP3   OH212974   2.227   3.133   4.564
 4323TIP3    H112975   2.262   3.179   4.640
 4323TIP3    H212976   2.293   3.146   4.496
 4324TIP3   OH212977   1.544   5.425   3.593
 4324TIP3    H112978   1.520   5.332   3.600
 4324TIP3    H212979   1.489   5.469   3.658
 4325TIP3   OH212980   1.014   3.058   4.940
 4325TIP3    H112981   0.988   2.977   4.896
 4325TIP3    H212982   1.047   3.029   5.025
 4326TIP3   OH212983   4.228   3.365   1.319
 4326TIP3    H112984   4.271   3.385   1.235
 4326TIP3    H212985   4.298   3.373   1.384
 4327TIP3   OH212986   2.497   2.911   0.576
 4327TIP3    H112987   2.538   2.937   0.659
 4327TIP3    H212988   2.420   2.968   0.568
 4328TIP3   OH212989   3.347   1.207   3.494
 4328TIP3    H112990   3.395   1.124   3.497
 4328TIP3    H212991   3.256   1.182   3.512
 4329TIP3   OH212992   1.262   1.890   4.077
 4329TIP3    H112993   1.261   1.795   4.059
 4329TIP3    H212994   1.188   1.903   4.137
 4330TIP3   OH212995   5.186   5.831   0.283
 4330TIP3    H112996   5.148   5.769   0.222
 4330TIP3    H212997   5.170   5.793   0.370
 4331TIP3   OH212998   2.703   0.181   1.500
 4331TIP3    H112999   2.677   0.091   1.479
 4331TIP3    H213000   2.765   0.204   1.431
 4332TIP3   OH213001   6.003   2.033   3.133
 4332TIP3    H113002   5.952   2.073   3.063
 4332TIP3    H213003   5.938   1.989   3.188
 4333TIP3   OH213004   3.514   5.353   3.503
 4333TIP3    H113005   3.514   5.316   3.591
 4333TIP3    H213006   3.595   5.402   3.497
 4334TIP3   OH213007   0.466   0.314   2.251
 4334TIP3    H113008   0.389   0.287   2.201
 4334TIP3    H213009   0.539   0.300   2.191
 4335TIP3   OH213010   3.518   4.297   2.457
 4335TIP3    H113011   3.439   4.244   2.449
 4335TIP3    H213012   3.486   4.386   2.469
 4336TIP3   OH213013   2.873   3.320   1.273
 4336TIP3    H113014   2.877   3.273   1.356
 4336TIP3    H213015   2.834   3.405   1.295
 4337TIP3   OH213016   2.888   1.343   4.849
 4337TIP3    H113017   2.839   1.347   4.931
 4337TIP3    H213018   2.829   1.379   4.784
 4338TIP3   OH213019   3.576   5.022   4.192
 4338TIP3    H113020   3.597   4.939   4.149
 4338TIP3    H213021   3.623   5.088   4.140
 4339TIP3   OH213022   4.355   3.446   1.800
 4339TIP3    H113023   4.426   3.382   1.815
 4339TIP3    H213024   4.297   3.435   1.875
 4340TIP3   OH213025   4.237   0.995   1.813
 4340TIP3    H113026   4.144   0.990   1.835
 4340TIP3    H213027   4.273   1.061   1.872
 4341TIP3   OH213028   6.335   0.817   4.162
 4341TIP3    H113029   6.254   0.811   4.112
 4341TIP3    H213030   6.387   0.742   4.130
 4342TIP3   OH213031   1.772   0.361   2.177
 4342TIP3    H113032   1.783   0.401   2.091
 4342TIP3    H213033   1.692   0.401   2.212
 4343TIP3   OH213034   2.209   1.717   2.181
 4343TIP3    H113035   2.222   1.660   2.257
 4343TIP3    H213036   2.150   1.785   2.213
 4344TIP3   OH213037   3.505   4.542   3.972
 4344TIP3    H113038   3.536   4.528   4.061
 4344TIP3    H213039   3.413   4.516   3.973
 4345TIP3   OH213040   0.067   0.685   2.845
 4345TIP3    H113041   0.085   0.594   2.867
 4345TIP3    H213042   0.042   0.725   2.929
 4346TIP3   OH213043   4.347   4.369   3.808
 4346TIP3    H113044   4.387   4.453   3.787
 4346TIP3    H213045   4.279   4.357   3.742
 4347TIP3   OH213046   2.616   3.745   2.201
 4347TIP3    H113047   2.598   3.832   2.167
 4347TIP3    H213048   2.589   3.749   2.293
 4348TIP3   OH213049   0.718   1.693   2.650
 4348TIP3    H113050   0.710   1.763   2.586
 4348TIP3    H213051   0.782   1.633   2.613
 4349TIP3   OH213052   1.330   2.480   0.126
 4349TIP3    H113053   1.299   2.405   0.075
 4349TIP3    H213054   1.250   2.522   0.158
 4350TIP3   OH213055   3.841   5.720   0.807
 4350TIP3    H113056   3.755   5.760   0.799
 4350TIP3    H213057   3.838   5.671   0.889
 4351TIP3   OH213058   2.441   2.470   3.428
 4351TIP3    H113059   2.484   2.394   3.387
 4351TIP3    H213060   2.439   2.449   3.521
 4352TIP3   OH213061   2.655   4.402   0.523
 4352TIP3    H113062   2.663   4.456   0.444
 4352TIP3    H213063   2.603   4.455   0.584
 4353TIP3   OH213064   4.364   3.385   0.288
 4353TIP3    H113065   4.313   3.327   0.230
 4353TIP3    H213066   4.424   3.431   0.229
 4354TIP3   OH213067   3.001   3.896   2.052
 4354TIP3    H113068   2.978   3.896   2.145
 4354TIP3    H213069   2.923   3.931   2.008
 4355TIP3   OH213070   3.568   2.443   4.561
 4355TIP3    H113071   3.647   2.446   4.507
 4355TIP3    H213072   3.502   2.403   4.504
 4356TIP3   OH213073   0.829   2.902   0.334
 4356TIP3    H113074   0.893   2.832   0.352
 4356TIP3    H213075   0.751   2.856   0.304
 4357TIP3   OH213076   6.176   2.027   1.442
 4357TIP3    H113077   6.218   2.074   1.515
 4357TIP3    H213078   6.248   2.004   1.384
 4358TIP3   OH213079   6.071   1.676   0.916
 4358TIP3    H113080   6.058   1.698   0.823
 4358TIP3    H213081   6.031   1.590   0.926
 4359TIP3   OH213082   5.862   0.777   4.141
 4359TIP3    H113083   5.895   0.762   4.230
 4359TIP3    H213084   5.817   0.695   4.118
 4360TIP3   OH213085   5.639   4.621   4.769
 4360TIP3    H113086   5.573   4.578   4.714
 4360TIP3    H213087   5.697   4.551   4.797
 4361TIP3   OH213088   2.035   0.445   2.303
 4361TIP3    H113089   2.025   0.376   2.238
 4361TIP3    H213090   1.968   0.510   2.279
 4362TIP3   OH213091   2.731   0.650   2.072
 4362TIP3    H113092   2.701   0.578   2.016
 4362TIP3    H213093   2.667   0.654   2.143
 4363TIP3   OH213094   6.096   3.254   2.586
 4363TIP3    H113095   6.117   3.163   2.608
 4363TIP3    H213096   6.006   3.267   2.618
 4364TIP3   OH213097   4.435   2.427   2.090
 4364TIP3    H113098   4.395   2.462   2.011
 4364TIP3    H213099   4.435   2.332   2.078
 4365TIP3   OH213100   6.074   3.787   3.980
 4365TIP3    H113101   6.149   3.845   3.995
 4365TIP3    H213102   6.111   3.712   3.935
 4366TIP3   OH213103   1.213   3.302   2.934
 4366TIP3    H113104   1.239   3.278   3.023
 4366TIP3    H213105   1.295   3.310   2.886
 4367TIP3   OH213106   0.481   5.909   2.862
 4367TIP3    H113107   0.443   5.846   2.801
 4367TIP3    H213108   0.535   5.857   2.921
 4368TIP3   OH213109   4.496   1.891   1.855
 4368TIP3    H113110   4.469   1.866   1.944
 4368TIP3    H213111   4.538   1.812   1.821
 4369TIP3   OH213112   5.424   5.088   4.848
 4369TIP3    H113113   5.459   5.061   4.763
 4369TIP3    H213114   5.449   5.180   4.856
 4370TIP3   OH213115   1.963   5.473   4.603
 4370TIP3    H113116   1.972   5.436   4.691
 4370TIP3    H213117   2.002   5.407   4.545
 4371TIP3   OH213118   2.182   4.103   4.582
 4371TIP3    H113119   2.089   4.095   4.559
 4371TIP3    H213120   2.219   4.017   4.565
 4372TIP3   OH213121   4.163   0.465   3.824
 4372TIP3    H113122   4.126   0.478   3.911
 4372TIP3    H213123   4.257   0.459   3.839
 4373TIP3   OH213124   1.570   5.584   5.095
 4373TIP3    H113125   1.584   5.491   5.111
 4373TIP3    H213126   1.619   5.629   5.163
 4374TIP3   OH213127   5.633   3.497   4.611
 4374TIP3    H113128   5.604   3.420   4.562
 4374TIP3    H213129   5.576   3.500   4.688
 4375TIP3   OH213130   5.295   4.411   0.387
 4375TIP3    H113131   5.357   4.339   0.387
 4375TIP3    H213132   5.329   4.473   0.322
 4376TIP3   OH213133   5.326   5.409   2.164
 4376TIP3    H113134   5.396   5.472   2.179
 4376TIP3    H213135   5.369   5.333   2.126
 4377TIP3   OH213136   1.276   3.536   1.399
 4377TIP3    H113137   1.345   3.488   1.444
 4377TIP3    H213138   1.217   3.565   1.469
 4378TIP3   OH213139   0.161   4.258   1.149
 4378TIP3    H113140   0.140   4.349   1.171
 4378TIP3    H213141   0.236   4.265   1.089
 4379TIP3   OH213142   0.491   1.412   0.834
 4379TIP3    H113143   0.534   1.492   0.866
 4379TIP3    H213144   0.554   1.342   0.852
 4380TIP3   OH213145   5.811   4.896   3.781
 4380TIP3    H113146   5.855   4.981   3.789
 4380TIP3    H213147   5.870   4.834   3.823
 4381TIP3   OH213148   0.776   4.090   2.921
 4381TIP3    H113149   0.791   4.179   2.889
 4381TIP3    H213150   0.702   4.058   2.870
 4382TIP3   OH213151   4.281   2.045   4.687
 4382TIP3    H113152   4.279   2.132   4.649
 4382TIP3    H213153   4.234   1.990   4.624
 4383TIP3   OH213154   5.755   4.112   1.389
 4383TIP3    H113155   5.717   4.121   1.301
 4383TIP3    H213156   5.704   4.041   1.429
 4384TIP3   OH213157   1.355   4.772   3.106
 4384TIP3    H113158   1.313   4.850   3.071
 4384TIP3    H213159   1.449   4.788   3.095
 4385TIP3   OH213160   5.233   1.451   3.149
 4385TIP3    H113161   5.164   1.424   3.210
 4385TIP3    H213162   5.307   1.475   3.205
 4386TIP3   OH213163   2.785   4.713   4.670
 4386TIP3    H113164   2.878   4.715   4.648
 4386TIP3    H213165   2.745   4.666   4.596
 4387TIP3   OH213166   0.253   0.474   2.003
 4387TIP3    H113167   0.225   0.386   2.027
 4387TIP3    H213168   0.239   0.479   1.908
 4388TIP3   OH213169   5.444   0.345   1.301
 4388TIP3    H113170   5.486   0.422   1.339
 4388TIP3    H213171   5.365   0.379   1.260
 4389TIP3   OH213172   3.426   0.289   1.622
 4389TIP3    H113173   3.465   0.364   1.668
 4389TIP3    H213174   3.487   0.270   1.551
 4390TIP3   OH213175   3.188   5.147   1.186
 4390TIP3    H113176   3.146   5.116   1.267
 4390TIP3    H213177   3.159   5.237   1.176
 4391TIP3   OH213178   4.276   3.193   1.001
 4391TIP3    H113179   4.295   3.100   0.987
 4391TIP3    H213180   4.192   3.194   1.048
 4392TIP3   OH213181   1.971   0.772   5.192
 4392TIP3    H113182   1.979   0.866   5.180
 4392TIP3    H213183   1.917   0.743   5.119
 4393TIP3   OH213184   1.741   3.113   0.578
 4393TIP3    H113185   1.749   3.164   0.659
 4393TIP3    H213186   1.647   3.106   0.562
 4394TIP3   OH213187   0.724   0.192   3.798
 4394TIP3    H113188   0.706   0.176   3.705
 4394TIP3    H213189   0.639   0.187   3.841
 4395TIP3   OH213190   0.447   5.030   1.561
 4395TIP3    H113191   0.364   5.068   1.587
 4395TIP3    H213192   0.458   4.954   1.618
 4396TIP3   OH213193   4.569   4.042   1.546
 4396TIP3    H113194   4.653   4.077   1.578
 4396TIP3    H213195   4.544   4.101   1.475
 4397TIP3   OH213196   0.221   2.882   1.096
 4397TIP3    H113197   0.216   2.958   1.154
 4397TIP3    H213198   0.131   2.870   1.065
 4398TIP3   OH213199   4.437   3.188   3.116
 4398TIP3    H113200   4.443   3.094   3.136
 4398TIP3    H213201   4.486   3.230   3.187
 4399TIP3   OH213202   0.242   4.996   3.784
 4399TIP3    H113203   0.172   4.937   3.811
 4399TIP3    H213204   0.299   4.942   3.730
 4400TIP3   OH213205   2.291   0.360   1.318
 4400TIP3    H113206   2.231   0.304   1.367
 4400TIP3    H213207   2.354   0.300   1.280
 4401TIP3   OH213208   0.811   2.566   2.724
 4401TIP3    H113209   0.783   2.509   2.795
 4401TIP3    H213210   0.792   2.516   2.644
 4402TIP3   OH213211   0.043   0.684   1.008
 4402TIP3    H113212   0.120   0.637   1.041
 4402TIP3    H213213  -0.011   0.699   1.086
 4403TIP3   OH213214   1.330   3.492   0.432
 4403TIP3    H113215   1.379   3.569   0.404
 4403TIP3    H213216   1.373   3.463   0.513
 4404TIP3   OH213217   1.121   1.894   4.750
 4404TIP3    H113218   1.069   1.915   4.828
 4404TIP3    H213219   1.090   1.808   4.723
 4405TIP3   OH213220   5.694   5.280   0.966
 4405TIP3    H113221   5.683   5.222   1.040
 4405TIP3    H213222   5.611   5.328   0.960
 4406TIP3   OH213223   5.502   1.357   3.795
 4406TIP3    H113224   5.449   1.278   3.784
 4406TIP3    H213225   5.443   1.429   3.772
 4407TIP3   OH213226   1.180   2.090   2.353
 4407TIP3    H113227   1.239   2.093   2.428
 4407TIP3    H213228   1.213   2.156   2.293
 4408TIP3   OH213229   3.140   3.532   4.541
 4408TIP3    H113230   3.147   3.627   4.547
 4408TIP3    H213231   3.196   3.509   4.467
 4409TIP3   OH213232   0.215   0.192   2.080
 4409TIP3    H113233   0.223   0.141   2.000
 4409TIP3    H213234   0.211   0.127   2.150
 4410TIP3   OH213235   4.364   0.377   0.728
 4410TIP3    H113236   4.275   0.374   0.695
 4410TIP3    H213237   4.417   0.406   0.654
 4411TIP3   OH213238   1.021   2.833   4.391
 4411TIP3    H113239   0.984   2.892   4.325
 4411TIP3    H213240   0.987   2.747   4.367
 4412TIP3   OH213241   6.286   0.996   5.058
 4412TIP3    H113242   6.237   0.939   5.119
 4412TIP3    H213243   6.376   0.993   5.091
 4413TIP3   OH213244   0.573   5.389   4.915
 4413TIP3    H113245   0.492   5.341   4.899
 4413TIP3    H213246   0.550   5.454   4.982
 4414TIP3   OH213247   1.735   2.619   1.090
 4414TIP3    H113248   1.651   2.577   1.071
 4414TIP3    H213249   1.800   2.565   1.046
 4415TIP3   OH213250   5.047   1.581   0.949
 4415TIP3    H113251   4.970   1.591   1.005
 4415TIP3    H213252   5.026   1.630   0.869
 4416TIP3   OH213253   3.695   2.162   2.855
 4416TIP3    H113254   3.713   2.197   2.768
 4416TIP3    H213255   3.668   2.239   2.906
 4417TIP3   OH213256   6.131   1.649   1.195
 4417TIP3    H113257   6.076   1.715   1.237
 4417TIP3    H213258   6.108   1.652   1.103
 4418TIP3   OH213259   2.045   5.728   4.670
 4418TIP3    H113260   2.010   5.646   4.634
 4418TIP3    H213261   1.970   5.787   4.673
 4419TIP3   OH213262   0.433   4.507  -0.009
 4419TIP3    H113263   0.417   4.508   0.086
 4419TIP3    H213264   0.509   4.564  -0.021
 4420TIP3   OH213265   3.653   1.125   0.814
 4420TIP3    H113266   3.565   1.120   0.849
 4420TIP3    H213267   3.705   1.163   0.885
 4421TIP3   OH213268   5.537   5.376   3.736
 4421TIP3    H113269   5.522   5.309   3.669
 4421TIP3    H213270   5.471   5.443   3.718
 4422TIP3   OH213271   0.692   3.597   2.531
 4422TIP3    H113272   0.609   3.597   2.484
 4422TIP3    H213273   0.730   3.511   2.513
 4423TIP3   OH213274   4.650   2.556   3.196
 4423TIP3    H113275   4.697   2.473   3.206
 4423TIP3    H213276   4.705   2.609   3.139
 4424TIP3   OH213277   3.655   4.116   4.686
 4424TIP3    H113278   3.695   4.200   4.664
 4424TIP3    H213279   3.586   4.138   4.748
 4425TIP3   OH213280   5.778   1.918   3.976
 4425TIP3    H113281   5.804   1.839   4.023
 4425TIP3    H213282   5.793   1.989   4.038
 4426TIP3   OH213283   4.476   2.773   1.552
 4426TIP3    H113284   4.423   2.784   1.631
 4426TIP3    H213285   4.486   2.862   1.517
 4427TIP3   OH213286   5.731   5.184   3.832
 4427TIP3    H113287   5.778   5.189   3.915
 4427TIP3    H213288   5.777   5.245   3.774
 4428TIP3   OH213289   3.851   5.342   0.699
 4428TIP3    H113290   3.823   5.358   0.789
 4428TIP3    H213291   3.866   5.429   0.662
 4429TIP3   OH213292   1.734   4.468   4.696
 4429TIP3    H113293   1.762   4.513   4.616
 4429TIP3    H213294   1.792   4.502   4.764
 4430TIP3   OH213295   5.517   5.835   4.441
 4430TIP3    H113296   5.491   5.907   4.384
 4430TIP3    H213297   5.612   5.840   4.445
 4431TIP3   OH213298   4.089   5.608   5.083
 4431TIP3    H113299   4.155   5.563   5.136
 4431TIP3    H213300   4.014   5.549   5.081
 4432TIP3   OH213301   1.543   3.595   4.257
 4432TIP3    H113302   1.569   3.506   4.279
 4432TIP3    H213303   1.568   3.647   4.333
 4433TIP3   OH213304   4.301   3.240   2.885
 4433TIP3    H113305   4.352   3.239   2.966
 4433TIP3    H213306   4.324   3.157   2.842
 4434TIP3   OH213307   6.196   4.766   0.355
 4434TIP3    H113308   6.201   4.674   0.382
 4434TIP3    H213309   6.224   4.765   0.263
 4435TIP3   OH213310   0.418   5.539   2.340
 4435TIP3    H113311   0.375   5.566   2.421
 4435TIP3    H213312   0.512   5.539   2.362
 4436TIP3   OH213313   1.415   2.610   1.633
 4436TIP3    H113314   1.421   2.615   1.538
 4436TIP3    H213315   1.496   2.650   1.665
 4437TIP3   OH213316   5.634   3.913   4.462
 4437TIP3    H113317   5.670   3.836   4.417
 4437TIP3    H213318   5.665   3.987   4.411
 4438TIP3   OH213319   3.137   4.683   2.574
 4438TIP3    H113320   3.065   4.663   2.515
 4438TIP3    H213321   3.215   4.651   2.529
 4439TIP3   OH213322   5.171   2.240   0.796
 4439TIP3    H113323   5.179   2.187   0.717
 4439TIP3    H213324   5.236   2.310   0.785
 4440TIP3   OH213325   1.515   3.200   3.164
 4440TIP3    H113326   1.499   3.279   3.215
 4440TIP3    H213327   1.605   3.176   3.184
 4441TIP3   OH213328   2.781   4.785   3.177
 4441TIP3    H113329   2.779   4.792   3.081
 4441TIP3    H213330   2.731   4.860   3.208
 4442TIP3   OH213331   4.345   0.960   2.757
 4442TIP3    H113332   4.263   0.914   2.771
 4442TIP3    H213333   4.413   0.897   2.785
 4443TIP3   OH213334   5.718   2.667   3.492
 4443TIP3    H113335   5.670   2.596   3.534
 4443TIP3    H213336   5.769   2.624   3.423
 4444TIP3   OH213337   4.621   1.687   4.409
 4444TIP3    H113338   4.576   1.753   4.355
 4444TIP3    H213339   4.685   1.737   4.459
 4445TIP3   OH213340   1.063   1.681   0.461
 4445TIP3    H113341   1.028   1.648   0.378
 4445TIP3    H213342   1.082   1.603   0.512
 4446TIP3   OH213343   5.972   1.365   0.553
 4446TIP3    H113344   5.983   1.393   0.644
 4446TIP3    H213345   6.060   1.370   0.516
 4447TIP3   OH213346   3.674   0.359   2.462
 4447TIP3    H113347   3.767   0.383   2.462
 4447TIP3    H213348   3.638   0.402   2.539
 4448TIP3   OH213349   0.951   3.325   2.913
 4448TIP3    H113350   1.041   3.328   2.945
 4448TIP3    H213351   0.944   3.400   2.854
 4449TIP3   OH213352   2.853   4.491   3.658
 4449TIP3    H113353   2.930   4.466   3.608
 4449TIP3    H213354   2.873   4.465   3.748
 4450TIP3   OH213355   4.640   3.676   4.464
 4450TIP3    H113356   4.669   3.740   4.399
 4450TIP3    H213357   4.555   3.645   4.431
 4451TIP3   OH213358   1.743   4.107   3.166
 4451TIP3    H113359   1.685   4.036   3.192
 4451TIP3    H213360   1.722   4.124   3.075
 4452TIP3   OH213361   4.083   3.450   4.019
 4452TIP3    H113362   4.024   3.374   4.011
 4452TIP3    H213363   4.077   3.475   4.111
 4453TIP3   OH213364   3.881   4.988   0.252
 4453TIP3    H113365   3.825   4.986   0.330
 4453TIP3    H213366   3.940   5.062   0.267
 4454TIP3   OH213367   4.595   4.864   3.213
 4454TIP3    H113368   4.538   4.940   3.203
 4454TIP3    H213369   4.541   4.800   3.260
 4455TIP3   OH213370   0.844   4.211   0.050
 4455TIP3    H113371   0.799   4.128   0.063
 4455TIP3    H213372   0.795   4.275   0.102
 4456TIP3   OH213373   3.293   0.128   1.776
 4456TIP3    H113374   3.343   0.192   1.726
 4456TIP3    H213375   3.218   0.107   1.720
 4457TIP3   OH213376   5.916   1.785   0.083
 4457TIP3    H113377   5.846   1.846   0.062
 4457TIP3    H213378   5.984   1.802   0.018
 4458TIP3   OH213379   1.609   5.191   0.911
 4458TIP3    H113380   1.703   5.204   0.907
 4458TIP3    H213381   1.592   5.119   0.851
 4459TIP3   OH213382   5.936   0.101   2.625
 4459TIP3    H113383   5.923   0.009   2.649
 4459TIP3    H213384   5.851   0.129   2.591
 4460TIP3   OH213385   4.999   0.659   2.619
 4460TIP3    H113386   4.996   0.621   2.532
 4460TIP3    H213387   5.004   0.753   2.604
 4461TIP3   OH213388   2.555   5.412   5.156
 4461TIP3    H113389   2.577   5.451   5.241
 4461TIP3    H213390   2.576   5.319   5.166
 4462TIP3   OH213391   3.486   2.306   3.918
 4462TIP3    H113392   3.537   2.355   3.983
 4462TIP3    H213393   3.397   2.306   3.953
 4463TIP3   OH213394   0.144   5.729   2.378
 4463TIP3    H113395   0.137   5.642   2.417
 4463TIP3    H213396   0.205   5.718   2.305
 4464TIP3   OH213397   3.252   4.213   2.462
 4464TIP3    H113398   3.268   4.257   2.546
 4464TIP3    H213399   3.160   4.187   2.466
 4465TIP3   OH213400   1.230   0.625   3.859
 4465TIP3    H113401   1.165   0.588   3.800
 4465TIP3    H213402   1.280   0.549   3.890
 4466TIP3   OH213403   5.070   5.175   4.094
 4466TIP3    H113404   5.132   5.228   4.043
 4466TIP3    H213405   4.990   5.227   4.097
 4467TIP3   OH213406   3.259   3.922   0.171
 4467TIP3    H113407   3.272   3.857   0.102
 4467TIP3    H213408   3.347   3.957   0.188
 4468TIP3   OH213409   4.402   2.227   0.438
 4468TIP3    H113410   4.343   2.273   0.377
 4468TIP3    H213411   4.360   2.142   0.453
 4469TIP3   OH213412   5.134   4.352   2.331
 4469TIP3    H113413   5.079   4.415   2.285
 4469TIP3    H213414   5.134   4.274   2.274
 4470TIP3   OH213415   1.315   5.735   5.166
 4470TIP3    H113416   1.397   5.687   5.155
 4470TIP3    H213417   1.331   5.820   5.126
 4471TIP3   OH213418   1.283   3.149   3.990
 4471TIP3    H113419   1.206   3.204   3.975
 4471TIP3    H213420   1.356   3.211   3.998
 4472TIP3   OH213421   6.284   4.735   2.523
 4472TIP3    H113422   6.311   4.825   2.539
 4472TIP3    H213423   6.296   4.723   2.429
 4473TIP3   OH213424   1.617   0.147   4.017
 4473TIP3    H113425   1.621   0.226   4.072
 4473TIP3    H213426   1.597   0.077   4.079
 4474TIP3   OH213427   1.986   3.845   1.321
 4474TIP3    H113428   2.013   3.771   1.375
 4474TIP3    H213429   2.007   3.922   1.374
 4475TIP3   OH213430   2.693   1.251   2.828
 4475TIP3    H113431   2.751   1.313   2.872
 4475TIP3    H213432   2.724   1.165   2.856
 4476TIP3   OH213433   3.736   3.298   1.072
 4476TIP3    H113434   3.771   3.376   1.114
 4476TIP3    H213435   3.704   3.244   1.145
 4477TIP3   OH213436   0.771   5.885   0.495
 4477TIP3    H113437   0.721   5.952   0.543
 4477TIP3    H213438   0.705   5.828   0.457
 4478TIP3   OH213439   3.068   2.540   2.054
 4478TIP3    H113440   3.064   2.446   2.036
 4478TIP3    H213441   3.058   2.546   2.149
 4479TIP3   OH213442   3.450   0.480   4.127
 4479TIP3    H113443   3.360   0.477   4.095
 4479TIP3    H213444   3.458   0.402   4.182
 4480TIP3   OH213445   2.497   4.728   0.200
 4480TIP3    H113446   2.553   4.805   0.195
 4480TIP3    H213447   2.457   4.733   0.287
 4481TIP3   OH213448   1.067   6.022   4.628
 4481TIP3    H113449   1.090   5.956   4.693
 4481TIP3    H213450   1.131   6.092   4.642
 4482TIP3   OH213451   2.101   2.804   2.048
 4482TIP3    H113452   2.040   2.773   1.981
 4482TIP3    H213453   2.060   2.883   2.083
 4483TIP3   OH213454   4.916   3.284   1.248
 4483TIP3    H113455   4.963   3.204   1.225
 4483TIP3    H213456   4.898   3.326   1.164
 4484TIP3   OH213457   2.275   3.846   0.169
 4484TIP3    H113458   2.328   3.894   0.233
 4484TIP3    H213459   2.191   3.832   0.214
 4485TIP3   OH213460   5.353   3.745   1.760
 4485TIP3    H113461   5.399   3.731   1.678
 4485TIP3    H213462   5.340   3.839   1.765
 4486TIP3   OH213463   4.603   4.073   4.917
 4486TIP3    H113464   4.574   4.046   5.004
 4486TIP3    H213465   4.587   3.997   4.862
 4487TIP3   OH213466   3.670   1.089   2.132
 4487TIP3    H113467   3.665   1.118   2.041
 4487TIP3    H213468   3.643   1.166   2.183
 4488TIP3   OH213469   5.134   5.355   3.268
 4488TIP3    H113470   5.122   5.267   3.303
 4488TIP3    H213471   5.050   5.398   3.280
 4489TIP3   OH213472   0.069   4.353   0.216
 4489TIP3    H113473   0.023   4.269   0.223
 4489TIP3    H213474   0.059   4.379   0.125
 4490TIP3   OH213475   1.219   1.412   4.720
 4490TIP3    H113476   1.277   1.348   4.679
 4490TIP3    H213477   1.159   1.360   4.772
 4491TIP3   OH213478   4.111   4.697   0.847
 4491TIP3    H113479   4.186   4.649   0.812
 4491TIP3    H213480   4.072   4.637   0.910
 4492TIP3   OH213481   2.874   4.454   3.935
 4492TIP3    H113482   2.896   4.524   3.996
 4492TIP3    H213483   2.940   4.387   3.949
 4493TIP3   OH213484   2.186   0.756   2.790
 4493TIP3    H113485   2.094   0.773   2.810
 4493TIP3    H213486   2.199   0.665   2.818
 4494TIP3   OH213487   5.683   3.667   0.166
 4494TIP3    H113488   5.590   3.653   0.146
 4494TIP3    H213489   5.724   3.582   0.148
 4495TIP3   OH213490   4.336   0.348   2.574
 4495TIP3    H113491   4.423   0.385   2.563
 4495TIP3    H213492   4.341   0.295   2.652
 4496TIP3   OH213493   3.404   2.051   1.326
 4496TIP3    H113494   3.444   2.132   1.357
 4496TIP3    H213495   3.325   2.041   1.379
 4497TIP3   OH213496   2.466   5.998   1.808
 4497TIP3    H113497   2.559   6.018   1.813
 4497TIP3    H213498   2.462   5.903   1.803
 4498TIP3   OH213499   4.735   3.499   0.818
 4498TIP3    H113500   4.751   3.584   0.777
 4498TIP3    H213501   4.751   3.435   0.748
 4499TIP3   OH213502   5.688   0.466   0.042
 4499TIP3    H113503   5.601   0.432   0.061
 4499TIP3    H213504   5.672   0.549  -0.003
 4500TIP3   OH213505   0.340   1.206   1.060
 4500TIP3    H113506   0.338   1.300   1.047
 4500TIP3    H213507   0.349   1.170   0.971
 4501TIP3   OH213508   2.982   1.909   0.263
 4501TIP3    H113509   2.944   1.991   0.293
 4501TIP3    H213510   3.019   1.930   0.177
 4502TIP3   OH213511   5.272   5.738   4.574
 4502TIP3    H113512   5.321   5.761   4.653
 4502TIP3    H213513   5.333   5.754   4.502
 4503TIP3   OH213514   0.112   2.192   1.123
 4503TIP3    H113515   0.030   2.143   1.112
 4503TIP3    H213516   0.125   2.195   1.218
 4504TIP3   OH213517   0.366   3.411   5.134
 4504TIP3    H113518   0.272   3.392   5.132
 4504TIP3    H213519   0.407   3.340   5.085
 4505TIP3   OH213520   1.053   4.665   3.456
 4505TIP3    H113521   1.049   4.671   3.551
 4505TIP3    H213522   1.145   4.647   3.437
 4506TIP3   OH213523   3.513   1.542   4.105
 4506TIP3    H113524   3.452   1.592   4.158
 4506TIP3    H213525   3.501   1.575   4.016
 4507TIP3   OH213526   5.938   4.135   3.967
 4507TIP3    H113527   5.998   4.108   3.898
 4507TIP3    H213528   5.967   4.087   4.045
 4508TIP3   OH213529   3.476   0.354   3.868
 4508TIP3    H113530   3.517   0.320   3.948
 4508TIP3    H213531   3.476   0.449   3.879
 4509TIP3   OH213532   2.856   5.619   1.374
 4509TIP3    H113533   2.845   5.655   1.285
 4509TIP3    H213534   2.890   5.530   1.360
 4510TIP3   OH213535   3.014   4.540   3.267
 4510TIP3    H113536   3.054   4.469   3.316
 4510TIP3    H213537   2.930   4.556   3.311
 4511TIP3   OH213538   5.751   2.188   4.911
 4511TIP3    H113539   5.826   2.190   4.851
 4511TIP3    H213540   5.763   2.266   4.966
 4512TIP3   OH213541   6.142   4.178   3.783
 4512TIP3    H113542   6.226   4.204   3.821
 4512TIP3    H213543   6.162   4.103   3.727
 4513TIP3   OH213544   1.899   2.853   0.875
 4513TIP3    H113545   1.868   2.881   0.961
 4513TIP3    H213546   1.819   2.831   0.827
 4514TIP3   OH213547   0.223   5.504   3.635
 4514TIP3    H113548   0.273   5.430   3.671
 4514TIP3    H213549   0.174   5.539   3.709
 4515TIP3   OH213550   0.471   1.970   2.758
 4515TIP3    H113551   0.538   2.036   2.743
 4515TIP3    H213552   0.399   1.995   2.699
 4516TIP3   OH213553   4.519   3.083   0.535
 4516TIP3    H113554   4.427   3.104   0.550
 4516TIP3    H213555   4.553   3.155   0.482
 4517TIP3   OH213556   3.881   2.484   2.884
 4517TIP3    H113557   3.919   2.469   2.798
 4517TIP3    H213558   3.941   2.545   2.927
 4518TIP3   OH213559   5.233   5.481   4.671
 4518TIP3    H113560   5.191   5.448   4.592
 4518TIP3    H213561   5.248   5.574   4.654
 4519TIP3   OH213562   4.479   5.334   4.709
 4519TIP3    H113563   4.471   5.273   4.782
 4519TIP3    H213564   4.461   5.282   4.631
 4520TIP3   OH213565   4.337   5.220   1.682
 4520TIP3    H113566   4.255   5.268   1.672
 4520TIP3    H213567   4.349   5.174   1.599
 4521TIP3   OH213568   5.902   3.539   4.692
 4521TIP3    H113569   5.808   3.525   4.708
 4521TIP3    H213570   5.907   3.629   4.660
 4522TIP3   OH213571   0.927   5.480   4.983
 4522TIP3    H113572   0.879   5.434   4.914
 4522TIP3    H213573   1.018   5.452   4.972
 4523TIP3   OH213574   5.616   2.308   0.236
 4523TIP3    H113575   5.634   2.219   0.266
 4523TIP3    H213576   5.588   2.297   0.145
 4524TIP3   OH213577   5.974   5.253   5.117
 4524TIP3    H113578   5.993   5.169   5.075
 4524TIP3    H213579   5.926   5.229   5.196
 4525TIP3   OH213580   2.289   1.181   0.267
 4525TIP3    H113581   2.348   1.197   0.193
 4525TIP3    H213582   2.342   1.128   0.328
 4526TIP3   OH213583   6.245   0.078   4.846
 4526TIP3    H113584   6.239  -0.017   4.838
 4526TIP3    H213585   6.170   0.102   4.899
 4527TIP3   OH213586   1.660   1.956   4.304
 4527TIP3    H113587   1.753   1.940   4.292
 4527TIP3    H213588   1.643   1.935   4.396
 4528TIP3   OH213589   4.359   4.666   5.014
 4528TIP3    H113590   4.362   4.664   5.110
 4528TIP3    H213591   4.326   4.579   4.990
 4529TIP3   OH213592   2.066   5.690   1.062
 4529TIP3    H113593   2.159   5.672   1.045
 4529TIP3    H213594   2.065   5.781   1.093
 4530TIP3   OH213595   2.897   0.808   5.016
 4530TIP3    H113596   2.972   0.800   4.957
 4530TIP3    H213597   2.842   0.733   4.995
 4531TIP3   OH213598   2.803   1.212   5.135
 4531TIP3    H113599   2.858   1.210   5.213
 4531TIP3    H213600   2.757   1.128   5.135
 4532TIP3   OH213601   6.183   4.242   2.053
 4532TIP3    H113602   6.124   4.199   2.115
 4532TIP3    H213603   6.207   4.173   1.991
 4533TIP3   OH213604   1.963   0.769   4.136
 4533TIP3    H113605   2.041   0.715   4.150
 4533TIP3    H213606   1.997   0.858   4.131
 4534TIP3   OH213607   2.527   2.600   3.210
 4534TIP3    H113608   2.513   2.593   3.304
 4534TIP3    H213609   2.558   2.689   3.196
 4535TIP3   OH213610   4.586   2.740   3.395
 4535TIP3    H113611   4.649   2.707   3.458
 4535TIP3    H213612   4.602   2.690   3.316
 4536TIP3   OH213613   2.155   1.111   2.942
 4536TIP3    H113614   2.133   1.106   2.849
 4536TIP3    H213615   2.227   1.175   2.946
 4537TIP3   OH213616   1.639   0.320   0.961
 4537TIP3    H113617   1.707   0.321   0.894
 4537TIP3    H213618   1.676   0.268   1.032
 4538TIP3   OH213619   2.494   5.671   0.127
 4538TIP3    H113620   2.548   5.746   0.153
 4538TIP3    H213621   2.555   5.597   0.123
 4539TIP3   OH213622   3.279   2.201   0.621
 4539TIP3    H113623   3.208   2.266   0.624
 4539TIP3    H213624   3.359   2.254   0.611
 4540TIP3   OH213625   0.675   5.479   1.347
 4540TIP3    H113626   0.617   5.495   1.421
 4540TIP3    H213627   0.641   5.535   1.277
 4541TIP3   OH213628   3.934   1.879   0.920
 4541TIP3    H113629   3.890   1.804   0.878
 4541TIP3    H213630   3.935   1.856   1.013
 4542TIP3   OH213631   0.691   3.640   3.084
 4542TIP3    H113632   0.625   3.653   3.016
 4542TIP3    H213633   0.767   3.688   3.052
 4543TIP3   OH213634   2.872   3.894   3.617
 4543TIP3    H113635   2.874   3.871   3.710
 4543TIP3    H213636   2.911   3.818   3.573
 4544TIP3   OH213637   5.383   1.682   2.356
 4544TIP3    H113638   5.420   1.769   2.338
 4544TIP3    H213639   5.409   1.630   2.280
 4545TIP3   OH213640   6.148   0.045   2.277
 4545TIP3    H113641   6.194   0.094   2.209
 4545TIP3    H213642   6.150   0.101   2.354
 4546TIP3   OH213643   1.488   0.549   5.063
 4546TIP3    H113644   1.399   0.513   5.064
 4546TIP3    H213645   1.483   0.626   5.006
 4547TIP3   OH213646   3.052   1.413   3.730
 4547TIP3    H113647   3.112   1.361   3.677
 4547TIP3    H213648   3.101   1.431   3.810
 4548TIP3   OH213649   4.908   0.549   4.223
 4548TIP3    H113650   4.986   0.521   4.270
 4548TIP3    H213651   4.902   0.643   4.241
 4549TIP3   OH213652   2.548   4.230   3.338
 4549TIP3    H113653   2.540   4.302   3.275
 4549TIP3    H213654   2.524   4.270   3.422
 4550TIP3   OH213655   4.311   2.868   4.214
 4550TIP3    H113656   4.299   2.924   4.290
 4550TIP3    H213657   4.228   2.820   4.207
 4551TIP3   OH213658   5.884   0.102   1.333
 4551TIP3    H113659   5.805   0.079   1.383
 4551TIP3    H213660   5.902   0.023   1.281
 4552TIP3   OH213661   0.109   1.521   0.359
 4552TIP3    H113662   0.166   1.556   0.290
 4552TIP3    H213663   0.101   1.594   0.421
 4553TIP3   OH213664   4.800   1.382   2.343
 4553TIP3    H113665   4.719   1.426   2.318
 4553TIP3    H213666   4.868   1.429   2.294
 4554TIP3   OH213667   0.028   4.440   1.657
 4554TIP3    H113668   0.006   4.347   1.667
 4554TIP3    H213669   0.118   4.447   1.690
 4555TIP3   OH213670   4.905   2.178   0.150
 4555TIP3    H113671   4.917   2.265   0.114
 4555TIP3    H213672   4.989   2.156   0.191
 4556TIP3   OH213673   4.689   1.463   4.799
 4556TIP3    H113674   4.597   1.471   4.824
 4556TIP3    H213675   4.736   1.517   4.863
 4557TIP3   OH213676   4.074   5.199   1.223
 4557TIP3    H113677   4.033   5.270   1.174
 4557TIP3    H213678   4.142   5.165   1.165
 4558TIP3   OH213679   4.845   2.753   1.505
 4558TIP3    H113680   4.773   2.814   1.488
 4558TIP3    H213681   4.917   2.808   1.534
 4559TIP3   OH213682   2.151   5.265   1.584
 4559TIP3    H113683   2.094   5.324   1.535
 4559TIP3    H213684   2.215   5.322   1.626
 4560TIP3   OH213685   4.440   0.462   1.648
 4560TIP3    H113686   4.404   0.462   1.559
 4560TIP3    H213687   4.453   0.555   1.668
 4561TIP3   OH213688   0.622   1.576   3.343
 4561TIP3    H113689   0.606   1.613   3.256
 4561TIP3    H213690   0.697   1.624   3.377
 4562TIP3   OH213691   4.346   1.062   3.063
 4562TIP3    H113692   4.275   1.064   2.999
 4562TIP3    H213693   4.310   1.104   3.141
 4563TIP3   OH213694   2.116   3.892   2.672
 4563TIP3    H113695   2.131   3.969   2.618
 4563TIP3    H213696   2.049   3.920   2.735
 4564TIP3   OH213697   3.778   4.391   2.497
 4564TIP3    H113698   3.771   4.424   2.587
 4564TIP3    H213699   3.692   4.352   2.479
 4565TIP3   OH213700   4.729   1.432   1.354
 4565TIP3    H113701   4.759   1.404   1.267
 4565TIP3    H213702   4.649   1.381   1.369
 4566TIP3   OH213703   0.742   1.760   3.574
 4566TIP3    H113704   0.689   1.823   3.527
 4566TIP3    H213705   0.688   1.735   3.649
 4567TIP3   OH213706   4.794   2.960   0.592
 4567TIP3    H113707   4.825   3.032   0.648
 4567TIP3    H213708   4.699   2.961   0.603
 4568TIP3   OH213709   5.491   1.608   1.170
 4568TIP3    H113710   5.487   1.600   1.266
 4568TIP3    H213711   5.399   1.617   1.143
 4569TIP3   OH213712   1.300   0.872   5.038
 4569TIP3    H113713   1.293   0.943   4.974
 4569TIP3    H213714   1.349   0.911   5.111
 4570TIP3   OH213715   2.921   0.063   4.700
 4570TIP3    H113716   3.009   0.034   4.676
 4570TIP3    H213717   2.904   0.022   4.784
 4571TIP3   OH213718   2.489   1.366   2.693
 4571TIP3    H113719   2.550   1.334   2.759
 4571TIP3    H213720   2.481   1.460   2.711
 4572TIP3   OH213721   6.015   5.438   2.052
 4572TIP3    H113722   6.103   5.469   2.076
 4572TIP3    H213723   5.957   5.508   2.082
 4573TIP3   OH213724   5.571   3.124   5.114
 4573TIP3    H113725   5.650   3.178   5.125
 4573TIP3    H213726   5.594   3.039   5.152
 4574TIP3   OH213727   6.234   2.611   2.932
 4574TIP3    H113728   6.188   2.557   2.997
 4574TIP3    H213729   6.172   2.618   2.860
 4575TIP3   OH213730   2.163   4.785   2.507
 4575TIP3    H113731   2.106   4.848   2.465
 4575TIP3    H213732   2.135   4.700   2.472
 4576TIP3   OH213733   4.217   5.524   1.773
 4576TIP3    H113734   4.290   5.575   1.809
 4576TIP3    H213735   4.159   5.590   1.735
 4577TIP3   OH213736   0.954   4.940   0.240
 4577TIP3    H113737   0.980   5.002   0.309
 4577TIP3    H213738   1.010   4.962   0.166
 4578TIP3   OH213739   1.010   4.695   2.372
 4578TIP3    H113740   1.034   4.741   2.452
 4578TIP3    H213741   1.085   4.639   2.353
 4579TIP3   OH213742   1.311   4.220   4.282
 4579TIP3    H113743   1.216   4.231   4.290
 4579TIP3    H213744   1.347   4.280   4.347
 4580TIP3   OH213745   3.382   2.203   4.790
 4580TIP3    H113746   3.316   2.253   4.742
 4580TIP3    H213747   3.345   2.115   4.796
 4581TIP3   OH213748   1.003   1.094   3.842
 4581TIP3    H113749   1.089   1.107   3.801
 4581TIP3    H213750   1.000   1.001   3.863
 4582TIP3   OH213751   0.080   4.620   0.591
 4582TIP3    H113752   0.027   4.563   0.536
 4582TIP3    H213753   0.076   4.580   0.678
 4583TIP3   OH213754   1.349   3.960   3.748
 4583TIP3    H113755   1.378   4.042   3.788
 4583TIP3    H213756   1.387   3.962   3.660
 4584TIP3   OH213757   1.489   1.373   1.435
 4584TIP3    H113758   1.574   1.415   1.451
 4584TIP3    H213759   1.492   1.294   1.489
 4585TIP3   OH213760   4.654   2.546   1.489
 4585TIP3    H113761   4.586   2.611   1.504
 4585TIP3    H213762   4.735   2.588   1.518
 4586TIP3   OH213763   5.393   0.696   0.387
 4586TIP3    H113764   5.384   0.773   0.443
 4586TIP3    H213765   5.463   0.718   0.326
 4587TIP3   OH213766   5.884   2.816   0.964
 4587TIP3    H113767   5.811   2.795   0.905
 4587TIP3    H213768   5.957   2.835   0.905
 4588TIP3   OH213769   4.562   0.716   5.170
 4588TIP3    H113770   4.470   0.699   5.189
 4588TIP3    H213771   4.607   0.636   5.196
 4589TIP3   OH213772   5.970   2.513   3.846
 4589TIP3    H113773   5.989   2.486   3.936
 4589TIP3    H213774   5.971   2.432   3.796
 4590TIP3   OH213775   5.911   3.831   1.362
 4590TIP3    H113776   5.901   3.754   1.417
 4590TIP3    H213777   6.003   3.830   1.334
 4591TIP3   OH213778   5.847   5.438   4.281
 4591TIP3    H113779   5.933   5.428   4.239
 4591TIP3    H213780   5.867   5.452   4.374
 4592TIP3   OH213781   6.003   5.824   4.699
 4592TIP3    H113782   5.981   5.842   4.791
 4592TIP3    H213783   6.017   5.730   4.696
 4593TIP3   OH213784   3.796   0.602   3.718
 4593TIP3    H113785   3.785   0.536   3.787
 4593TIP3    H213786   3.886   0.591   3.688
 4594TIP3   OH213787   4.288   5.748   1.180
 4594TIP3    H113788   4.271   5.658   1.151
 4594TIP3    H213789   4.202   5.781   1.205
 4595TIP3   OH213790   1.003   4.275   3.064
 4595TIP3    H113791   0.926   4.272   3.007
 4595TIP3    H213792   0.996   4.359   3.109
 4596TIP3   OH213793   0.744   5.249   1.223
 4596TIP3    H113794   0.738   5.333   1.268
 4596TIP3    H213795   0.657   5.210   1.231
 4597TIP3   OH213796   4.304   1.958   3.310
 4597TIP3    H113797   4.265   1.995   3.389
 4597TIP3    H213798   4.280   2.019   3.240
 4598TIP3   OH213799   4.540   5.614   2.180
 4598TIP3    H113800   4.544   5.545   2.114
 4598TIP3    H213801   4.621   5.664   2.166
 4599TIP3   OH213802   3.334   5.550   2.144
 4599TIP3    H113803   3.343   5.480   2.080
 4599TIP3    H213804   3.356   5.509   2.228
 4600TIP3   OH213805   2.937   2.567   0.184
 4600TIP3    H113806   2.921   2.581   0.278
 4600TIP3    H213807   2.890   2.638   0.141
 4601TIP3   OH213808   3.265   0.250   3.745
 4601TIP3    H113809   3.330   0.302   3.793
 4601TIP3    H213810   3.280   0.160   3.775
 4602TIP3   OH213811   4.088   5.673   3.829
 4602TIP3    H113812   4.074   5.767   3.824
 4602TIP3    H213813   4.173   5.660   3.787
 4603TIP3   OH213814   0.489   4.219   1.783
 4603TIP3    H113815   0.490   4.314   1.767
 4603TIP3    H213816   0.485   4.211   1.878
 4604TIP3   OH213817   4.636   0.388   0.482
 4604TIP3    H113818   4.688   0.354   0.409
 4604TIP3    H213819   4.698   0.395   0.555
 4605TIP3   OH213820   5.778   5.855   4.480
 4605TIP3    H113821   5.789   5.901   4.563
 4605TIP3    H213822   5.847   5.788   4.481
 4606TIP3   OH213823   1.216   0.101   3.084
 4606TIP3    H113824   1.197   0.067   3.172
 4606TIP3    H213825   1.232   0.022   3.032
 4607TIP3   OH213826   6.275   3.888   1.569
 4607TIP3    H113827   6.270   3.949   1.495
 4607TIP3    H213828   6.361   3.904   1.608
 4608TIP3   OH213829   1.792   1.443   3.920
 4608TIP3    H113830   1.833   1.409   4.000
 4608TIP3    H213831   1.781   1.365   3.864
 4609TIP3   OH213832   1.940   0.151   4.251
 4609TIP3    H113833   1.989   0.079   4.211
 4609TIP3    H213834   1.909   0.115   4.335
 4610TIP3   OH213835   5.013   4.611   4.373
 4610TIP3    H113836   4.922   4.620   4.347
 4610TIP3    H213837   5.021   4.521   4.403
 4611TIP3   OH213838   0.119   1.274   3.333
 4611TIP3    H113839   0.192   1.318   3.377
 4611TIP3    H213840   0.045   1.333   3.343
 4612TIP3   OH213841   2.556   5.266   0.434
 4612TIP3    H113842   2.559   5.312   0.518
 4612TIP3    H213843   2.465   5.273   0.406
 4613TIP3   OH213844   2.959   0.417   3.352
 4613TIP3    H113845   3.017   0.437   3.425
 4613TIP3    H213846   2.930   0.503   3.320
 4614TIP3   OH213847   2.029   4.651   4.425
 4614TIP3    H113848   2.023   4.571   4.477
 4614TIP3    H213849   1.959   4.644   4.361
 4615TIP3   OH213850   1.328   4.759   2.025
 4615TIP3    H113851   1.342   4.832   2.085
 4615TIP3    H213852   1.298   4.800   1.944
 4616TIP3   OH213853   1.562   1.097   0.100
 4616TIP3    H113854   1.604   1.024   0.055
 4616TIP3    H213855   1.571   1.077   0.193
 4617TIP3   OH213856   3.879   2.097   4.224
 4617TIP3    H113857   3.870   2.003   4.238
 4617TIP3    H213858   3.943   2.125   4.289
 4618TIP3   OH213859   4.337   4.363   0.476
 4618TIP3    H113860   4.383   4.316   0.544
 4618TIP3    H213861   4.248   4.328   0.478
 4619TIP3   OH213862   3.312   1.503   2.931
 4619TIP3    H113863   3.348   1.435   2.875
 4619TIP3    H213864   3.341   1.585   2.892
 4620TIP3   OH213865   5.965   3.275   4.879
 4620TIP3    H113866   6.032   3.214   4.911
 4620TIP3    H213867   5.905   3.220   4.829
 4621TIP3   OH213868   1.481   3.632   4.631
 4621TIP3    H113869   1.477   3.696   4.702
 4621TIP3    H213870   1.404   3.649   4.578
 4622TIP3   OH213871   2.861   0.358   5.061
 4622TIP3    H113872   2.896   0.425   5.120
 4622TIP3    H213873   2.923   0.356   4.987
 4623TIP3   OH213874   4.149   5.200   3.397
 4623TIP3    H113875   4.113   5.119   3.361
 4623TIP3    H213876   4.168   5.254   3.320
 4624TIP3   OH213877   5.358   4.094   1.375
 4624TIP3    H113878   5.414   4.077   1.451
 4624TIP3    H213879   5.306   4.170   1.401
 4625TIP3   OH213880   2.287   4.385   2.108
 4625TIP3    H113881   2.381   4.397   2.095
 4625TIP3    H213882   2.281   4.322   2.180
 4626TIP3   OH213883   0.043   4.268   3.527
 4626TIP3    H113884  -0.017   4.337   3.557
 4626TIP3    H213885   0.122   4.280   3.580
 4627TIP3   OH213886   5.045   3.032   1.218
 4627TIP3    H113887   4.993   2.991   1.149
 4627TIP3    H213888   5.130   2.988   1.213
 4628TIP3   OH213889   3.806   1.253   1.038
 4628TIP3    H113890   3.900   1.261   1.056
 4628TIP3    H213891   3.769   1.217   1.119
 4629TIP3   OH213892   2.445   4.612   1.753
 4629TIP3    H113893   2.443   4.528   1.707
 4629TIP3    H213894   2.515   4.662   1.709
 4630TIP3   OH213895   5.250   2.853   1.224
 4630TIP3    H113896   5.219   2.871   1.135
 4630TIP3    H213897   5.330   2.802   1.212
 4631TIP3   OH213898   1.404   0.520   4.445
 4631TIP3    H113899   1.482   0.537   4.498
 4631TIP3    H213900   1.422   0.565   4.362
 4632TIP3   OH213901   5.311   1.867   0.608
 4632TIP3    H113902   5.372   1.796   0.584
 4632TIP3    H213903   5.225   1.835   0.581
 4633TIP3   OH213904   0.867   0.471   0.545
 4633TIP3    H113905   0.843   0.536   0.611
 4633TIP3    H213906   0.959   0.490   0.525
 4634TIP3   OH213907   2.312   4.433   0.464
 4634TIP3    H113908   2.407   4.434   0.480
 4634TIP3    H213909   2.276   4.386   0.540
 4635TIP3   OH213910   0.151   2.326   0.127
 4635TIP3    H113911   0.192   2.321   0.040
 4635TIP3    H213912   0.131   2.235   0.149
 4636TIP3   OH213913   4.429   4.643   3.232
 4636TIP3    H113914   4.516   4.611   3.206
 4636TIP3    H213915   4.405   4.587   3.306
 4637TIP3   OH213916   4.053   0.605   3.580
 4637TIP3    H113917   4.108   0.583   3.655
 4637TIP3    H213918   4.050   0.526   3.527
 4638TIP3   OH213919   0.339   5.405   2.995
 4638TIP3    H113920   0.299   5.396   2.909
 4638TIP3    H213921   0.327   5.320   3.036
 4639TIP3   OH213922   2.200   3.361   0.397
 4639TIP3    H113923   2.237   3.352   0.309
 4639TIP3    H213924   2.145   3.283   0.408
 4640TIP3   OH213925   5.419   2.813   2.606
 4640TIP3    H113926   5.474   2.763   2.546
 4640TIP3    H213927   5.330   2.800   2.574
 4641TIP3   OH213928   1.141   1.217   1.210
 4641TIP3    H113929   1.181   1.281   1.268
 4641TIP3    H213930   1.214   1.159   1.186
 4642TIP3   OH213931   4.199   4.017   4.866
 4642TIP3    H113932   4.218   3.983   4.954
 4642TIP3    H213933   4.104   4.003   4.856
 4643TIP3   OH213934   5.725   3.070   2.203
 4643TIP3    H113935   5.725   2.993   2.147
 4643TIP3    H213936   5.635   3.078   2.233
 4644TIP3   OH213937   4.178   0.483   3.138
 4644TIP3    H113938   4.103   0.482   3.078
 4644TIP3    H213939   4.214   0.571   3.130
 4645TIP3   OH213940   2.207   4.162   2.585
 4645TIP3    H113941   2.228   4.210   2.665
 4645TIP3    H213942   2.140   4.214   2.541
 4646TIP3   OH213943   3.781   2.535   1.947
 4646TIP3    H113944   3.771   2.465   2.012
 4646TIP3    H213945   3.808   2.490   1.867
 4647TIP3   OH213946   1.867   2.856   1.166
 4647TIP3    H113947   1.816   2.778   1.187
 4647TIP3    H213948   1.956   2.823   1.152
 4648TIP3   OH213949   1.058   3.600   3.045
 4648TIP3    H113950   1.045   3.692   3.068
 4648TIP3    H213951   1.061   3.554   3.128
 4649TIP3   OH213952   1.022   1.212   4.365
 4649TIP3    H113953   0.951   1.168   4.413
 4649TIP3    H213954   1.022   1.170   4.279
 4650TIP3   OH213955   0.496   3.459   0.614
 4650TIP3    H113956   0.515   3.392   0.679
 4650TIP3    H213957   0.581   3.477   0.572
 4651TIP3   OH213958   6.148   5.274   4.011
 4651TIP3    H113959   6.239   5.293   3.990
 4651TIP3    H213960   6.118   5.349   4.062
 4652TIP3   OH213961   0.675   1.923   1.632
 4652TIP3    H113962   0.610   1.944   1.699
 4652TIP3    H213963   0.713   1.840   1.661
 4653TIP3   OH213964   5.866   4.136   0.683
 4653TIP3    H113965   5.848   4.043   0.669
 4653TIP3    H213966   5.959   4.147   0.661
 4654TIP3   OH213967   3.832   1.772   3.781
 4654TIP3    H113968   3.824   1.796   3.873
 4654TIP3    H213969   3.841   1.856   3.735
 4655TIP3   OH213970   4.310   0.236   4.562
 4655TIP3    H113971   4.385   0.260   4.509
 4655TIP3    H213972   4.272   0.160   4.518
 4656TIP3   OH213973   1.638   5.750   2.938
 4656TIP3    H113974   1.686   5.833   2.933
 4656TIP3    H213975   1.630   5.733   3.032
 4657TIP3   OH213976   3.606   1.517   2.719
 4657TIP3    H113977   3.521   1.515   2.675
 4657TIP3    H213978   3.585   1.537   2.811
 4658TIP3   OH213979   5.257   4.569   2.934
 4658TIP3    H113980   5.273   4.476   2.949
 4658TIP3    H213981   5.213   4.572   2.849
 4659TIP3   OH213982   0.891   5.844   1.418
 4659TIP3    H113983   0.903   5.777   1.351
 4659TIP3    H213984   0.812   5.890   1.391
 4660TIP3   OH213985   1.434   5.541   3.118
 4660TIP3    H113986   1.379   5.620   3.112
 4660TIP3    H213987   1.451   5.517   3.028
 4661TIP3   OH213988   4.162   4.829   2.442
 4661TIP3    H113989   4.188   4.917   2.416
 4661TIP3    H213990   4.240   4.776   2.430
 4662TIP3   OH213991   2.899   5.254   3.733
 4662TIP3    H113992   2.954   5.181   3.762
 4662TIP3    H213993   2.960   5.320   3.702
 4663TIP3   OH213994   2.113   5.478   1.840
 4663TIP3    H113995   2.171   5.412   1.878
 4663TIP3    H213996   2.028   5.434   1.833
 4664TIP3   OH213997   0.257   5.359   4.110
 4664TIP3    H113998   0.313   5.319   4.043
 4664TIP3    H213999   0.318   5.410   4.164
 4665TIP3   OH214000   5.193   1.415   1.252
 4665TIP3    H114001   5.268   1.431   1.309
 4665TIP3    H214002   5.161   1.502   1.230
 4666TIP3   OH214003   2.221   4.247   4.814
 4666TIP3    H114004   2.163   4.212   4.747
 4666TIP3    H214005   2.302   4.268   4.768
 4667TIP3   OH214006   1.734   4.498   1.429
 4667TIP3    H114007   1.649   4.527   1.465
 4667TIP3    H214008   1.783   4.579   1.418
 4668TIP3   OH214009   6.138   2.025   3.422
 4668TIP3    H114010   6.090   1.997   3.345
 4668TIP3    H214011   6.096   2.106   3.449
 4669TIP3   OH214012   6.318   5.832   2.805
 4669TIP3    H114013   6.333   5.745   2.767
 4669TIP3    H214014   6.364   5.892   2.746
 4670TIP3   OH214015   6.163   1.945   0.582
 4670TIP3    H114016   6.141   2.000   0.657
 4670TIP3    H214017   6.138   1.997   0.506
 4671TIP3   OH214018   2.477   1.927   4.812
 4671TIP3    H114019   2.448   1.974   4.734
 4671TIP3    H214020   2.522   1.993   4.865
 4672TIP3   OH214021   4.823   4.634   4.057
 4672TIP3    H114022   4.777   4.557   4.023
 4672TIP3    H214023   4.911   4.626   4.021
 4673TIP3   OH214024   3.399   3.189   0.559
 4673TIP3    H114025   3.345   3.268   0.553
 4673TIP3    H214026   3.489   3.220   0.546
 4674TIP3   OH214027   5.130   4.710   2.245
 4674TIP3    H114028   5.144   4.708   2.339
 4674TIP3    H214029   5.057   4.649   2.230
 4675TIP3   OH214030   1.265   2.026   2.042
 4675TIP3    H114031   1.340   2.075   2.008
 4675TIP3    H214032   1.218   2.089   2.096
 4676TIP3   OH214033   2.790   2.962   1.131
 4676TIP3    H114034   2.795   2.891   1.066
 4676TIP3    H214035   2.846   2.933   1.202
 4677TIP3   OH214036   0.878   3.695   5.008
 4677TIP3    H114037   0.882   3.703   4.913
 4677TIP3    H214038   0.838   3.609   5.023
 4678TIP3   OH214039   3.427   5.505   1.297
 4678TIP3    H114040   3.438   5.589   1.343
 4678TIP3    H214041   3.514   5.467   1.297
 4679TIP3   OH214042   3.192   0.843   3.950
 4679TIP3    H114043   3.117   0.876   3.900
 4679TIP3    H214044   3.153   0.805   4.029
 4680TIP3   OH214045   5.237   5.475   3.684
 4680TIP3    H114046   5.211   5.541   3.619
 4680TIP3    H214047   5.257   5.397   3.632
 4681TIP3   OH214048   5.014   3.727   4.552
 4681TIP3    H114049   5.089   3.668   4.546
 4681TIP3    H214050   4.991   3.746   4.461
 4682TIP3   OH214051   0.002   4.297   3.898
 4682TIP3    H114052   0.030   4.375   3.947
 4682TIP3    H214053   0.081   4.268   3.853
 4683TIP3   OH214054   5.237   1.145   1.645
 4683TIP3    H114055   5.186   1.094   1.707
 4683TIP3    H214056   5.228   1.235   1.674
 4684TIP3   OH214057   3.464   0.849   3.160
 4684TIP3    H114058   3.413   0.913   3.210
 4684TIP3    H214059   3.418   0.842   3.077
 4685TIP3   OH214060   6.106   0.537   3.483
 4685TIP3    H114061   6.142   0.529   3.571
 4685TIP3    H214062   6.157   0.474   3.431
 4686TIP3   OH214063   6.229   5.130   3.378
 4686TIP3    H114064   6.241   5.039   3.404
 4686TIP3    H214065   6.288   5.180   3.435
 4687TIP3   OH214066   2.929   1.746   4.272
 4687TIP3    H114067   2.849   1.694   4.275
 4687TIP3    H214068   2.954   1.745   4.179
 4688TIP3   OH214069   0.320   2.171   4.049
 4688TIP3    H114070   0.242   2.160   3.996
 4688TIP3    H214071   0.378   2.099   4.022
 4689TIP3   OH214072   5.687   1.700   3.760
 4689TIP3    H114073   5.771   1.670   3.725
 4689TIP3    H214074   5.693   1.682   3.854
 4690TIP3   OH214075   0.933   1.523   1.648
 4690TIP3    H114076   0.878   1.469   1.593
 4690TIP3    H214077   1.008   1.468   1.669
 4691TIP3   OH214078   1.289   4.462   1.519
 4691TIP3    H114079   1.199   4.490   1.503
 4691TIP3    H214080   1.333   4.473   1.434
 4692TIP3   OH214081   4.337   0.433   2.312
 4692TIP3    H114082   4.409   0.387   2.269
 4692TIP3    H214083   4.326   0.386   2.395
 4693TIP3   OH214084   5.067   0.094   0.358
 4693TIP3    H114085   5.157   0.125   0.368
 4693TIP3    H214086   5.019   0.169   0.323
 4694TIP3   OH214087   4.013   3.285   3.677
 4694TIP3    H114088   4.046   3.222   3.741
 4694TIP3    H214089   4.090   3.306   3.623
 4695TIP3   OH214090   1.979   4.976   2.421
 4695TIP3    H114091   1.936   5.049   2.378
 4695TIP3    H214092   1.921   4.953   2.494
 4696TIP3   OH214093   5.951   0.462   0.939
 4696TIP3    H114094   5.933   0.403   1.012
 4696TIP3    H214095   5.915   0.546   0.965
 4697TIP3   OH214096   2.214  -0.004   4.571
 4697TIP3    H114097   2.157  -0.077   4.545
 4697TIP3    H214098   2.203   0.061   4.502
 4698TIP3   OH214099   5.871   3.882   3.785
 4698TIP3    H114100   5.830   3.931   3.855
 4698TIP3    H214101   5.948   3.842   3.825
 4699TIP3   OH214102   1.953   1.033   1.519
 4699TIP3    H114103   1.958   1.116   1.566
 4699TIP3    H214104   2.044   1.008   1.505
 4700TIP3   OH214105   5.829   3.615   3.983
 4700TIP3    H114106   5.835   3.562   3.904
 4700TIP3    H214107   5.902   3.677   3.976
 4701TIP3   OH214108   5.805   1.204   1.095
 4701TIP3    H114109   5.740   1.270   1.071
 4701TIP3    H214110   5.870   1.253   1.145
 4702TIP3   OH214111   6.184   1.748   4.342
 4702TIP3    H114112   6.124   1.760   4.416
 4702TIP3    H214113   6.255   1.811   4.359
 4703TIP3   OH214114   4.686   1.734   2.289
 4703TIP3    H114115   4.728   1.778   2.363
 4703TIP3    H214116   4.603   1.702   2.323
 4704TIP3   OH214117   5.991   3.676   4.932
 4704TIP3    H114118   6.035   3.593   4.912
 4704TIP3    H214119   5.900   3.651   4.946
 4705TIP3   OH214120   4.392   1.800   2.082
 4705TIP3    H114121   4.360   1.785   2.171
 4705TIP3    H214122   4.402   1.713   2.045
 4706TIP3   OH214123   5.932   2.604   2.773
 4706TIP3    H114124   5.954   2.534   2.834
 4706TIP3    H214125   5.857   2.648   2.813
 4707TIP3   OH214126   2.652   0.537   2.660
 4707TIP3    H114127   2.582   0.473   2.672
 4707TIP3    H214128   2.624   0.590   2.585
 4708TIP3   OH214129   0.121   0.586   2.358
 4708TIP3    H114130   0.051   0.575   2.294
 4708TIP3    H214131   0.076   0.598   2.441
 4709TIP3   OH214132   0.282   5.813   4.244
 4709TIP3    H114133   0.302   5.823   4.150
 4709TIP3    H214134   0.187   5.797   4.247
 4710TIP3   OH214135   4.602   4.639   2.217
 4710TIP3    H114136   4.525   4.612   2.167
 4710TIP3    H214137   4.644   4.706   2.163
 4711TIP3   OH214138   3.524   0.221   5.124
 4711TIP3    H114139   3.499   0.166   5.197
 4711TIP3    H214140   3.602   0.179   5.087
 4712TIP3   OH214141   0.410   3.918   4.231
 4712TIP3    H114142   0.498   3.928   4.265
 4712TIP3    H214143   0.420   3.862   4.154
 4713TIP3   OH214144   0.476   2.071   4.331
 4713TIP3    H114145   0.552   2.111   4.287
 4713TIP3    H214146   0.431   2.024   4.261
 4714TIP3   OH214147   0.645   5.723   2.266
 4714TIP3    H114148   0.688   5.721   2.180
 4714TIP3    H214149   0.592   5.803   2.264
 4715TIP3   OH214150   5.260   5.508   1.527
 4715TIP3    H114151   5.294   5.419   1.527
 4715TIP3    H214152   5.338   5.564   1.532
 4716TIP3   OH214153   1.026   4.091   0.610
 4716TIP3    H114154   1.063   4.092   0.522
 4716TIP3    H214155   1.010   4.183   0.631
 4717TIP3   OH214156   5.339   2.407   3.724
 4717TIP3    H114157   5.393   2.347   3.775
 4717TIP3    H214158   5.369   2.494   3.750
 4718TIP3   OH214159   0.528   3.237   1.384
 4718TIP3    H114160   0.435   3.260   1.387
 4718TIP3    H214161   0.568   3.293   1.450
 4719TIP3   OH214162   2.226   4.115   1.059
 4719TIP3    H114163   2.164   4.186   1.044
 4719TIP3    H214164   2.247   4.082   0.972
 4720TIP3   OH214165   6.212   2.316   5.139
 4720TIP3    H114166   6.225   2.259   5.215
 4720TIP3    H214167   6.257   2.271   5.068
 4721TIP3   OH214168   3.770   1.832   4.261
 4721TIP3    H114169   3.688   1.867   4.225
 4721TIP3    H214170   3.746   1.745   4.293
 4722TIP3   OH214171   4.946   0.687   4.958
 4722TIP3    H114172   5.028   0.727   4.987
 4722TIP3    H214173   4.924   0.623   5.026
 4723TIP3   OH214174   4.138   6.026   1.403
 4723TIP3    H114175   4.213   6.005   1.347
 4723TIP3    H214176   4.075   5.956   1.384
 4724TIP3   OH214177   1.858   3.576   4.273
 4724TIP3    H114178   1.791   3.606   4.335
 4724TIP3    H214179   1.871   3.649   4.213
 4725TIP3   OH214180   3.748   3.129   3.289
 4725TIP3    H114181   3.798   3.056   3.254
 4725TIP3    H214182   3.777   3.136   3.380
 4726TIP3   OH214183   2.644   5.172   5.096
 4726TIP3    H114184   2.584   5.135   5.160
 4726TIP3    H214185   2.714   5.107   5.087
 4727TIP3   OH214186   4.787   4.922   4.104
 4727TIP3    H114187   4.791   4.938   4.199
 4727TIP3    H214188   4.790   4.827   4.095
 4728TIP3   OH214189   0.039   4.401   4.464
 4728TIP3    H114190   0.092   4.421   4.541
 4728TIP3    H214191   0.098   4.413   4.390
 4729TIP3   OH214192   2.385   1.089   1.359
 4729TIP3    H114193   2.468   1.133   1.344
 4729TIP3    H214194   2.397   1.002   1.322
 4730TIP3   OH214195   2.246   0.513   4.462
 4730TIP3    H114196   2.171   0.457   4.480
 4730TIP3    H214197   2.228   0.595   4.508
 4731TIP3   OH214198   3.669   1.606   2.994
 4731TIP3    H114199   3.724   1.659   3.052
 4731TIP3    H214200   3.607   1.668   2.956
 4732TIP3   OH214201   1.418   4.199   1.412
 4732TIP3    H114202   1.374   4.246   1.483
 4732TIP3    H214203   1.507   4.187   1.443
 4733TIP3   OH214204   5.589   2.137   1.000
 4733TIP3    H114205   5.560   2.099   0.917
 4733TIP3    H214206   5.565   2.072   1.066
 4734TIP3   OH214207   0.437   2.596   4.665
 4734TIP3    H114208   0.401   2.680   4.693
 4734TIP3    H214209   0.461   2.552   4.747
 4735TIP3   OH214210   2.998   3.689   3.437
 4735TIP3    H114211   3.013   3.595   3.441
 4735TIP3    H214212   3.061   3.721   3.374
 4736TIP3   OH214213   2.107   3.440   1.009
 4736TIP3    H114214   2.074   3.359   0.971
 4736TIP3    H214215   2.066   3.445   1.095
 4737TIP3   OH214216   4.106   2.719   0.481
 4737TIP3    H114217   4.019   2.679   0.482
 4737TIP3    H214218   4.105   2.778   0.557
 4738TIP3   OH214219   3.800   2.831   1.406
 4738TIP3    H114220   3.845   2.882   1.473
 4738TIP3    H214221   3.740   2.775   1.455
 4739TIP3   OH214222   3.172   5.199   1.993
 4739TIP3    H114223   3.156   5.154   2.076
 4739TIP3    H214224   3.253   5.248   2.008
 4740TIP3   OH214225   0.318   4.698   3.782
 4740TIP3    H114226   0.243   4.640   3.768
 4740TIP3    H214227   0.346   4.724   3.694
 4741TIP3   OH214228   1.664   3.356   1.736
 4741TIP3    H114229   1.724   3.304   1.790
 4741TIP3    H214230   1.719   3.388   1.664
 4742TIP3   OH214231   1.609   2.852   0.777
 4742TIP3    H114232   1.639   2.786   0.715
 4742TIP3    H214233   1.514   2.855   0.765
 4743TIP3   OH214234   3.218   2.557   4.803
 4743TIP3    H114235   3.195   2.482   4.748
 4743TIP3    H214236   3.314   2.552   4.812
 4744TIP3   OH214237   6.022   2.528   4.839
 4744TIP3    H114238   6.073   2.522   4.919
 4744TIP3    H214239   6.080   2.570   4.776
 4745TIP3   OH214240   5.729   5.766   0.569
 4745TIP3    H114241   5.820   5.743   0.588
 4745TIP3    H214242   5.728   5.862   0.570
 4746TIP3   OH214243   0.372   4.053   1.582
 4746TIP3    H114244   0.448   4.020   1.534
 4746TIP3    H214245   0.406   4.128   1.631
 4747TIP3   OH214246   2.490   5.979   4.575
 4747TIP3    H114247   2.440   6.029   4.511
 4747TIP3    H214248   2.488   5.889   4.542
 4748TIP3   OH214249   4.695   4.416   2.333
 4748TIP3    H114250   4.654   4.339   2.294
 4748TIP3    H214251   4.649   4.490   2.293
 4749TIP3   OH214252   0.376   0.767   3.800
 4749TIP3    H114253   0.303   0.793   3.743
 4749TIP3    H214254   0.335   0.733   3.879
 4750TIP3   OH214255   4.797   5.006   4.736
 4750TIP3    H114256   4.746   4.942   4.785
 4750TIP3    H214257   4.861   4.952   4.688
 4751TIP3   OH214258   2.587   1.367   5.068
 4751TIP3    H114259   2.668   1.328   5.100
 4751TIP3    H214260   2.614   1.448   5.025
 4752TIP3   OH214261   1.208   5.085   0.785
 4752TIP3    H114262   1.171   5.083   0.697
 4752TIP3    H214263   1.133   5.101   0.842
 4753TIP3   OH214264   5.572   1.081   1.337
 4753TIP3    H114265   5.655   1.072   1.384
 4753TIP3    H214266   5.538   1.166   1.364
 4754TIP3   OH214267   2.923   0.959   3.253
 4754TIP3    H114268   2.846   0.902   3.239
 4754TIP3    H214269   2.997   0.899   3.255
 4755TIP3   OH214270   1.720   3.545   3.462
 4755TIP3    H114271   1.697   3.452   3.468
 4755TIP3    H214272   1.722   3.574   3.554
 4756TIP3   OH214273   6.335   5.858   3.623
 4756TIP3    H114274   6.278   5.787   3.591
 4756TIP3    H214275   6.378   5.821   3.700
 4757TIP3   OH214276   2.636   2.763   2.784
 4757TIP3    H114277   2.680   2.683   2.812
 4757TIP3    H214278   2.589   2.738   2.704
 4758TIP3   OH214279   3.472   0.886   3.970
 4758TIP3    H114280   3.379   0.904   3.956
 4758TIP3    H214281   3.516   0.966   3.943
 4759TIP3   OH214282   5.497   4.952   1.003
 4759TIP3    H114283   5.575   4.927   0.953
 4759TIP3    H214284   5.429   4.962   0.936
 4760TIP3   OH214285   0.760   0.430   4.156
 4760TIP3    H114286   0.767   0.337   4.177
 4760TIP3    H214287   0.723   0.469   4.235
 4761TIP3   OH214288   4.999   5.324   3.549
 4761TIP3    H114289   4.920   5.280   3.517
 4761TIP3    H214290   4.976   5.417   3.550
 4762TIP3   OH214291   5.279   5.825   1.739
 4762TIP3    H114292   5.337   5.875   1.796
 4762TIP3    H214293   5.240   5.759   1.797
 4763TIP3   OH214294   3.394   5.844   2.125
 4763TIP3    H114295   3.391   5.866   2.218
 4763TIP3    H214296   3.355   5.757   2.120
 4764TIP3   OH214297   2.713   2.629   1.847
 4764TIP3    H114298   2.671   2.611   1.932
 4764TIP3    H214299   2.745   2.719   1.856
 4765TIP3   OH214300   5.570   0.996   3.547
 4765TIP3    H114301   5.493   1.036   3.590
 4765TIP3    H214302   5.544   0.988   3.455
 4766TIP3   OH214303   3.750   3.705   4.540
 4766TIP3    H114304   3.800   3.755   4.476
 4766TIP3    H214305   3.815   3.650   4.584
 4767TIP3   OH214306   6.057   0.738   0.357
 4767TIP3    H114307   6.014   0.661   0.318
 4767TIP3    H214308   6.003   0.812   0.330
 4768TIP3   OH214309   1.981   1.284   1.303
 4768TIP3    H114310   1.901   1.241   1.272
 4768TIP3    H214311   1.979   1.370   1.260
 4769TIP3   OH214312   2.842   4.013   0.923
 4769TIP3    H114313   2.910   4.069   0.885
 4769TIP3    H214314   2.887   3.933   0.948
 4770TIP3   OH214315  -0.034   0.521   3.079
 4770TIP3    H114316  -0.017   0.616   3.080
 4770TIP3    H214317   0.033   0.486   3.021
 4771TIP3   OH214318   3.840   0.931   0.491
 4771TIP3    H114319   3.809   0.950   0.402
 4771TIP3    H214320   3.761   0.916   0.542
 4772TIP3   OH214321   1.567   1.674   1.147
 4772TIP3    H114322   1.621   1.717   1.215
 4772TIP3    H214323   1.630   1.623   1.096
 4773TIP3   OH214324   0.982   2.965   4.642
 4773TIP3    H114325   0.965   2.881   4.685
 4773TIP3    H214326   1.004   2.942   4.552
 4774TIP3   OH214327   3.603   2.829   4.378
 4774TIP3    H114328   3.663   2.795   4.311
 4774TIP3    H214329   3.645   2.807   4.461
 4775TIP3   OH214330   5.769   3.205   1.702
 4775TIP3    H114331   5.748   3.117   1.734
 4775TIP3    H214332   5.826   3.191   1.627
 4776TIP3   OH214333   3.564   0.727   4.842
 4776TIP3    H114334   3.656   0.704   4.850
 4776TIP3    H214335   3.522   0.650   4.803
 4777TIP3   OH214336   2.593   0.034   5.061
 4777TIP3    H114337   2.580   0.123   5.027
 4777TIP3    H214338   2.682   0.034   5.095
 4778TIP3   OH214339   3.092   0.959   0.823
 4778TIP3    H114340   3.159   0.925   0.765
 4778TIP3    H214341   3.050   1.030   0.773
 4779TIP3   OH214342   1.950   2.228   0.600
 4779TIP3    H114343   1.990   2.181   0.526
 4779TIP3    H214344   2.006   2.305   0.612
 4780TIP3   OH214345   2.590   3.728   4.148
 4780TIP3    H114346   2.503   3.769   4.152
 4780TIP3    H214347   2.636   3.762   4.225
 4781TIP3   OH214348   0.404   2.130   4.613
 4781TIP3    H114349   0.438   2.111   4.525
 4781TIP3    H214350   0.476   2.109   4.672
 4782TIP3   OH214351   1.414   5.402   0.125
 4782TIP3    H114352   1.488   5.463   0.124
 4782TIP3    H214353   1.414   5.367   0.214
 4783TIP3   OH214354   4.354   1.881   2.856
 4783TIP3    H114355   4.313   1.936   2.923
 4783TIP3    H214356   4.313   1.795   2.866
 4784TIP3   OH214357   1.720   4.378   3.203
 4784TIP3    H114358   1.725   4.407   3.112
 4784TIP3    H214359   1.779   4.302   3.207
 4785TIP3   OH214360   4.604   3.964   0.538
 4785TIP3    H114361   4.667   3.900   0.571
 4785TIP3    H214362   4.655   4.019   0.479
 4786TIP3   OH214363   2.460   3.548   3.948
 4786TIP3    H114364   2.378   3.533   3.994
 4786TIP3    H214365   2.437   3.543   3.855
 4787TIP3   OH214366   6.324   3.248   1.412
 4787TIP3    H114367   6.337   3.331   1.458
 4787TIP3    H214368   6.256   3.268   1.347
 4788TIP3   OH214369   6.318   1.043   4.782
 4788TIP3    H114370   6.259   1.025   4.855
 4788TIP3    H214371   6.393   0.985   4.795
 4789TIP3   OH214372   2.348   5.579   1.274
 4789TIP3    H114373   2.272   5.611   1.321
 4789TIP3    H214374   2.319   5.496   1.235
 4790TIP3   OH214375   1.340   4.814   2.754
 4790TIP3    H114376   1.350   4.870   2.678
 4790TIP3    H214377   1.296   4.869   2.819
 4791TIP3   OH214378   4.496   5.641   3.107
 4791TIP3    H114379   4.443   5.660   3.029
 4791TIP3    H214380   4.549   5.565   3.083
 4792TIP3   OH214381   4.083   3.060   3.039
 4792TIP3    H114382   4.167   3.101   3.059
 4792TIP3    H214383   4.050   3.108   2.963
 4793TIP3   OH214384   3.966   1.959   0.550
 4793TIP3    H114385   3.993   1.867   0.558
 4793TIP3    H214386   3.878   1.962   0.587
 4794TIP3   OH214387   1.364   4.990   2.155
 4794TIP3    H114388   1.344   5.070   2.203
 4794TIP3    H214389   1.423   5.018   2.085
 4795TIP3   OH214390   5.885   2.866   2.528
 4795TIP3    H114391   5.850   2.954   2.517
 4795TIP3    H214392   5.820   2.809   2.488
 4796TIP3   OH214393   2.353   3.244   4.803
 4796TIP3    H114394   2.440   3.268   4.771
 4796TIP3    H214395   2.330   3.314   4.865
 4797TIP3   OH214396   1.808   5.187   3.030
 4797TIP3    H114397   1.812   5.282   3.037
 4797TIP3    H214398   1.775   5.171   2.941
 4798TIP3   OH214399   6.400   3.919   0.819
 4798TIP3    H114400   6.316   3.964   0.824
 4798TIP3    H214401   6.417   3.910   0.725
 4799TIP3   OH214402   2.101   4.052   0.487
 4799TIP3    H114403   2.082   4.079   0.577
 4799TIP3    H214404   2.149   3.970   0.496
 4800TIP3   OH214405   3.270   0.312   0.975
 4800TIP3    H114406   3.294   0.405   0.974
 4800TIP3    H214407   3.311   0.276   0.896
 4801TIP3   OH214408   4.474   0.911   2.092
 4801TIP3    H114409   4.468   0.951   2.006
 4801TIP3    H214410   4.384   0.893   2.117
 4802TIP3   OH214411   0.209   1.910   0.573
 4802TIP3    H114412   0.132   1.854   0.567
 4802TIP3    H214413   0.202   1.950   0.660
 4803TIP3   OH214414   5.021   1.378   1.507
 4803TIP3    H114415   5.064   1.400   1.424
 4803TIP3    H214416   4.968   1.300   1.486
 4804TIP3   OH214417   4.775   3.450   3.385
 4804TIP3    H114418   4.840   3.508   3.345
 4804TIP3    H214419   4.822   3.404   3.453
 4805TIP3   OH214420   4.177   0.920   1.456
 4805TIP3    H114421   4.117   0.992   1.471
 4805TIP3    H214422   4.175   0.869   1.537
 4806TIP3   OH214423   2.638   5.825   2.123
 4806TIP3    H114424   2.732   5.839   2.131
 4806TIP3    H214425   2.602   5.912   2.107
 4807TIP3   OH214426   4.197   5.154   2.438
 4807TIP3    H114427   4.180   5.156   2.344
 4807TIP3    H214428   4.125   5.204   2.477
 4808TIP3   OH214429   2.775   0.584   4.865
 4808TIP3    H114430   2.686   0.597   4.831
 4808TIP3    H214431   2.828   0.566   4.788
 4809TIP3   OH214432   5.668   0.566   3.435
 4809TIP3    H114433   5.735   0.571   3.503
 4809TIP3    H214434   5.603   0.506   3.470
 4810TIP3   OH214435   0.285   0.129   3.808
 4810TIP3    H114436   0.196   0.108   3.836
 4810TIP3    H214437   0.287   0.225   3.802
 4811TIP3   OH214438   2.084   0.446   3.226
 4811TIP3    H114439   2.152   0.420   3.288
 4811TIP3    H214440   2.081   0.375   3.162
 4812TIP3   OH214441   4.581   2.209   1.223
 4812TIP3    H114442   4.566   2.303   1.225
 4812TIP3    H214443   4.515   2.175   1.162
 4813TIP3   OH214444   0.096   5.042   1.356
 4813TIP3    H114445   0.017   5.037   1.301
 4813TIP3    H214446   0.107   4.953   1.389
 4814TIP3   OH214447   4.932   4.209   0.604
 4814TIP3    H114448   4.983   4.285   0.632
 4814TIP3    H214449   4.880   4.242   0.530
 4815TIP3   OH214450   5.975   4.088   1.233
 4815TIP3    H114451   5.903   4.093   1.295
 4815TIP3    H214452   5.938   4.117   1.150
 4816TIP3   OH214453   0.989   1.527   1.079
 4816TIP3    H114454   0.993   1.559   1.169
 4816TIP3    H214455   0.958   1.602   1.029
 4817TIP3   OH214456   4.741   3.366   1.059
 4817TIP3    H114457   4.669   3.303   1.065
 4817TIP3    H214458   4.727   3.410   0.975
 4818TIP3   OH214459   4.487   0.981   0.371
 4818TIP3    H114460   4.524   1.069   0.356
 4818TIP3    H214461   4.544   0.923   0.321
 4819TIP3   OH214462   4.706   4.962   2.990
 4819TIP3    H114463   4.690   4.935   3.080
 4819TIP3    H214464   4.735   4.883   2.945
 4820TIP3   OH214465   5.707   4.891   3.483
 4820TIP3    H114466   5.752   4.890   3.567
 4820TIP3    H214467   5.769   4.850   3.423
 4821TIP3   OH214468   0.426   0.806   0.468
 4821TIP3    H114469   0.428   0.838   0.558
 4821TIP3    H214470   0.473   0.873   0.418
 4822TIP3   OH214471   5.372   1.798   4.145
 4822TIP3    H114472   5.386   1.704   4.134
 4822TIP3    H214473   5.303   1.806   4.210
 4823TIP3   OH214474   2.758   2.205   1.109
 4823TIP3    H114475   2.700   2.270   1.148
 4823TIP3    H214476   2.842   2.251   1.098
 4824TIP3   OH214477   2.877   2.364   4.092
 4824TIP3    H114478   2.789   2.351   4.126
 4824TIP3    H214479   2.887   2.459   4.087
 4825TIP3   OH214480   0.879   0.686   0.768
 4825TIP3    H114481   0.930   0.659   0.845
 4825TIP3    H214482   0.792   0.706   0.802
 4826TIP3   OH214483   2.905   1.608   5.161
 4826TIP3    H114484   2.957   1.674   5.115
 4826TIP3    H214485   2.965   1.571   5.226
 4827TIP3   OH214486   3.981   4.987   1.385
 4827TIP3    H114487   3.936   4.946   1.312
 4827TIP3    H214488   4.002   5.075   1.354
 4828TIP3   OH214489   4.306   1.588   3.457
 4828TIP3    H114490   4.230   1.647   3.446
 4828TIP3    H214491   4.355   1.598   3.376
 4829TIP3   OH214492   0.364   0.927   3.016
 4829TIP3    H114493   0.459   0.937   3.015
 4829TIP3    H214494   0.343   0.899   3.105
 4830TIP3   OH214495   1.475   3.437   3.273
 4830TIP3    H114496   1.530   3.500   3.228
 4830TIP3    H214497   1.449   3.481   3.354
 4831TIP3   OH214498   3.884   2.006   3.672
 4831TIP3    H114499   3.833   2.086   3.676
 4831TIP3    H214500   3.956   2.026   3.612
 4832TIP3   OH214501   1.433   5.428   4.670
 4832TIP3    H114502   1.510   5.440   4.725
 4832TIP3    H214503   1.468   5.411   4.583
 4833TIP3   OH214504   4.581   5.365   1.683
 4833TIP3    H114505   4.496   5.320   1.685
 4833TIP3    H214506   4.570   5.435   1.619
 4834TIP3   OH214507   2.170   3.958   3.410
 4834TIP3    H114508   2.111   3.986   3.341
 4834TIP3    H214509   2.118   3.964   3.490
 4835TIP3   OH214510   1.415   5.284   1.056
 4835TIP3    H114511   1.478   5.257   0.990
 4835TIP3    H214512   1.453   5.363   1.094
 4836TIP3   OH214513   3.305   4.247   3.425
 4836TIP3    H114514   3.316   4.160   3.463
 4836TIP3    H214515   3.384   4.261   3.374
 4837TIP3   OH214516   3.308   3.739   1.190
 4837TIP3    H114517   3.375   3.698   1.246
 4837TIP3    H214518   3.334   3.714   1.101
 4838TIP3   OH214519   1.263   1.231   2.786
 4838TIP3    H114520   1.318   1.288   2.840
 4838TIP3    H214521   1.244   1.283   2.708
 4839TIP3   OH214522   3.734   3.651   0.130
 4839TIP3    H114523   3.721   3.590   0.058
 4839TIP3    H214524   3.749   3.735   0.087
 4840TIP3   OH214525   2.037   1.492   0.032
 4840TIP3    H114526   2.051   1.455   0.119
 4840TIP3    H214527   2.064   1.424  -0.029
 4841TIP3   OH214528   5.563   4.254   2.758
 4841TIP3    H114529   5.521   4.336   2.731
 4841TIP3    H214530   5.621   4.232   2.686
 4842TIP3   OH214531   4.023   2.555   2.650
 4842TIP3    H114532   4.040   2.468   2.614
 4842TIP3    H214533   4.109   2.594   2.662
 4843TIP3   OH214534   6.084   3.226   3.987
 4843TIP3    H114535   6.044   3.244   3.902
 4843TIP3    H214536   6.029   3.271   4.050
 4844TIP3   OH214537   2.683   5.287   2.145
 4844TIP3    H114538   2.599   5.266   2.187
 4844TIP3    H214539   2.720   5.357   2.199
 4845TIP3   OH214540   4.922   4.543   2.218
 4845TIP3    H114541   4.866   4.521   2.292
 4845TIP3    H214542   4.903   4.475   2.153
 4846TIP3   OH214543   0.712   5.949   1.719
 4846TIP3    H114544   0.736   6.041   1.717
 4846TIP3    H214545   0.791   5.904   1.746
 4847TIP3   OH214546   0.580   0.878   4.230
 4847TIP3    H114547   0.672   0.897   4.210
 4847TIP3    H214548   0.542   0.962   4.254
 4848TIP3   OH214549   1.473   4.179   1.738
 4848TIP3    H114550   1.536   4.199   1.670
 4848TIP3    H214551   1.494   4.240   1.809
 4849TIP3   OH214552   5.127   3.018   2.618
 4849TIP3    H114553   5.191   3.079   2.580
 4849TIP3    H214554   5.143   2.935   2.571
 4850TIP3   OH214555   0.771   4.480   4.572
 4850TIP3    H114556   0.786   4.479   4.666
 4850TIP3    H214557   0.726   4.563   4.556
 4851TIP3   OH214558   2.889   2.097   3.531
 4851TIP3    H114559   2.864   2.161   3.598
 4851TIP3    H214560   2.954   2.041   3.575
 4852TIP3   OH214561   3.302   4.933   0.549
 4852TIP3    H114562   3.255   4.953   0.630
 4852TIP3    H214563   3.257   4.856   0.514
 4853TIP3   OH214564   5.821   3.941   2.551
 4853TIP3    H114565   5.906   3.906   2.577
 4853TIP3    H214566   5.762   3.865   2.551
 4854TIP3   OH214567   3.931   4.656   2.877
 4854TIP3    H114568   3.931   4.743   2.918
 4854TIP3    H214569   3.999   4.661   2.810
 4855TIP3   OH214570   5.270   4.669   4.323
 4855TIP3    H114571   5.178   4.643   4.315
 4855TIP3    H214572   5.308   4.649   4.237
 4856TIP3   OH214573   3.401   3.506   3.720
 4856TIP3    H114574   3.496   3.510   3.715
 4856TIP3    H214575   3.373   3.596   3.736
 4857TIP3   OH214576   4.669   3.851   3.633
 4857TIP3    H114577   4.685   3.791   3.706
 4857TIP3    H214578   4.664   3.795   3.556
 4858TIP3   OH214579   1.696   0.995   3.475
 4858TIP3    H114580   1.713   0.927   3.409
 4858TIP3    H214581   1.685   0.947   3.557
 4859TIP3   OH214582   0.270   5.183   0.674
 4859TIP3    H114583   0.287   5.262   0.623
 4859TIP3    H214584   0.264   5.214   0.765
 4860TIP3   OH214585   5.536   5.918   4.030
 4860TIP3    H114586   5.521   5.856   3.960
 4860TIP3    H214587   5.622   5.895   4.065
 4861TIP3   OH214588   5.235   1.427   2.578
 4861TIP3    H114589   5.293   1.378   2.520
 4861TIP3    H214590   5.243   1.384   2.663
 4862TIP3   OH214591   0.961   3.126   1.805
 4862TIP3    H114592   0.896   3.073   1.852
 4862TIP3    H214593   0.911   3.166   1.733
 4863TIP3   OH214594   1.963   0.207   1.715
 4863TIP3    H114595   1.902   0.263   1.765
 4863TIP3    H214596   2.027   0.178   1.780
 4864TIP3   OH214597   4.804   1.917   1.374
 4864TIP3    H114598   4.818   1.824   1.389
 4864TIP3    H214599   4.869   1.941   1.308
 4865TIP3   OH214600   0.025   4.670   2.272
 4865TIP3    H114601  -0.052   4.701   2.224
 4865TIP3    H214602   0.014   4.575   2.277
 4866TIP3   OH214603   5.490   1.079   3.959
 4866TIP3    H114604   5.467   1.073   3.866
 4866TIP3    H214605   5.462   0.996   3.996
 4867TIP3   OH214606   0.032   1.938   4.796
 4867TIP3    H114607   0.074   1.984   4.868
 4867TIP3    H214608   0.095   1.942   4.724
 4868TIP3   OH214609   4.356   2.136   2.071
 4868TIP3    H114610   4.364   2.135   1.976
 4868TIP3    H214611   4.331   2.046   2.093
 4869TIP3   OH214612   4.058   4.626   1.413
 4869TIP3    H114613   4.085   4.698   1.471
 4869TIP3    H214614   3.977   4.593   1.452
 4870TIP3   OH214615   4.394   3.738   3.289
 4870TIP3    H114616   4.464   3.706   3.346
 4870TIP3    H214617   4.438   3.757   3.206
 4871TIP3   OH214618   6.073   3.071   3.302
 4871TIP3    H114619   6.148   3.027   3.262
 4871TIP3    H214620   6.028   3.113   3.230
 4872TIP3   OH214621   4.497   0.798   4.482
 4872TIP3    H114622   4.443   0.746   4.542
 4872TIP3    H214623   4.449   0.880   4.471
 4873TIP3   OH214624   2.718   2.474   0.731
 4873TIP3    H114625   2.771   2.393   0.735
 4873TIP3    H214626   2.763   2.535   0.789
 4874TIP3   OH214627   5.338   0.387   0.012
 4874TIP3    H114628   5.291   0.308   0.039
 4874TIP3    H214629   5.274   0.437  -0.038
 4875TIP3   OH214630   2.654   4.849   3.518
 4875TIP3    H114631   2.569   4.886   3.494
 4875TIP3    H214632   2.633   4.778   3.578
 4876TIP3   OH214633   4.804   5.654   4.703
 4876TIP3    H114634   4.848   5.659   4.618
 4876TIP3    H214635   4.876   5.648   4.766
 4877TIP3   OH214636   6.010   3.948   4.842
 4877TIP3    H114637   6.052   3.934   4.757
 4877TIP3    H214638   5.994   3.860   4.876
 4878TIP3   OH214639   2.717   4.401   1.412
 4878TIP3    H114640   2.657   4.326   1.409
 4878TIP3    H214641   2.667   4.473   1.374
 4879TIP3   OH214642   5.369   4.092   2.090
 4879TIP3    H114643   5.391   4.001   2.108
 4879TIP3    H214644   5.421   4.142   2.153
 4880TIP3   OH214645   5.174   3.469   4.231
 4880TIP3    H114646   5.085   3.442   4.211
 4880TIP3    H214647   5.171   3.500   4.321
 4881TIP3   OH214648   5.755   0.596   3.938
 4881TIP3    H114649   5.694   0.663   3.909
 4881TIP3    H214650   5.700   0.532   3.984
 4882TIP3   OH214651   3.736   0.494   3.084
 4882TIP3    H114652   3.760   0.587   3.080
 4882TIP3    H214653   3.660   0.491   3.141
 4883TIP3   OH214654   4.621   4.601   4.943
 4883TIP3    H114655   4.631   4.506   4.936
 4883TIP3    H214656   4.527   4.613   4.957
 4884TIP3   OH214657   4.448   3.775   1.336
 4884TIP3    H114658   4.455   3.693   1.288
 4884TIP3    H214659   4.503   3.762   1.414
 4885TIP3   OH214660   4.971   0.927  -0.036
 4885TIP3    H114661   5.008   0.900   0.048
 4885TIP3    H214662   4.991   0.855  -0.096
 4886TIP3   OH214663   3.578   1.975   3.636
 4886TIP3    H114664   3.524   2.019   3.570
 4886TIP3    H214665   3.527   1.983   3.717
 4887TIP3   OH214666   5.598   1.633   1.846
 4887TIP3    H114667   5.680   1.682   1.835
 4887TIP3    H214668   5.625   1.541   1.844
 4888TIP3   OH214669   0.493   4.555   4.725
 4888TIP3    H114670   0.483   4.460   4.723
 4888TIP3    H214671   0.461   4.581   4.811
 4889TIP3   OH214672   5.588   4.192   2.293
 4889TIP3    H114673   5.559   4.283   2.297
 4889TIP3    H214674   5.626   4.175   2.379
 4890TIP3   OH214675   5.678   0.971   0.683
 4890TIP3    H114676   5.623   0.996   0.757
 4890TIP3    H214677   5.766   0.960   0.720
 4891TIP3   OH214678   4.251   1.044   4.650
 4891TIP3    H114679   4.197   0.994   4.589
 4891TIP3    H214680   4.242   1.135   4.622
 4892TIP3   OH214681   4.293   3.573   4.710
 4892TIP3    H114682   4.229   3.513   4.750
 4892TIP3    H214683   4.333   3.618   4.784
 4893TIP3   OH214684   0.407   1.474   0.491
 4893TIP3    H114685   0.477   1.523   0.533
 4893TIP3    H214686   0.382   1.529   0.416
 4894TIP3   OH214687   5.346   0.146   2.750
 4894TIP3    H114688   5.395   0.152   2.668
 4894TIP3    H214689   5.412   0.122   2.815
 4895TIP3   OH214690   3.032   2.572   3.937
 4895TIP3    H114691   3.011   2.479   3.929
 4895TIP3    H214692   3.099   2.587   3.870
 4896TIP3   OH214693   2.477   1.505   4.767
 4896TIP3    H114694   2.569   1.477   4.761
 4896TIP3    H214695   2.450   1.515   4.675
 4897TIP3   OH214696   3.104   4.644   4.530
 4897TIP3    H114697   3.035   4.655   4.464
 4897TIP3    H214698   3.173   4.704   4.503
 4898TIP3   OH214699   4.854   4.830   1.290
 4898TIP3    H114700   4.774   4.780   1.272
 4898TIP3    H214701   4.880   4.864   1.204
 4899TIP3   OH214702   3.879   5.489   3.835
 4899TIP3    H114703   3.887   5.481   3.740
 4899TIP3    H214704   3.957   5.537   3.861
 4900TIP3   OH214705   4.498   2.735   4.406
 4900TIP3    H114706   4.451   2.791   4.344
 4900TIP3    H214707   4.583   2.777   4.417
 4901TIP3   OH214708   3.080   3.376   4.888
 4901TIP3    H114709   3.130   3.303   4.924
 4901TIP3    H214710   3.145   3.444   4.872
 4902TIP3   OH214711   1.192   0.455   3.291
 4902TIP3    H114712   1.147   0.404   3.359
 4902TIP3    H214713   1.246   0.518   3.339
 4903TIP3   OH214714   2.435   4.298   2.329
 4903TIP3    H114715   2.508   4.360   2.333
 4903TIP3    H214716   2.427   4.265   2.418
 4904TIP3   OH214717   3.900   3.431   2.060
 4904TIP3    H114718   3.947   3.421   2.143
 4904TIP3    H214719   3.826   3.488   2.080
 4905TIP3   OH214720   5.103   5.971   4.648
 4905TIP3    H114721   5.033   5.955   4.584
 4905TIP3    H214722   5.178   5.921   4.615
 4906TIP3   OH214723   4.454   4.849   0.045
 4906TIP3    H114724   4.477   4.892  -0.038
 4906TIP3    H214725   4.487   4.759   0.035
 4907TIP3   OH214726   6.133   2.396   3.165
 4907TIP3    H114727   6.212   2.445   3.186
 4907TIP3    H214728   6.147   2.310   3.204
 4908TIP3   OH214729   4.368   5.235   4.295
 4908TIP3    H114730   4.355   5.208   4.204
 4908TIP3    H214731   4.463   5.242   4.304
 4909TIP3   OH214732   3.512   3.911   4.908
 4909TIP3    H114733   3.585   3.856   4.938
 4909TIP3    H214734   3.506   3.893   4.814
 4910TIP3   OH214735   6.307   2.445   1.304
 4910TIP3    H114736   6.366   2.494   1.361
 4910TIP3    H214737   6.236   2.417   1.361
 4911TIP3   OH214738   4.352   0.249   0.264
 4911TIP3    H114739   4.429   0.262   0.320
 4911TIP3    H214740   4.278   0.244   0.325
 4912TIP3   OH214741   5.631   4.835   2.926
 4912TIP3    H114742   5.668   4.768   2.869
 4912TIP3    H214743   5.541   4.845   2.895
 4913TIP3   OH214744   5.463   3.062   4.151
 4913TIP3    H114745   5.553   3.090   4.132
 4913TIP3    H214746   5.421   3.141   4.186
 4914TIP3   OH214747   2.329   3.880   2.054
 4914TIP3    H114748   2.408   3.934   2.050
 4914TIP3    H214749   2.264   3.936   2.098
 4915TIP3   OH214750   2.778   2.404   4.997
 4915TIP3    H114751   2.851   2.466   5.001
 4915TIP3    H214752   2.712   2.440   5.057
 4916TIP3   OH214753   3.418   2.529   3.608
 4916TIP3    H114754   3.357   2.497   3.542
 4916TIP3    H214755   3.465   2.600   3.565
 4917TIP3   OH214756   5.498   5.585   3.529
 4917TIP3    H114757   5.576   5.608   3.580
 4917TIP3    H214758   5.521   5.502   3.487
 4918TIP3   OH214759   3.409   0.278   0.600
 4918TIP3    H114760   3.393   0.372   0.594
 4918TIP3    H214761   3.384   0.243   0.515
 4919TIP3   OH214762   2.279   5.503   0.941
 4919TIP3    H114763   2.234   5.525   0.860
 4919TIP3    H214764   2.362   5.551   0.937
 4920TIP3   OH214765   3.027   4.921   4.196
 4920TIP3    H114766   3.120   4.943   4.186
 4920TIP3    H214767   2.991   4.991   4.250
 4921TIP3   OH214768   3.181   3.246   2.291
 4921TIP3    H114769   3.260   3.242   2.237
 4921TIP3    H214770   3.124   3.308   2.246
 4922TIP3   OH214771   1.533   1.410   4.872
 4922TIP3    H114772   1.481   1.379   4.946
 4922TIP3    H214773   1.498   1.361   4.797
 4923TIP3   OH214774   2.865   1.052   4.802
 4923TIP3    H114775   2.890   1.135   4.843
 4923TIP3    H214776   2.877   0.986   4.871
 4924TIP3   OH214777   3.609   2.319   1.696
 4924TIP3    H114778   3.667   2.295   1.768
 4924TIP3    H214779   3.556   2.391   1.730
 4925TIP3   OH214780   2.814   2.377   1.725
 4925TIP3    H114781   2.837   2.326   1.802
 4925TIP3    H214782   2.745   2.436   1.755
 4926TIP3   OH214783   5.091   4.705   1.505
 4926TIP3    H114784   5.088   4.801   1.498
 4926TIP3    H214785   5.050   4.674   1.424
 4927TIP3   OH214786   4.081   5.380   2.886
 4927TIP3    H114787   4.011   5.337   2.836
 4927TIP3    H214788   4.041   5.460   2.921
 4928TIP3   OH214789   4.491   5.641   1.624
 4928TIP3    H114790   4.464   5.691   1.547
 4928TIP3    H214791   4.473   5.699   1.698
 4929TIP3   OH214792   2.915   4.914   3.599
 4929TIP3    H114793   2.937   4.971   3.525
 4929TIP3    H214794   2.822   4.892   3.586
 4930TIP3   OH214795   5.935   4.374   3.794
 4930TIP3    H114796   5.997   4.315   3.752
 4930TIP3    H214797   5.950   4.363   3.887
 4931TIP3   OH214798   1.666   3.728   3.712
 4931TIP3    H114799   1.677   3.677   3.792
 4931TIP3    H214800   1.572   3.727   3.696
 4932TIP3   OH214801   0.706   1.803   4.996
 4932TIP3    H114802   0.668   1.773   5.079
 4932TIP3    H214803   0.690   1.730   4.936
 4933TIP3   OH214804   3.359   4.062   0.640
 4933TIP3    H114805   3.429   4.076   0.704
 4933TIP3    H214806   3.326   3.974   0.661
 4934TIP3   OH214807   1.807   1.377   2.747
 4934TIP3    H114808   1.746   1.449   2.762
 4934TIP3    H214809   1.790   1.350   2.657
 4935TIP3   OH214810   1.643   1.198   0.959
 4935TIP3    H114811   1.622   1.203   1.052
 4935TIP3    H214812   1.564   1.232   0.916
 4936TIP3   OH214813   5.725   2.338   2.785
 4936TIP3    H114814   5.790   2.331   2.715
 4936TIP3    H214815   5.655   2.391   2.747
 4937TIP3   OH214816   1.041   5.209   0.282
 4937TIP3    H114817   1.097   5.166   0.217
 4937TIP3    H214818   1.048   5.302   0.262
 4938TIP3   OH214819   0.981   0.273   0.965
 4938TIP3    H114820   1.045   0.340   0.941
 4938TIP3    H214821   0.973   0.281   1.061
 4939TIP3   OH214822   4.593   0.774   2.779
 4939TIP3    H114823   4.597   0.686   2.816
 4939TIP3    H214824   4.656   0.824   2.828
 4940TIP3   OH214825   0.752   2.928   1.594
 4940TIP3    H114826   0.758   3.014   1.554
 4940TIP3    H214827   0.837   2.914   1.635
 4941TIP3   OH214828   4.571   2.634   0.594
 4941TIP3    H114829   4.597   2.557   0.542
 4941TIP3    H214830   4.507   2.601   0.656
 4942TIP3   OH214831   6.316   5.746   4.764
 4942TIP3    H114832   6.236   5.753   4.815
 4942TIP3    H214833   6.294   5.784   4.679
 4943TIP3   OH214834   2.781   4.515   2.964
 4943TIP3    H114835   2.877   4.510   2.967
 4943TIP3    H214836   2.761   4.605   2.989
 4944TIP3   OH214837   4.149   0.375   1.228
 4944TIP3    H114838   4.138   0.327   1.146
 4944TIP3    H214839   4.060   0.392   1.258
 4945TIP3   OH214840   0.507   4.184   3.331
 4945TIP3    H114841   0.477   4.271   3.355
 4945TIP3    H214842   0.447   4.124   3.376
 4946TIP3   OH214843   5.310   2.762   3.813
 4946TIP3    H114844   5.400   2.732   3.800
 4946TIP3    H214845   5.274   2.703   3.880
 4947TIP3   OH214846   1.021   1.630   4.773
 4947TIP3    H114847   1.020   1.618   4.868
 4947TIP3    H214848   1.065   1.552   4.739
 4948TIP3   OH214849   5.628   5.617   3.939
 4948TIP3    H114850   5.661   5.617   3.849
 4948TIP3    H214851   5.661   5.537   3.978
 4949TIP3   OH214852   3.038   3.579   2.394
 4949TIP3    H114853   3.005   3.666   2.372
 4949TIP3    H214854   3.129   3.594   2.422
 4950TIP3   OH214855   1.918   2.688   1.504
 4950TIP3    H114856   1.902   2.595   1.493
 4950TIP3    H214857   1.864   2.730   1.437
 4951TIP3   OH214858   2.200   0.221   0.035
 4951TIP3    H114859   2.257   0.145   0.017
 4951TIP3    H214860   2.249   0.296   0.002
 4952TIP3   OH214861   4.738   0.097   2.235
 4952TIP3    H114862   4.700   0.126   2.318
 4952TIP3    H214863   4.679   0.131   2.168
 4953TIP3   OH214864   0.092   2.164   0.746
 4953TIP3    H114865   0.155   2.200   0.809
 4953TIP3    H214866   0.093   2.069   0.762
 4954TIP3   OH214867   2.233   0.682   3.392
 4954TIP3    H114868   2.214   0.676   3.298
 4954TIP3    H214869   2.232   0.591   3.423
 4955TIP3   OH214870   2.459   3.794   0.702
 4955TIP3    H114871   2.554   3.794   0.688
 4955TIP3    H214872   2.441   3.711   0.746
 4956TIP3   OH214873   5.383   5.670   2.630
 4956TIP3    H114874   5.344   5.602   2.685
 4956TIP3    H214875   5.319   5.741   2.631
 4957TIP3   OH214876   6.324   5.532   4.419
 4957TIP3    H114877   6.246   5.492   4.380
 4957TIP3    H214878   6.394   5.470   4.402
 4958TIP3   OH214879   3.150   4.110   3.004
 4958TIP3    H114880   3.162   4.125   3.098
 4958TIP3    H214881   3.060   4.135   2.986
 4959TIP3   OH214882   3.164   4.647   0.989
 4959TIP3    H114883   3.094   4.638   0.924
 4959TIP3    H214884   3.151   4.734   1.026
 4960TIP3   OH214885   3.980   1.105   4.421
 4960TIP3    H114886   3.925   1.160   4.366
 4960TIP3    H214887   3.982   1.150   4.506
 4961TIP3   OH214888   5.024   4.715   3.071
 4961TIP3    H114889   4.953   4.661   3.105
 4961TIP3    H214890   5.054   4.669   2.993
 4962TIP3   OH214891   2.690   3.962   1.185
 4962TIP3    H114892   2.605   3.948   1.145
 4962TIP3    H214893   2.745   3.997   1.115
 4963TIP3   OH214894   0.071   4.265   2.438
 4963TIP3    H114895  -0.005   4.310   2.403
 4963TIP3    H214896   0.142   4.329   2.432
 4964TIP3   OH214897   1.784   5.138   4.705
 4964TIP3    H114898   1.880   5.137   4.708
 4964TIP3    H214899   1.760   5.046   4.694
 4965TIP3   OH214900   2.376   1.785   0.665
 4965TIP3    H114901   2.434   1.740   0.603
 4965TIP3    H214902   2.428   1.794   0.744
 4966TIP3   OH214903   3.332   3.444   0.474
 4966TIP3    H114904   3.260   3.462   0.413
 4966TIP3    H214905   3.400   3.507   0.451
 4967TIP3   OH214906   0.084   0.509   4.638
 4967TIP3    H114907   0.125   0.425   4.657
 4967TIP3    H214908   0.144   0.553   4.578
 4968TIP3   OH214909   3.277   0.851   0.651
 4968TIP3    H114910   3.355   0.884   0.606
 4968TIP3    H214911   3.279   0.757   0.636
 4969TIP3   OH214912   2.320   1.031   4.024
 4969TIP3    H114913   2.232   1.041   4.058
 4969TIP3    H214914   2.326   1.095   3.953
 4970TIP3   OH214915   1.389   2.043   4.491
 4970TIP3    H114916   1.316   2.033   4.430
 4970TIP3    H214917   1.357   2.102   4.558
 4971TIP3   OH214918   0.103   4.913   0.990
 4971TIP3    H114919   0.052   4.840   0.955
 4971TIP3    H214920   0.106   4.977   0.919
 4972TIP3   OH214921   2.614   4.412   4.835
 4972TIP3    H114922   2.571   4.465   4.768
 4972TIP3    H214923   2.688   4.371   4.789
 4973TIP3   OH214924   2.437   2.871   3.619
 4973TIP3    H114925   2.524   2.849   3.587
 4973TIP3    H214926   2.430   2.966   3.606
 4974TIP3   OH214927   1.304   2.744   4.368
 4974TIP3    H114928   1.348   2.827   4.353
 4974TIP3    H214929   1.211   2.765   4.368
 4975TIP3   OH214930   0.539   0.976   1.183
 4975TIP3    H114931   0.586   0.946   1.261
 4975TIP3    H214932   0.588   1.053   1.154
 4976TIP3   OH214933   3.876   2.810   1.158
 4976TIP3    H114934   3.863   2.817   1.253
 4976TIP3    H214935   3.966   2.778   1.149
 4977TIP3   OH214936   5.493   3.977   5.139
 4977TIP3    H114937   5.444   4.039   5.085
 4977TIP3    H214938   5.495   3.897   5.087
 4978TIP3   OH214939   4.799   5.831   1.440
 4978TIP3    H114940   4.826   5.872   1.357
 4978TIP3    H214941   4.866   5.764   1.455
 4979TIP3   OH214942   0.615   3.668   1.680
 4979TIP3    H114943   0.623   3.763   1.679
 4979TIP3    H214944   0.521   3.652   1.670
 4980TIP3   OH214945   1.136   0.571   3.036
 4980TIP3    H114946   1.149   0.538   3.125
 4980TIP3    H214947   1.056   0.623   3.040
 4981TIP3   OH214948   5.615   0.156   1.685
 4981TIP3    H114949   5.697   0.107   1.676
 4981TIP3    H214950   5.626   0.207   1.766
 4982TIP3   OH214951   5.130   5.027   4.909
 4982TIP3    H114952   5.114   4.946   4.861
 4982TIP3    H214953   5.192   5.075   4.853
 4983TIP3   OH214954   0.743   3.366   1.966
 4983TIP3    H114955   0.698   3.376   2.051
 4983TIP3    H214956   0.834   3.387   1.985
 4984TIP3   OH214957   0.416   2.577   2.792
 4984TIP3    H114958   0.495   2.524   2.800
 4984TIP3    H214959   0.443   2.664   2.821
 4985TIP3   OH214960   1.981   4.320   2.963
 4985TIP3    H114961   1.900   4.369   2.955
 4985TIP3    H214962   2.047   4.386   2.986
 4986TIP3   OH214963   0.414   1.019   4.891
 4986TIP3    H114964   0.438   0.936   4.932
 4986TIP3    H214965   0.354   0.996   4.821
 4987TIP3   OH214966   1.055   0.302   1.230
 4987TIP3    H114967   1.023   0.382   1.272
 4987TIP3    H214968   1.150   0.307   1.236
 4988TIP3   OH214969   2.030   1.489   1.523
 4988TIP3    H114970   2.096   1.421   1.518
 4988TIP3    H214971   2.041   1.540   1.443
 4989TIP3   OH214972   1.582   3.624   4.990
 4989TIP3    H114973   1.498   3.664   4.968
 4989TIP3    H214974   1.607   3.664   5.073
 4990TIP3   OH214975   4.869   2.103   1.127
 4990TIP3    H114976   4.945   2.152   1.156
 4990TIP3    H214977   4.795   2.143   1.173
 4991TIP3   OH214978   4.902   4.748   4.583
 4991TIP3    H114979   4.815   4.741   4.541
 4991TIP3    H214980   4.960   4.700   4.524
 4992TIP3   OH214981   5.814   2.085   3.441
 4992TIP3    H114982   5.816   2.027   3.517
 4992TIP3    H214983   5.794   2.027   3.368
 4993TIP3   OH214984   0.171   0.540   4.377
 4993TIP3    H114985   0.256   0.575   4.352
 4993TIP3    H214986   0.175   0.448   4.353
 4994TIP3   OH214987   4.760   0.214   2.894
 4994TIP3    H114988   4.799   0.247   2.975
 4994TIP3    H214989   4.815   0.140   2.870
 4995TIP3   OH214990   6.272   0.306   2.768
 4995TIP3    H114991   6.256   0.384   2.714
 4995TIP3    H214992   6.189   0.290   2.812
 4996TIP3   OH214993   4.022   4.383   2.689
 4996TIP3    H114994   3.972   4.315   2.643
 4996TIP3    H214995   4.025   4.456   2.628
 4997TIP3   OH214996   3.406   1.043   1.599
 4997TIP3    H114997   3.379   1.062   1.509
 4997TIP3    H214998   3.379   1.120   1.649
 4998TIP3   OH214999   2.566   0.831   1.399
 4998TIP3    H115000   2.530   0.744   1.388
 4998TIP3    H215001   2.658   0.817   1.420
 4999TIP3   OH215002   2.734   4.943   4.054
 4999TIP3    H115003   2.710   5.021   4.004
 4999TIP3    H215004   2.828   4.935   4.043
 5000TIP3   OH215005   3.581   0.981   0.596
 5000TIP3    H115006   3.517   1.029   0.543
 5000TIP3    H215007   3.599   1.040   0.670
 5001TIP3   OH215008   1.774   1.553   4.800
 5001TIP3    H115009   1.820   1.477   4.837
 5001TIP3    H215010   1.689   1.552   4.844
 5002TIP3   OH215011   0.297   0.198   3.109
 5002TIP3    H115012   0.265   0.175   3.196
 5002TIP3    H215013   0.290   0.294   3.105
 5003TIP3   OH215014   6.108   5.764   3.498
 5003TIP3    H115015   6.050   5.837   3.520
 5003TIP3    H215016   6.083   5.740   3.409
 5004TIP3   OH215017   4.972   2.968   5.107
 5004TIP3    H115018   5.044   3.030   5.120
 5004TIP3    H215019   4.921   2.973   5.188
 5005TIP3   OH215020   1.160   4.854   4.995
 5005TIP3    H115021   1.068   4.860   4.969
 5005TIP3    H215022   1.159   4.861   5.090
 5006TIP3   OH215023   2.448   4.940   3.953
 5006TIP3    H115024   2.541   4.917   3.942
 5006TIP3    H215025   2.411   4.867   4.002
 5007TIP3   OH215026   2.886   5.510   2.816
 5007TIP3    H115027   2.923   5.596   2.795
 5007TIP3    H215028   2.814   5.500   2.754
 5008TIP3   OH215029   5.743   4.181   3.185
 5008TIP3    H115030   5.774   4.270   3.204
 5008TIP3    H215031   5.767   4.167   3.093
 5009TIP3   OH215032   5.966   1.852   1.334
 5009TIP3    H115033   6.026   1.906   1.385
 5009TIP3    H215034   5.896   1.831   1.396
 5010TIP3   OH215035   2.358   0.730   0.277
 5010TIP3    H115036   2.325   0.688   0.356
 5010TIP3    H215037   2.291   0.795   0.255
 5011TIP3   OH215038   3.425   3.151   3.943
 5011TIP3    H115039   3.460   3.171   4.030
 5011TIP3    H215040   3.375   3.229   3.919
 5012TIP3   OH215041   1.748   4.452   2.903
 5012TIP3    H115042   1.741   4.477   2.811
 5012TIP3    H215043   1.730   4.533   2.951
 5013TIP3   OH215044   3.720   4.378   3.814
 5013TIP3    H115045   3.641   4.352   3.766
 5013TIP3    H215046   3.700   4.466   3.846
 5014TIP3   OH215047   4.689   2.307   3.992
 5014TIP3    H115048   4.761   2.367   3.971
 5014TIP3    H215049   4.725   2.250   4.061
 5015TIP3   OH215050   4.141   5.358   0.560
 5015TIP3    H115051   4.097   5.437   0.589
 5015TIP3    H215052   4.231   5.368   0.592
 5016TIP3   OH215053   1.355   2.899   4.064
 5016TIP3    H115054   1.283   2.835   4.057
 5016TIP3    H215055   1.320   2.978   4.024
 5017TIP3   OH215056   6.176   2.286   3.660
 5017TIP3    H115057   6.223   2.258   3.738
 5017TIP3    H215058   6.182   2.382   3.661
 5018TIP3   OH215059   5.965   4.674   3.889
 5018TIP3    H115060   5.980   4.581   3.872
 5018TIP3    H215061   5.987   4.685   3.982
 5019TIP3   OH215062   5.567   0.813   5.179
 5019TIP3    H115063   5.591   0.877   5.112
 5019TIP3    H215064   5.524   0.743   5.132
 5020TIP3   OH215065   4.807   5.236   4.580
 5020TIP3    H115066   4.772   5.176   4.645
 5020TIP3    H215067   4.901   5.217   4.577
 5021TIP3   OH215068   4.317   2.221   2.537
 5021TIP3    H115069   4.317   2.317   2.540
 5021TIP3    H215070   4.409   2.198   2.540
 5022TIP3   OH215071   5.867   4.457   3.176
 5022TIP3    H115072   5.942   4.507   3.144
 5022TIP3    H215073   5.794   4.519   3.175
 5023TIP3   OH215074   5.060   0.189   3.093
 5023TIP3    H115075   4.982   0.161   3.141
 5023TIP3    H215076   5.131   0.134   3.129
 5024TIP3   OH215077   2.232   3.487   1.542
 5024TIP3    H115078   2.180   3.408   1.533
 5024TIP3    H215079   2.294   3.466   1.613
 5025TIP3   OH215080   0.064   0.191   0.283
 5025TIP3    H115081   0.027   0.126   0.343
 5025TIP3    H215082   0.148   0.214   0.322
 5026TIP3   OH215083   5.315   3.844   2.829
 5026TIP3    H115084   5.325   3.920   2.772
 5026TIP3    H215085   5.259   3.875   2.901
 5027TIP3   OH215086   1.105   2.118   4.591
 5027TIP3    H115087   1.011   2.137   4.591
 5027TIP3    H215088   1.118   2.061   4.667
 5028TIP3   OH215089   5.769   5.261   4.093
 5028TIP3    H115090   5.798   5.183   4.141
 5028TIP3    H215091   5.780   5.333   4.155
 5029TIP3   OH215092   3.390   5.419   1.026
 5029TIP3    H115093   3.424   5.446   1.111
 5029TIP3    H215094   3.328   5.488   1.001
 5030TIP3   OH215095   3.810   5.520   5.136
 5030TIP3    H115096   3.794   5.528   5.042
 5030TIP3    H215097   3.750   5.583   5.176
 5031TIP3   OH215098   4.084   3.290   1.604
 5031TIP3    H115099   4.044   3.370   1.638
 5031TIP3    H215100   4.149   3.321   1.541
 5032TIP3   OH215101   3.029   3.590   1.738
 5032TIP3    H115102   3.070   3.538   1.669
 5032TIP3    H215103   2.956   3.633   1.694
 5033TIP3   OH215104   5.429   1.043   2.080
 5033TIP3    H115105   5.478   1.017   2.158
 5033TIP3    H215106   5.339   1.053   2.111
 5034TIP3   OH215107   1.295   5.761   3.140
 5034TIP3    H115108   1.238   5.767   3.217
 5034TIP3    H215109   1.247   5.808   3.071
 5035TIP3   OH215110   0.879   5.077   0.752
 5035TIP3    H115111   0.817   5.028   0.806
 5035TIP3    H215112   0.883   5.029   0.669
 5036TIP3   OH215113   5.066   1.039   4.910
 5036TIP3    H115114   5.097   1.117   4.955
 5036TIP3    H215115   5.041   1.069   4.823
 5037TIP3   OH215116   2.650   5.159   0.803
 5037TIP3    H115117   2.616   5.155   0.892
 5037TIP3    H215118   2.600   5.229   0.761
 5038TIP3   OH215119   6.195   0.852   2.522
 5038TIP3    H115120   6.171   0.874   2.432
 5038TIP3    H215121   6.118   0.876   2.574
 5039TIP3   OH215122   3.846   0.704   4.756
 5039TIP3    H115123   3.797   0.713   4.675
 5039TIP3    H215124   3.938   0.714   4.730
 5040TIP3   OH215125   0.871   3.939   4.586
 5040TIP3    H115126   0.890   3.992   4.664
 5040TIP3    H215127   0.836   3.858   4.621
 5041TIP3   OH215128   4.149   3.775   2.177
 5041TIP3    H115129   4.228   3.828   2.164
 5041TIP3    H215130   4.084   3.837   2.209
 5042TIP3   OH215131   4.234   4.447   1.880
 5042TIP3    H115132   4.269   4.380   1.821
 5042TIP3    H215133   4.148   4.413   1.906
 5043TIP3   OH215134   0.733   0.159   0.875
 5043TIP3    H115135   0.823   0.172   0.903
 5043TIP3    H215136   0.706   0.244   0.841
 5044TIP3   OH215137   0.365   5.790   1.148
 5044TIP3    H115138   0.296   5.836   1.101
 5044TIP3    H215139   0.320   5.719   1.194
 5045TIP3   OH215140   4.486   2.267   5.146
 5045TIP3    H115141   4.436   2.310   5.215
 5045TIP3    H215142   4.420   2.235   5.085
 5046TIP3   OH215143   1.719   0.586   4.010
 5046TIP3    H115144   1.770   0.656   4.052
 5046TIP3    H215145   1.634   0.589   4.054
 5047TIP3   OH215146   4.731   0.699   4.790
 5047TIP3    H115147   4.809   0.687   4.844
 5047TIP3    H215148   4.723   0.794   4.780
 5048TIP3   OH215149   3.399   3.380   0.137
 5048TIP3    H115150   3.409   3.425   0.053
 5048TIP3    H215151   3.488   3.375   0.172
 5049TIP3   OH215152   3.812   0.818   0.796
 5049TIP3    H115153   3.726   0.860   0.794
 5049TIP3    H215154   3.808   0.751   0.727
 5050TIP3   OH215155   0.513   4.084   4.784
 5050TIP3    H115156   0.501   3.990   4.768
 5050TIP3    H215157   0.608   4.095   4.791
 5051TIP3   OH215158   2.781   1.596   0.593
 5051TIP3    H115159   2.856   1.604   0.534
 5051TIP3    H215160   2.809   1.642   0.673
 5052TIP3   OH215161   2.014   5.488   2.849
 5052TIP3    H115162   1.925   5.491   2.885
 5052TIP3    H215163   2.040   5.397   2.857
 5053TIP3   OH215164   4.513   5.311   1.030
 5053TIP3    H115165   4.521   5.257   1.109
 5053TIP3    H215166   4.602   5.339   1.011
 5054TIP3   OH215167   1.271   0.646   1.207
 5054TIP3    H115168   1.190   0.611   1.246
 5054TIP3    H215169   1.275   0.736   1.238
 5055TIP3   OH215170   0.788   2.408   2.067
 5055TIP3    H115171   0.806   2.364   2.150
 5055TIP3    H215172   0.774   2.500   2.091
 5056TIP3   OH215173   3.103   0.858   0.191
 5056TIP3    H115174   3.108   0.905   0.274
 5056TIP3    H215175   3.057   0.776   0.212
 5057TIP3   OH215176   4.663   5.858   4.764
 5057TIP3    H115177   4.573   5.850   4.734
 5057TIP3    H215178   4.708   5.782   4.727
 5058TIP3   OH215179   2.058   2.105   2.869
 5058TIP3    H115180   2.135   2.086   2.816
 5058TIP3    H215181   2.094   2.137   2.952
 5059TIP3   OH215182   5.567   3.236   4.517
 5059TIP3    H115183   5.510   3.161   4.501
 5059TIP3    H215184   5.655   3.200   4.518
 5060TIP3   OH215185   5.379   3.607   0.483
 5060TIP3    H115186   5.447   3.674   0.478
 5060TIP3    H215187   5.427   3.526   0.501
 5061TIP3   OH215188   4.660   5.754   0.112
 5061TIP3    H115189   4.682   5.788   0.026
 5061TIP3    H215190   4.577   5.708   0.100
 5062TIP3   OH215191   1.406   4.640   0.379
 5062TIP3    H115192   1.472   4.576   0.405
 5062TIP3    H215193   1.323   4.592   0.382
 5063TIP3   OH215194   3.724   0.171   4.315
 5063TIP3    H115195   3.667   0.244   4.340
 5063TIP3    H215196   3.779   0.206   4.246
 5064TIP3   OH215197   3.856   4.466   4.025
 5064TIP3    H115198   3.924   4.499   3.967
 5064TIP3    H215199   3.825   4.386   3.983
 5065TIP3   OH215200   4.733   3.264   4.896
 5065TIP3    H115201   4.696   3.229   4.815
 5065TIP3    H215202   4.770   3.348   4.871
 5066TIP3   OH215203   0.120   5.763   1.577
 5066TIP3    H115204   0.133   5.685   1.632
 5066TIP3    H215205   0.162   5.834   1.625
 5067TIP3   OH215206   6.026   1.430   0.248
 5067TIP3    H115207   6.051   1.339   0.268
 5067TIP3    H215208   5.986   1.425   0.161
 5068TIP3   OH215209   5.596   2.511   3.076
 5068TIP3    H115210   5.655   2.586   3.076
 5068TIP3    H215211   5.525   2.536   3.134
 5069TIP3   OH215212   4.600   1.994   4.870
 5069TIP3    H115213   4.566   2.005   4.959
 5069TIP3    H215214   4.609   1.899   4.860
 5070TIP3   OH215215   5.453   3.555   4.830
 5070TIP3    H115216   5.476   3.537   4.921
 5070TIP3    H215217   5.363   3.526   4.822
 5071TIP3   OH215218   0.723   5.877   2.041
 5071TIP3    H115219   0.805   5.917   2.071
 5071TIP3    H215220   0.749   5.790   2.010
 5072TIP3   OH215221   6.300   0.594   5.176
 5072TIP3    H115222   6.315   0.596   5.082
 5072TIP3    H215223   6.259   0.509   5.192
 5073TIP3   OH215224   5.566   0.938   2.281
 5073TIP3    H115225   5.581   0.997   2.355
 5073TIP3    H215226   5.638   0.956   2.221
 5074TIP3   OH215227   3.096   0.678   4.437
 5074TIP3    H115228   3.127   0.735   4.366
 5074TIP3    H215229   3.075   0.738   4.508
 5075TIP3   OH215230   4.122   4.934   2.079
 5075TIP3    H115231   4.192   4.972   2.027
 5075TIP3    H215232   4.110   4.846   2.043
 5076TIP3   OH215233   3.650   0.834   1.041
 5076TIP3    H115234   3.592   0.863   1.112
 5076TIP3    H215235   3.594   0.831   0.964
 5077TIP3   OH215236   4.544   2.383   2.632
 5077TIP3    H115237   4.579   2.445   2.696
 5077TIP3    H215238   4.489   2.324   2.684
 5078TIP3   OH215239   1.412   1.643   3.291
 5078TIP3    H115240   1.324   1.680   3.304
 5078TIP3    H215241   1.409   1.603   3.204
 5079TIP3   OH215242   5.428   5.291   2.935
 5079TIP3    H115243   5.446   5.283   3.029
 5079TIP3    H215244   5.499   5.243   2.893
 5080TIP3   OH215245   3.965   4.171   4.465
 5080TIP3    H115246   3.961   4.227   4.388
 5080TIP3    H215247   3.967   4.231   4.539
 5081TIP3   OH215248   4.934   0.298   1.946
 5081TIP3    H115249   4.952   0.390   1.963
 5081TIP3    H215250   4.948   0.288   1.852
 5082TIP3   OH215251   2.096   5.638   1.412
 5082TIP3    H115252   2.047   5.719   1.403
 5082TIP3    H215253   2.032   5.574   1.443
 5083TIP3   OH215254   5.199   0.041   4.580
 5083TIP3    H115255   5.249   0.015   4.658
 5083TIP3    H215256   5.206   0.137   4.579
 5084TIP3   OH215257   0.805   4.350   2.850
 5084TIP3    H115258   0.859   4.358   2.771
 5084TIP3    H215259   0.789   4.441   2.878
 5085TIP3   OH215260   5.759   0.934   1.002
 5085TIP3    H115261   5.683   0.910   1.054
 5085TIP3    H215262   5.751   1.029   0.989
 5086TIP3   OH215263   0.228   0.200   0.072
 5086TIP3    H115264   0.179   0.140   0.015
 5086TIP3    H215265   0.168   0.221   0.143
 5087TIP3   OH215266   1.382   4.177   2.620
 5087TIP3    H115267   1.346   4.210   2.702
 5087TIP3    H215268   1.313   4.193   2.555
 5088TIP3   OH215269   3.516   3.485   2.198
 5088TIP3    H115270   3.476   3.409   2.155
 5088TIP3    H215271   3.596   3.451   2.238
 5089TIP3   OH215272   3.624   4.348   0.613
 5089TIP3    H115273   3.689   4.384   0.553
 5089TIP3    H215274   3.540   4.382   0.580
 5090TIP3   OH215275   0.957   5.565   3.462
 5090TIP3    H115276   0.985   5.507   3.391
 5090TIP3    H215277   0.863   5.550   3.470
 5091TIP3   OH215278   2.739   5.770   1.163
 5091TIP3    H115279   2.750   5.838   1.096
 5091TIP3    H215280   2.645   5.767   1.179
 5092TIP3   OH215281   2.634   0.511   3.644
 5092TIP3    H115282   2.574   0.441   3.670
 5092TIP3    H215283   2.587   0.559   3.576
 5093TIP3   OH215284   5.727   2.914   4.129
 5093TIP3    H115285   5.734   3.001   4.089
 5093TIP3    H215286   5.797   2.863   4.087
 5094TIP3   OH215287   3.689   3.625   3.867
 5094TIP3    H115288   3.715   3.599   3.778
 5094TIP3    H215289   3.757   3.687   3.894
 5095TIP3   OH215290   2.690   3.573   3.490
 5095TIP3    H115291   2.766   3.567   3.548
 5095TIP3    H215292   2.709   3.648   3.434
 5096TIP3   OH215293   2.325   1.568   3.247
 5096TIP3    H115294   2.359   1.483   3.275
 5096TIP3    H215295   2.231   1.553   3.236
 5097TIP3   OH215296   2.286   4.842   3.123
 5097TIP3    H115297   2.310   4.770   3.064
 5097TIP3    H215298   2.249   4.799   3.200
 5098TIP3   OH215299   3.713   2.579   0.737
 5098TIP3    H115300   3.762   2.509   0.694
 5098TIP3    H215301   3.640   2.535   0.780
 5099TIP3   OH215302   2.796   0.383   1.025
 5099TIP3    H115303   2.777   0.476   1.038
 5099TIP3    H215304   2.881   0.370   1.068
 5100TIP3   OH215305   0.915   5.158   3.901
 5100TIP3    H115306   0.999   5.126   3.933
 5100TIP3    H215307   0.915   5.135   3.808
 5101TIP3   OH215308   0.277   3.341   1.396
 5101TIP3    H115309   0.299   3.383   1.480
 5101TIP3    H215310   0.307   3.404   1.330
 5102TIP3   OH215311   3.128   4.743   0.617
 5102TIP3    H115312   3.094   4.820   0.662
 5102TIP3    H215313   3.058   4.678   0.625
 5103TIP3   OH215314   0.713   1.850   0.320
 5103TIP3    H115315   0.745   1.917   0.259
 5103TIP3    H215316   0.688   1.777   0.264
 5104TIP3   OH215317   4.293   2.388   1.597
 5104TIP3    H115318   4.273   2.316   1.537
 5104TIP3    H215319   4.247   2.463   1.559
 5105TIP3   OH215320   2.277   2.119   2.243
 5105TIP3    H115321   2.306   2.202   2.205
 5105TIP3    H215322   2.257   2.139   2.334
 5106TIP3   OH215323   0.966   5.410   3.217
 5106TIP3    H115324   1.059   5.388   3.211
 5106TIP3    H215325   0.956   5.485   3.158
 5107TIP3   OH215326   3.270   1.276   4.401
 5107TIP3    H115327   3.177   1.287   4.381
 5107TIP3    H215328   3.288   1.341   4.469
 5108TIP3   OH215329   5.047   0.821   3.333
 5108TIP3    H115330   5.059   0.893   3.271
 5108TIP3    H215331   4.979   0.766   3.293
 5109TIP3   OH215332   3.694   4.065   2.486
 5109TIP3    H115333   3.626   4.132   2.475
 5109TIP3    H215334   3.755   4.103   2.549
 5110TIP3   OH215335   1.414   0.829   2.223
 5110TIP3    H115336   1.412   0.923   2.241
 5110TIP3    H215337   1.411   0.823   2.127
 5111TIP3   OH215338   3.654   3.394   0.296
 5111TIP3    H115339   3.716   3.458   0.260
 5111TIP3    H215340   3.684   3.379   0.386
 5112TIP3   OH215341   0.977   4.328   2.617
 5112TIP3    H115342   1.013   4.253   2.568
 5112TIP3    H215343   1.054   4.381   2.639
 5113TIP3   OH215344   0.664   2.630   0.436
 5113TIP3    H115345   0.650   2.657   0.526
 5113TIP3    H215346   0.603   2.683   0.385
 5114TIP3   OH215347   4.099   1.497   0.769
 5114TIP3    H115348   4.125   1.406   0.781
 5114TIP3    H215349   4.145   1.526   0.691
 5115TIP3   OH215350   3.230   2.567   4.500
 5115TIP3    H115351   3.275   2.647   4.474
 5115TIP3    H215352   3.224   2.515   4.420
 5116TIP3   OH215353   0.727   0.180   0.025
 5116TIP3    H115354   0.650   0.151   0.073
 5116TIP3    H215355   0.793   0.113   0.044
 5117TIP3   OH215356   3.781   5.913   2.279
 5117TIP3    H115357   3.869   5.951   2.284
 5117TIP3    H215358   3.756   5.900   2.371
 5118TIP3   OH215359   1.345   1.973   1.145
 5118TIP3    H115360   1.386   2.053   1.179
 5118TIP3    H215361   1.252   1.995   1.140
 5119TIP3   OH215362   4.248   0.647   1.156
 5119TIP3    H115363   4.260   0.555   1.180
 5119TIP3    H215364   4.174   0.647   1.095
 5120TIP3   OH215365   0.949   1.481   5.118
 5120TIP3    H115366   0.855   1.466   5.123
 5120TIP3    H215367   0.961   1.569   5.155
 5121TIP3   OH215368   0.062   3.357   0.609
 5121TIP3    H115369   0.007   3.353   0.530
 5121TIP3    H215370   0.092   3.448   0.612
 5122TIP3   OH215371   5.077   2.280   3.818
 5122TIP3    H115372   5.010   2.254   3.754
 5122TIP3    H215373   5.142   2.328   3.766
 5123TIP3   OH215374   3.477   4.291   0.878
 5123TIP3    H115375   3.404   4.287   0.817
 5123TIP3    H215376   3.508   4.381   0.873
 5124TIP3   OH215377   1.187   5.786   0.069
 5124TIP3    H115378   1.167   5.708   0.018
 5124TIP3    H215379   1.272   5.816   0.037
 5125TIP3   OH215380   6.205   4.761   5.141
 5125TIP3    H115381   6.156   4.825   5.089
 5125TIP3    H215382   6.285   4.806   5.166
 5126TIP3   OH215383   3.477   2.465   2.107
 5126TIP3    H115384   3.514   2.464   2.018
 5126TIP3    H215385   3.460   2.558   2.124
 5127TIP3   OH215386   5.180   3.742   3.575
 5127TIP3    H115387   5.111   3.800   3.608
 5127TIP3    H215388   5.247   3.743   3.644
 5128TIP3   OH215389   3.366   0.540   3.459
 5128TIP3    H115390   3.425   0.493   3.518
 5128TIP3    H215391   3.279   0.507   3.482
 5129TIP3   OH215392   0.904   1.883   3.306
 5129TIP3    H115393   0.935   1.898   3.216
 5129TIP3    H215394   0.899   1.787   3.314
 5130TIP3   OH215395   0.246   2.511   1.005
 5130TIP3    H115396   0.298   2.564   0.944
 5130TIP3    H215397   0.155   2.530   0.982
 5131TIP3   OH215398   1.255   5.090   1.177
 5131TIP3    H115399   1.300   5.165   1.137
 5131TIP3    H215400   1.166   5.095   1.143
 5132TIP3   OH215401   2.675   3.380   5.101
 5132TIP3    H115402   2.719   3.295   5.093
 5132TIP3    H215403   2.732   3.430   5.159
 5133TIP3   OH215404   2.146   2.835   1.108
 5133TIP3    H115405   2.233   2.850   1.145
 5133TIP3    H215406   2.163   2.819   1.015
 5134TIP3   OH215407   5.093   3.441   2.101
 5134TIP3    H115408   5.101   3.409   2.190
 5134TIP3    H215409   5.177   3.482   2.082
 5135TIP3   OH215410   3.068   2.006   2.419
 5135TIP3    H115411   3.042   2.083   2.470
 5135TIP3    H215412   3.069   1.935   2.483
 5136TIP3   OH215413   4.529   4.588   0.416
 5136TIP3    H115414   4.442   4.554   0.396
 5136TIP3    H215415   4.579   4.512   0.445
 5137TIP3   OH215416   3.901   2.368   0.288
 5137TIP3    H115417   3.867   2.454   0.313
 5137TIP3    H215418   3.854   2.307   0.345
 5138TIP3   OH215419   4.416   0.768   3.672
 5138TIP3    H115420   4.357   0.782   3.746
 5138TIP3    H215421   4.361   0.781   3.595
 5139TIP3   OH215422   1.760   1.159   3.871
 5139TIP3    H115423   1.774   1.071   3.908
 5139TIP3    H215424   1.685   1.193   3.920
 5140TIP3   OH215425   3.982   0.139   0.958
 5140TIP3    H115426   3.914   0.091   1.007
 5140TIP3    H215427   3.956   0.231   0.966
 5141TIP3   OH215428   5.942   5.644   4.452
 5141TIP3    H115429   6.011   5.698   4.414
 5141TIP3    H215430   5.986   5.595   4.521
 5142TIP3   OH215431   3.561   2.022   1.621
 5142TIP3    H115432   3.576   2.068   1.704
 5142TIP3    H215433   3.532   2.090   1.561
 5143TIP3   OH215434   0.894   1.049   3.534
 5143TIP3    H115435   0.876   1.120   3.596
 5143TIP3    H215436   0.971   1.005   3.570
 5144TIP3   OH215437   1.039   4.898   1.669
 5144TIP3    H115438   1.042   4.924   1.761
 5144TIP3    H215439   1.058   4.978   1.620
 5145TIP3   OH215440   4.773   5.176   3.464
 5145TIP3    H115441   4.751   5.086   3.488
 5145TIP3    H215442   4.694   5.209   3.421
 5146TIP3   OH215443   0.091   1.880   0.856
 5146TIP3    H115444   0.164   1.890   0.916
 5146TIP3    H215445   0.088   1.786   0.838
 5147TIP3   OH215446   4.425   1.575   4.819
 5147TIP3    H115447   4.375   1.606   4.743
 5147TIP3    H215448   4.510   1.619   4.811
 5148TIP3   OH215449   4.602   0.662   2.098
 5148TIP3    H115450   4.548   0.740   2.113
 5148TIP3    H215451   4.636   0.672   2.010
 5149TIP3   OH215452   5.861   4.397   2.748
 5149TIP3    H115453   5.943   4.432   2.780
 5149TIP3    H215454   5.826   4.465   2.690
 5150TIP3   OH215455   4.971   2.871   2.001
 5150TIP3    H115456   4.904   2.815   1.962
 5150TIP3    H215457   4.937   2.960   1.993
 5151TIP3   OH215458   2.093   1.722   0.182
 5151TIP3    H115459   2.184   1.705   0.159
 5151TIP3    H215460   2.043   1.660   0.130
 5152TIP3   OH215461   1.882   0.180   2.575
 5152TIP3    H115462   1.815   0.243   2.600
 5152TIP3    H215463   1.898   0.129   2.655
 5153TIP3   OH215464   4.538   3.248   0.932
 5153TIP3    H115465   4.458   3.235   0.983
 5153TIP3    H215466   4.508   3.281   0.847
 5154TIP3   OH215467   3.568   1.376   0.186
 5154TIP3    H115468   3.574   1.349   0.277
 5154TIP3    H215469   3.659   1.382   0.157
 5155TIP3   OH215470   3.600   5.358   3.783
 5155TIP3    H115471   3.667   5.409   3.829
 5155TIP3    H215472   3.520   5.410   3.789
 5156TIP3   OH215473   2.430   3.473   1.748
 5156TIP3    H115474   2.383   3.447   1.827
 5156TIP3    H215475   2.505   3.523   1.781
 5157TIP3   OH215476   1.231   2.015   1.587
 5157TIP3    H115477   1.262   1.982   1.671
 5157TIP3    H215478   1.137   1.996   1.587
 5158TIP3   OH215479   4.251   0.057   0.571
 5158TIP3    H115480   4.177   0.077   0.513
 5158TIP3    H215481   4.210   0.034   0.654
 5159TIP3   OH215482   1.899   0.774   2.938
 5159TIP3    H115483   1.865   0.854   2.977
 5159TIP3    H215484   1.835   0.706   2.961
 5160TIP3   OH215485   5.736   4.067   4.249
 5160TIP3    H115486   5.827   4.037   4.249
 5160TIP3    H215487   5.692   4.010   4.186
 5161TIP3   OH215488   6.272   0.272   3.893
 5161TIP3    H115489   6.282   0.224   3.976
 5161TIP3    H215490   6.321   0.353   3.907
 5162TIP3   OH215491   5.505   0.669   2.371
 5162TIP3    H115492   5.524   0.741   2.311
 5162TIP3    H215493   5.584   0.616   2.370
 5163TIP3   OH215494   4.852   4.134   2.995
 5163TIP3    H115495   4.835   4.132   3.089
 5163TIP3    H215496   4.917   4.204   2.984
 5164TIP3   OH215497   0.102   2.659   3.401
 5164TIP3    H115498   0.041   2.621   3.337
 5164TIP3    H215499   0.159   2.586   3.425
 5165TIP3   OH215500   3.765   5.238   4.909
 5165TIP3    H115501   3.763   5.185   4.830
 5165TIP3    H215502   3.856   5.233   4.939
 5166TIP3   OH215503   1.488   1.391   0.167
 5166TIP3    H115504   1.396   1.399   0.193
 5166TIP3    H215505   1.500   1.298   0.148
 5167TIP3   OH215506   5.615   0.158   4.766
 5167TIP3    H115507   5.669   0.214   4.711
 5167TIP3    H215508   5.525   0.188   4.749
 5168TIP3   OH215509   6.154   2.607   2.249
 5168TIP3    H115510   6.248   2.626   2.251
 5168TIP3    H215511   6.112   2.691   2.268
 5169TIP3   OH215512   3.520   3.766   4.656
 5169TIP3    H115513   3.579   3.692   4.645
 5169TIP3    H215514   3.548   3.830   4.590
 5170TIP3   OH215515   6.001   2.981   4.275
 5170TIP3    H115516   6.006   2.917   4.345
 5170TIP3    H215517   5.910   3.012   4.277
 5171TIP3   OH215518   1.261   1.811   3.042
 5171TIP3    H115519   1.292   1.723   3.020
 5171TIP3    H215520   1.166   1.807   3.026
 5172TIP3   OH215521   0.791   0.948   0.257
 5172TIP3    H115522   0.874   0.995   0.264
 5172TIP3    H215523   0.802   0.893   0.180
 5173TIP3   OH215524   4.484   1.934   0.739
 5173TIP3    H115525   4.537   1.993   0.793
 5173TIP3    H215526   4.397   1.974   0.738
 5174TIP3   OH215527   1.390   0.863   3.733
 5174TIP3    H115528   1.376   0.803   3.806
 5174TIP3    H215529   1.486   0.870   3.727
 5175TIP3   OH215530   2.744   5.175   1.132
 5175TIP3    H115531   2.733   5.081   1.117
 5175TIP3    H215532   2.655   5.207   1.148
 5176TIP3   OH215533   0.730   5.421   2.692
 5176TIP3    H115534   0.668   5.349   2.706
 5176TIP3    H215535   0.683   5.482   2.636
 5177TIP3   OH215536   0.141   0.579   3.454
 5177TIP3    H115537   0.101   0.519   3.391
 5177TIP3    H215538   0.199   0.523   3.506
 5178TIP3   OH215539   3.938   1.624   2.205
 5178TIP3    H115540   3.928   1.681   2.281
 5178TIP3    H215541   4.030   1.633   2.180
 5179TIP3   OH215542   5.004   5.298   0.504
 5179TIP3    H115543   5.009   5.315   0.410
 5179TIP3    H215544   5.090   5.321   0.537
 5180TIP3   OH215545   3.855   3.645   2.284
 5180TIP3    H115546   3.903   3.723   2.315
 5180TIP3    H215547   3.786   3.632   2.349
 5181TIP3   OH215548   0.986   4.523   0.148
 5181TIP3    H115549   1.060   4.584   0.137
 5181TIP3    H215550   0.943   4.522   0.063
 5182TIP3   OH215551   2.798   4.115   4.447
 5182TIP3    H115552   2.818   4.074   4.363
 5182TIP3    H215553   2.787   4.042   4.507
 5183TIP3   OH215554   3.243   4.332   3.809
 5183TIP3    H115555   3.260   4.375   3.892
 5183TIP3    H215556   3.148   4.326   3.804
 5184TIP3   OH215557   0.140   5.102   0.203
 5184TIP3    H115558   0.115   5.069   0.117
 5184TIP3    H215559   0.134   5.197   0.195
 5185TIP3   OH215560   3.488   2.889   1.905
 5185TIP3    H115561   3.574   2.892   1.863
 5185TIP3    H215562   3.431   2.935   1.844
 5186TIP3   OH215563   2.394   0.510   3.084
 5186TIP3    H115564   2.462   0.443   3.090
 5186TIP3    H215565   2.312   0.463   3.101
 5187TIP3   OH215566   5.961   2.828   2.056
 5187TIP3    H115567   6.003   2.754   2.013
 5187TIP3    H215568   5.884   2.791   2.099
 5188TIP3   OH215569   5.865   5.690   2.600
 5188TIP3    H115570   5.932   5.704   2.667
 5188TIP3    H215571   5.899   5.617   2.547
 5189TIP3   OH215572   5.379   3.057   4.936
 5189TIP3    H115573   5.428   3.107   5.000
 5189TIP3    H215574   5.433   3.059   4.857
 5190TIP3   OH215575   4.345   3.517   3.961
 5190TIP3    H115576   4.358   3.446   3.898
 5190TIP3    H215577   4.252   3.512   3.984
 5191TIP3   OH215578   4.201   5.697   3.236
 5191TIP3    H115579   4.224   5.732   3.150
 5191TIP3    H215580   4.108   5.674   3.228
 5192TIP3   OH215581   5.872   5.060   4.250
 5192TIP3    H115582   5.957   5.065   4.295
 5192TIP3    H215583   5.809   5.045   4.320
 5193TIP3   OH215584   4.391   5.136   3.530
 5193TIP3    H115585   4.300   5.167   3.527
 5193TIP3    H215586   4.388   5.059   3.587
 5194TIP3   OH215587   4.541   4.462   3.614
 5194TIP3    H115588   4.510   4.383   3.569
 5194TIP3    H215589   4.561   4.433   3.703
 5195TIP3   OH215590   0.234   1.868   0.024
 5195TIP3    H115591   0.163   1.805   0.016
 5195TIP3    H215592   0.313   1.819   0.001
 5196TIP3   OH215593   3.918   3.102   2.113
 5196TIP3    H115594   4.011   3.123   2.111
 5196TIP3    H215595   3.915   3.009   2.132
 5197TIP3   OH215596   5.465   0.435   0.257
 5197TIP3    H115597   5.412   0.429   0.177
 5197TIP3    H215598   5.434   0.515   0.300
 5198TIP3   OH215599   5.684   2.775   2.980
 5198TIP3    H115600   5.596   2.741   2.964
 5198TIP3    H215601   5.681   2.865   2.948
 5199TIP3   OH215602   1.644   1.106   0.667
 5199TIP3    H115603   1.675   1.194   0.685
 5199TIP3    H215604   1.549   1.114   0.662
 5200TIP3   OH215605   1.872   1.957   1.998
 5200TIP3    H115606   1.788   1.913   2.009
 5200TIP3    H215607   1.849   2.045   1.966
 5201TIP3   OH215608   2.916   3.549   3.714
 5201TIP3    H115609   2.878   3.467   3.746
 5201TIP3    H215610   3.002   3.525   3.680
 5202TIP3   OH215611   2.476   4.740   2.123
 5202TIP3    H115612   2.479   4.650   2.090
 5202TIP3    H215613   2.393   4.746   2.169
 5203TIP3   OH215614   0.479   3.776   0.216
 5203TIP3    H115615   0.458   3.774   0.310
 5203TIP3    H215616   0.395   3.785   0.172
 5204TIP3   OH215617   5.924   0.130   4.847
 5204TIP3    H115618   5.962   0.202   4.796
 5204TIP3    H215619   5.830   0.148   4.847
 5205TIP3   OH215620   5.315   1.077   0.224
 5205TIP3    H115621   5.313   0.990   0.185
 5205TIP3    H215622   5.225   1.109   0.216
 5206TIP3   OH215623   3.798   1.938   1.507
 5206TIP3    H115624   3.793   1.927   1.412
 5206TIP3    H215625   3.706   1.942   1.535
 5207TIP3   OH215626   1.956   3.092   3.376
 5207TIP3    H115627   1.910   3.131   3.301
 5207TIP3    H215628   1.940   3.154   3.448
 5208TIP3   OH215629   5.691   1.061   2.501
 5208TIP3    H115630   5.716   1.153   2.512
 5208TIP3    H215631   5.770   1.012   2.523
 5209TIP3   OH215632   0.521   5.114   1.312
 5209TIP3    H115633   0.481   5.085   1.395
 5209TIP3    H215634   0.479   5.060   1.245
 5210TIP3   OH215635   0.142   4.025   4.177
 5210TIP3    H115636   0.218   3.978   4.212
 5210TIP3    H215637   0.173   4.114   4.163
 5211TIP3   OH215638   2.667   3.934   5.111
 5211TIP3    H115639   2.648   3.944   5.204
 5211TIP3    H215640   2.633   4.013   5.070
 5212TIP3   OH215641   1.846   3.650   2.499
 5212TIP3    H115642   1.853   3.566   2.454
 5212TIP3    H215643   1.803   3.707   2.436
 5213TIP3   OH215644   4.598   0.411   4.496
 5213TIP3    H115645   4.679   0.460   4.512
 5213TIP3    H215646   4.534   0.479   4.473
 5214TIP3   OH215647   2.503   4.164   1.979
 5214TIP3    H115648   2.573   4.113   1.937
 5214TIP3    H215649   2.505   4.136   2.070
 5215TIP3   OH215650   2.811   0.687   2.839
 5215TIP3    H115651   2.872   0.704   2.767
 5215TIP3    H215652   2.740   0.637   2.798
 5216TIP3   OH215653   0.412   4.503   0.262
 5216TIP3    H115654   0.339   4.477   0.318
 5216TIP3    H215655   0.483   4.443   0.288
 5217TIP3   OH215656   1.484   2.696   0.035
 5217TIP3    H115657   1.446   2.612   0.061
 5217TIP3    H215658   1.413   2.759   0.046
 5218TIP3   OH215659   3.931   5.404   1.074
 5218TIP3    H115660   3.870   5.330   1.067
 5218TIP3    H215661   3.879   5.480   1.047
 5219TIP3   OH215662   3.201   5.027   3.165
 5219TIP3    H115663   3.279   5.006   3.215
 5219TIP3    H215664   3.139   4.956   3.185
 5220TIP3   OH215665   0.469   5.008   3.455
 5220TIP3    H115666   0.512   4.986   3.538
 5220TIP3    H215667   0.499   5.096   3.435
 5221TIP3   OH215668   1.359   0.257   1.777
 5221TIP3    H115669   1.433   0.309   1.745
 5221TIP3    H215670   1.393   0.211   1.853
 5222TIP3   OH215671   0.021   5.498   5.067
 5222TIP3    H115672   0.084   5.530   5.131
 5222TIP3    H215673  -0.045   5.452   5.120
 5223TIP3   OH215674   2.912   5.944   0.138
 5223TIP3    H115675   2.954   5.859   0.126
 5223TIP3    H215676   2.912   5.958   0.232
 5224TIP3   OH215677   3.450   5.321   0.568
 5224TIP3    H115678   3.438   5.415   0.551
 5224TIP3    H215679   3.390   5.278   0.507
 5225TIP3   OH215680   5.665   2.850   5.102
 5225TIP3    H115681   5.727   2.802   5.047
 5225TIP3    H215682   5.708   2.856   5.187
 5226TIP3   OH215683   5.924   2.153   4.704
 5226TIP3    H115684   5.870   2.102   4.644
 5226TIP3    H215685   5.994   2.093   4.731
 5227TIP3   OH215686   2.906   4.759   4.378
 5227TIP3    H115687   2.951   4.814   4.314
 5227TIP3    H215688   2.860   4.821   4.435
 5228TIP3   OH215689   3.743   3.415   1.514
 5228TIP3    H115690   3.740   3.433   1.608
 5228TIP3    H215691   3.831   3.441   1.487
 5229TIP3   OH215692   4.718   4.535   1.373
 5229TIP3    H115693   4.806   4.536   1.336
 5229TIP3    H215694   4.708   4.447   1.408
 5230TIP3   OH215695   3.779   3.265   4.726
 5230TIP3    H115696   3.835   3.258   4.649
 5230TIP3    H215697   3.703   3.210   4.706
 5231TIP3   OH215698   0.650   0.178   1.262
 5231TIP3    H115699   0.647   0.180   1.166
 5231TIP3    H215700   0.706   0.104   1.283
 5232TIP3   OH215701   0.313   5.277   4.464
 5232TIP3    H115702   0.221   5.294   4.486
 5232TIP3    H215703   0.336   5.346   4.402
 5233TIP3   OH215704   5.962   1.821   4.528
 5233TIP3    H115705   5.917   1.751   4.482
 5233TIP3    H215706   5.904   1.896   4.521
 5234TIP3   OH215707   2.069   2.533   4.020
 5234TIP3    H115708   1.976   2.555   4.017
 5234TIP3    H215709   2.087   2.519   4.113
 5235TIP3   OH215710   4.868   5.728   0.292
 5235TIP3    H115711   4.803   5.765   0.233
 5235TIP3    H215712   4.927   5.678   0.235
 5236TIP3   OH215713   1.635   0.566   4.570
 5236TIP3    H115714   1.664   0.657   4.574
 5236TIP3    H215715   1.709   0.519   4.531
 5237TIP3   OH215716   3.793   4.932   3.415
 5237TIP3    H115717   3.728   4.908   3.349
 5237TIP3    H215718   3.867   4.965   3.364
 5238TIP3   OH215719   4.005   1.789   1.871
 5238TIP3    H115720   4.016   1.864   1.929
 5238TIP3    H215721   3.993   1.714   1.931
 5239TIP3   OH215722   1.467   4.700   1.121
 5239TIP3    H115723   1.514   4.781   1.141
 5239TIP3    H215724   1.381   4.729   1.092
 5240TIP3   OH215725   2.429   0.085   0.620
 5240TIP3    H115726   2.432   0.029   0.697
 5240TIP3    H215727   2.358   0.147   0.638
 5241TIP3   OH215728   0.791   3.084   2.526
 5241TIP3    H115729   0.821   3.066   2.436
 5241TIP3    H215730   0.829   3.014   2.578
 5242TIP3   OH215731   0.294   3.622   4.636
 5242TIP3    H115732   0.220   3.577   4.678
 5242TIP3    H215733   0.258   3.707   4.610
 5243TIP3   OH215734   3.570   4.104   3.418
 5243TIP3    H115735   3.579   4.034   3.483
 5243TIP3    H215736   3.637   4.168   3.442
 5244TIP3   OH215737   4.572   2.777   3.038
 5244TIP3    H115738   4.480   2.791   3.060
 5244TIP3    H215739   4.604   2.863   3.011
 5245TIP3   OH215740   2.704   1.559   2.162
 5245TIP3    H115741   2.797   1.548   2.140
 5245TIP3    H215742   2.702   1.563   2.257
 5246TIP3   OH215743   4.616   0.545   0.186
 5246TIP3    H115744   4.651   0.463   0.221
 5246TIP3    H215745   4.595   0.525   0.094
 5247TIP3   OH215746   5.935   3.242   3.736
 5247TIP3    H115747   5.953   3.267   3.645
 5247TIP3    H215748   5.934   3.147   3.735
 5248TIP3   OH215749   1.617   4.221   3.878
 5248TIP3    H115750   1.639   4.158   3.947
 5248TIP3    H215751   1.700   4.235   3.832
 5249TIP3   OH215752   1.261   2.840   0.075
 5249TIP3    H115753   1.239   2.812   0.164
 5249TIP3    H215754   1.275   2.934   0.083
 5250TIP3   OH215755   4.869   4.707   4.971
 5250TIP3    H115756   4.785   4.676   4.937
 5250TIP3    H215757   4.933   4.644   4.937
 5251TIP3   OH215758   1.785   0.490   2.988
 5251TIP3    H115759   1.714   0.468   2.929
 5251TIP3    H215760   1.746   0.493   3.075
 5252TIP3   OH215761   4.742   2.253   2.450
 5252TIP3    H115762   4.686   2.320   2.491
 5252TIP3    H215763   4.746   2.279   2.358
 5253TIP3   OH215764   4.368   1.834   2.366
 5253TIP3    H115765   4.395   1.744   2.386
 5253TIP3    H215766   4.450   1.884   2.369
 5254TIP3   OH215767   4.535   2.252   0.123
 5254TIP3    H115768   4.555   2.325   0.183
 5254TIP3    H215769   4.457   2.281   0.076
 5255TIP3   OH215770   3.164   4.213   0.114
 5255TIP3    H115771   3.216   4.283   0.154
 5255TIP3    H215772   3.197   4.132   0.154
 5256TIP3   OH215773   0.366   0.712   0.095
 5256TIP3    H115774   0.330   0.635   0.050
 5256TIP3    H215775   0.402   0.677   0.177
 5257TIP3   OH215776   5.269   1.525   4.542
 5257TIP3    H115777   5.273   1.520   4.638
 5257TIP3    H215778   5.355   1.494   4.513
 5258TIP3   OH215779   1.821   3.053   1.876
 5258TIP3    H115780   1.900   3.102   1.851
 5258TIP3    H215781   1.768   3.052   1.797
 5259TIP3   OH215782   6.226   0.245   2.104
 5259TIP3    H115783   6.288   0.267   2.034
 5259TIP3    H215784   6.160   0.313   2.100
 5260TIP3   OH215785   0.611   5.601   3.785
 5260TIP3    H115786   0.670   5.648   3.843
 5260TIP3    H215787   0.560   5.669   3.741
 5261TIP3   OH215788   1.963   5.790   3.059
 5261TIP3    H115789   1.891   5.732   3.081
 5261TIP3    H215790   1.922   5.865   3.016
 5262TIP3   OH215791   4.373   3.106   4.892
 5262TIP3    H115792   4.428   3.163   4.839
 5262TIP3    H215793   4.435   3.049   4.938
 5263TIP3   OH215794   2.901   0.803   2.243
 5263TIP3    H115795   2.841   0.743   2.198
 5263TIP3    H215796   2.985   0.789   2.200
 5264TIP3   OH215797   1.121   3.781   4.736
 5264TIP3    H115798   1.147   3.750   4.650
 5264TIP3    H215799   1.200   3.820   4.773
 5265TIP3   OH215800   4.724   5.745   1.012
 5265TIP3    H115801   4.689   5.657   1.028
 5265TIP3    H215802   4.746   5.746   0.919
 5266TIP3   OH215803   6.272   4.411   2.239
 5266TIP3    H115804   6.261   4.338   2.178
 5266TIP3    H215805   6.203   4.472   2.215
 5267TIP3   OH215806   2.390   2.632   4.048
 5267TIP3    H115807   2.382   2.560   3.985
 5267TIP3    H215808   2.452   2.599   4.113
 5268TIP3   OH215809   1.665   0.031   2.876
 5268TIP3    H115810   1.581   0.033   2.830
 5268TIP3    H215811   1.644   0.056   2.966
 5269TIP3   OH215812   0.619   5.595   0.788
 5269TIP3    H115813   0.594   5.601   0.696
 5269TIP3    H215814   0.586   5.510   0.816
 5270TIP3   OH215815   1.618   5.210   0.594
 5270TIP3    H115816   1.688   5.234   0.655
 5270TIP3    H215817   1.537   5.227   0.643
 5271TIP3   OH215818   0.635   3.154   3.812
 5271TIP3    H115819   0.595   3.238   3.836
 5271TIP3    H215820   0.561   3.095   3.800
 5272TIP3   OH215821   3.875   1.649   0.767
 5272TIP3    H115822   3.951   1.591   0.771
 5272TIP3    H215823   3.800   1.590   0.777
 5273TIP3   OH215824   0.316   1.050   2.301
 5273TIP3    H115825   0.284   1.030   2.389
 5273TIP3    H215826   0.307   0.967   2.254
 5274TIP3   OH215827   3.681   5.727   2.022
 5274TIP3    H115828   3.704   5.817   2.044
 5274TIP3    H215829   3.610   5.704   2.082
 5275TIP3   OH215830   2.574   2.647   0.534
 5275TIP3    H115831   2.548   2.736   0.556
 5275TIP3    H215832   2.609   2.611   0.615
 5276TIP3   OH215833   3.923   3.302   4.493
 5276TIP3    H115834   3.910   3.250   4.413
 5276TIP3    H215835   3.920   3.393   4.464
 5277TIP3   OH215836   2.518   3.258   3.817
 5277TIP3    H115837   2.476   3.200   3.754
 5277TIP3    H215838   2.532   3.340   3.769
 5278TIP3   OH215839   0.401   4.127   2.580
 5278TIP3    H115840   0.485   4.098   2.545
 5278TIP3    H215841   0.402   4.222   2.572
 5279TIP3   OH215842   1.034   4.521   1.427
 5279TIP3    H115843   1.023   4.513   1.332
 5279TIP3    H215844   0.957   4.569   1.456
 5280TIP3   OH215845   6.148   3.442   1.731
 5280TIP3    H115846   6.217   3.463   1.668
 5280TIP3    H215847   6.178   3.361   1.773
 5281TIP3   OH215848   0.645   4.325   1.065
 5281TIP3    H115849   0.729   4.302   1.024
 5281TIP3    H215850   0.605   4.387   1.005
 5282TIP3   OH215851   0.291   1.473   3.463
 5282TIP3    H115852   0.317   1.565   3.456
 5282TIP3    H215853   0.235   1.470   3.541
 5283TIP3   OH215854   4.056   4.327   0.515
 5283TIP3    H115855   4.044   4.421   0.533
 5283TIP3    H215856   4.059   4.287   0.602
 5284TIP3   OH215857   3.818   2.283   4.041
 5284TIP3    H115858   3.724   2.277   4.056
 5284TIP3    H215859   3.857   2.219   4.101
 5285TIP3   OH215860   0.703   3.558   3.948
 5285TIP3    H115861   0.704   3.647   3.912
 5285TIP3    H215862   0.733   3.569   4.038
 5286TIP3   OH215863   2.908   3.826   2.317
 5286TIP3    H115864   2.838   3.771   2.352
 5286TIP3    H215865   2.867   3.911   2.302
 5287TIP3   OH215866   4.201   4.202   2.304
 5287TIP3    H115867   4.246   4.279   2.339
 5287TIP3    H215868   4.109   4.216   2.328
 5288TIP3   OH215869   3.048   4.476   4.710
 5288TIP3    H115870   3.085   4.537   4.646
 5288TIP3    H215871   3.107   4.482   4.785
 5289TIP3   OH215872   1.303   0.357   1.231
 5289TIP3    H115873   1.294   0.452   1.228
 5289TIP3    H215874   1.362   0.341   1.305
 5290TIP3   OH215875   1.727   5.128   2.201
 5290TIP3    H115876   1.798   5.183   2.234
 5290TIP3    H215877   1.729   5.140   2.106
 5291TIP3   OH215878   0.695   0.521   2.483
 5291TIP3    H115879   0.704   0.584   2.411
 5291TIP3    H215880   0.602   0.523   2.506
 5292TIP3   OH215881   5.559   1.484   3.530
 5292TIP3    H115882   5.477   1.489   3.481
 5292TIP3    H215883   5.531   1.483   3.622
 5293TIP3   OH215884   0.676   5.934   3.942
 5293TIP3    H115885   0.746   5.883   3.984
 5293TIP3    H215886   0.658   6.004   4.004
 5294TIP3   OH215887   6.031   4.931   5.012
 5294TIP3    H115888   6.048   4.974   4.928
 5294TIP3    H215889   5.939   4.907   5.009
 5295TIP3   OH215890   3.051   4.634   1.287
 5295TIP3    H115891   3.114   4.677   1.344
 5295TIP3    H215892   3.035   4.549   1.328
 5296TIP3   OH215893   1.426   5.905   4.242
 5296TIP3    H115894   1.349   5.932   4.293
 5296TIP3    H215895   1.466   5.987   4.215
 5297TIP3   OH215896   4.811   1.819   4.544
 5297TIP3    H115897   4.839   1.898   4.591
 5297TIP3    H215898   4.887   1.761   4.548
 5298TIP3   OH215899   1.112   5.136   1.812
 5298TIP3    H115900   1.107   5.127   1.717
 5298TIP3    H215901   1.185   5.197   1.826
 5299TIP3   OH215902   1.950   0.389   4.069
 5299TIP3    H115903   1.953   0.313   4.127
 5299TIP3    H215904   1.912   0.458   4.123
 5300TIP3   OH215905   0.285   4.260   4.214
 5300TIP3    H115906   0.350   4.189   4.219
 5300TIP3    H215907   0.305   4.317   4.289
 5301TIP3   OH215908   5.218   5.494   2.407
 5301TIP3    H115909   5.189   5.410   2.445
 5301TIP3    H215910   5.259   5.470   2.324
 5302TIP3   OH215911   2.569   3.356   2.588
 5302TIP3    H115912   2.644   3.302   2.564
 5302TIP3    H215913   2.516   3.360   2.508
 5303TIP3   OH215914   4.515   5.580   4.557
 5303TIP3    H115915   4.552   5.517   4.618
 5303TIP3    H215916   4.439   5.617   4.603
 5304TIP3   OH215917   0.887   5.424   2.218
 5304TIP3    H115918   0.971   5.439   2.173
 5304TIP3    H215919   0.824   5.476   2.168
 5305TIP3   OH215920   3.198   1.633   4.959
 5305TIP3    H115921   3.167   1.594   4.878
 5305TIP3    H215922   3.287   1.600   4.970
 5306TIP3   OH215923   3.199   2.660   3.437
 5306TIP3    H115924   3.221   2.686   3.348
 5306TIP3    H215925   3.107   2.634   3.433
 5307TIP3   OH215926   5.762   3.772   1.125
 5307TIP3    H115927   5.821   3.798   1.055
 5307TIP3    H215928   5.801   3.809   1.205
 5308TIP3   OH215929   4.067   5.512   1.289
 5308TIP3    H115930   4.156   5.506   1.254
 5308TIP3    H215931   4.012   5.473   1.222
 5309TIP3   OH215932   2.543   5.019   0.168
 5309TIP3    H115933   2.558   5.074   0.091
 5309TIP3    H215934   2.448   5.021   0.180
 5310TIP3   OH215935   4.969   3.593   4.928
 5310TIP3    H115936   4.916   3.562   5.001
 5310TIP3    H215937   4.917   3.573   4.850
 5311TIP3   OH215938   0.048   4.845   4.875
 5311TIP3    H115939   0.063   4.866   4.967
 5311TIP3    H215940  -0.008   4.915   4.843
 5312TIP3   OH215941   6.346   3.186   3.868
 5312TIP3    H115942   6.316   3.222   3.785
 5312TIP3    H215943   6.269   3.189   3.925
 5313TIP3   OH215944   0.123   0.863   1.776
 5313TIP3    H115945   0.059   0.793   1.778
 5313TIP3    H215946   0.206   0.821   1.800
 5314TIP3   OH215947   2.983   4.746   3.807
 5314TIP3    H115948   3.039   4.684   3.760
 5314TIP3    H215949   2.940   4.795   3.737
 5315TIP3   OH215950   4.892   5.010   1.492
 5315TIP3    H115951   4.839   5.073   1.444
 5315TIP3    H215952   4.893   4.933   1.435
 5316TIP3   OH215953   4.834   0.683   3.125
 5316TIP3    H115954   4.751   0.635   3.118
 5316TIP3    H215955   4.901   0.615   3.126
 5317TIP3   OH215956   5.678   0.653   4.906
 5317TIP3    H115957   5.715   0.701   4.832
 5317TIP3    H215958   5.736   0.578   4.917
 5318TIP3   OH215959   2.411   1.208   2.063
 5318TIP3    H115960   2.353   1.250   2.126
 5318TIP3    H215961   2.354   1.190   1.987
 5319TIP3   OH215962   2.486   5.730   2.845
 5319TIP3    H115963   2.541   5.752   2.920
 5319TIP3    H215964   2.404   5.778   2.861
 5320TIP3   OH215965   3.167   5.351   2.373
 5320TIP3    H115966   3.074   5.335   2.393
 5320TIP3    H215967   3.211   5.271   2.399
 5321TIP3   OH215968   3.399   0.742   2.589
 5321TIP3    H115969   3.470   0.804   2.599
 5321TIP3    H215970   3.320   0.796   2.586
 5322TIP3   OH215971   2.488   3.451   1.263
 5322TIP3    H115972   2.574   3.486   1.288
 5322TIP3    H215973   2.456   3.407   1.342
 5323TIP3   OH215974   0.808   4.140   4.807
 5323TIP3    H115975   0.876   4.093   4.856
 5323TIP3    H215976   0.846   4.226   4.791
 5324TIP3   OH215977   3.039   5.952   4.326
 5324TIP3    H115978   3.048   5.979   4.418
 5324TIP3    H215979   3.106   5.884   4.315
 5325TIP3   OH215980   3.207   0.650   1.186
 5325TIP3    H115981   3.191   0.740   1.157
 5325TIP3    H215982   3.178   0.649   1.277
 5326TIP3   OH215983   3.218   5.564   5.021
 5326TIP3    H115984   3.138   5.542   4.974
 5326TIP3    H215985   3.229   5.658   5.008
 5327TIP3   OH215986   4.983   4.275   4.123
 5327TIP3    H115987   5.014   4.335   4.190
 5327TIP3    H215988   4.902   4.238   4.158
 5328TIP3   OH215989   3.737   3.925   1.557
 5328TIP3    H115990   3.796   3.885   1.493
 5328TIP3    H215991   3.667   3.964   1.505
 5329TIP3   OH215992   1.463   4.911   5.155
 5329TIP3    H115993   1.507   4.890   5.072
 5329TIP3    H215994   1.392   4.970   5.131
 5330TIP3   OH215995   2.314   0.642   3.761
 5330TIP3    H115996   2.352   0.696   3.831
 5330TIP3    H215997   2.220   0.661   3.764
 5331TIP3   OH215998   1.535   2.914   2.430
 5331TIP3    H115999   1.508   3.003   2.405
 5331TIP3    H216000   1.544   2.868   2.347
 5332TIP3   OH216001   2.024   5.398   3.692
 5332TIP3    H116002   2.061   5.317   3.727
 5332TIP3    H216003   2.024   5.458   3.767
 5333TIP3   OH216004   2.097   1.978   3.259
 5333TIP3    H116005   2.034   1.995   3.189
 5333TIP3    H216006   2.085   1.885   3.280
 5334TIP3   OH216007   4.900   4.431   0.330
 5334TIP3    H116008   4.831   4.481   0.286
 5334TIP3    H216009   4.938   4.491   0.394
 5335TIP3   OH216010   3.464   5.111   1.176
 5335TIP3    H116011   3.461   5.028   1.128
 5335TIP3    H216012   3.372   5.133   1.190
 5336TIP3   OH216013   0.616   2.857   4.777
 5336TIP3    H116014   0.527   2.823   4.770
 5336TIP3    H216015   0.629   2.908   4.697
 5337TIP3   OH216016   2.030   1.935   2.501
 5337TIP3    H116017   2.050   1.936   2.408
 5337TIP3    H216018   2.112   1.958   2.544
 5338TIP3   OH216019   1.247   2.278   2.181
 5338TIP3    H116020   1.178   2.290   2.116
 5338TIP3    H216021   1.260   2.365   2.218
 5339TIP3   OH216022   0.282   1.048   1.644
 5339TIP3    H116023   0.231   0.980   1.687
 5339TIP3    H216024   0.264   1.037   1.551
 5340TIP3   OH216025   0.851   2.048   0.166
 5340TIP3    H116026   0.889   2.131   0.137
 5340TIP3    H216027   0.845   1.995   0.087
 5341TIP3   OH216028   0.986   1.533   0.215
 5341TIP3    H116029   1.016   1.572   0.132
 5341TIP3    H216030   0.907   1.484   0.191
 5342TIP3   OH216031   4.430   3.820   2.250
 5342TIP3    H116032   4.410   3.892   2.190
 5342TIP3    H216033   4.431   3.742   2.195
 5343TIP3   OH216034   4.741   5.459   0.062
 5343TIP3    H116035   4.757   5.384   0.120
 5343TIP3    H216036   4.755   5.535   0.118
 5344TIP3   OH216037   4.854   4.348   2.014
 5344TIP3    H116038   4.940   4.312   1.991
 5344TIP3    H216039   4.806   4.274   2.051
 5345TIP3   OH216040   1.899   0.953   2.297
 5345TIP3    H116041   1.816   0.990   2.266
 5345TIP3    H216042   1.963   1.022   2.282
 5346TIP3   OH216043   1.739   4.218   1.903
 5346TIP3    H116044   1.693   4.237   1.984
 5346TIP3    H216045   1.737   4.300   1.854
 5347TIP3   OH216046   5.778   5.020   4.535
 5347TIP3    H116047   5.747   5.107   4.559
 5347TIP3    H216048   5.715   4.960   4.577
 5348TIP3   OH216049   5.629   4.674   3.207
 5348TIP3    H116050   5.536   4.654   3.199
 5348TIP3    H216051   5.646   4.737   3.137
 5349TIP3   OH216052   0.456   3.140   4.108
 5349TIP3    H116053   0.368   3.161   4.077
 5349TIP3    H216054   0.502   3.224   4.110
 5350TIP3   OH216055   3.039   1.356   0.112
 5350TIP3    H116056   3.028   1.451   0.108
 5350TIP3    H216057   3.012   1.326   0.025
 5351TIP3   OH216058   4.251   4.632   0.426
 5351TIP3    H116059   4.242   4.536   0.423
 5351TIP3    H216060   4.197   4.659   0.500
 5352TIP3   OH216061   3.199   1.141   3.864
 5352TIP3    H116062   3.175   1.081   3.793
 5352TIP3    H216063   3.277   1.186   3.831
 5353TIP3   OH216064   2.995   1.319   4.283
 5353TIP3    H116065   3.013   1.248   4.222
 5353TIP3    H216066   2.902   1.339   4.269
 5354TIP3   OH216067   3.441   5.120   3.777
 5354TIP3    H116068   3.484   5.197   3.814
 5354TIP3    H216069   3.419   5.065   3.852
 5355TIP3   OH216070   1.530   5.507   2.597
 5355TIP3    H116071   1.580   5.545   2.526
 5355TIP3    H216072   1.442   5.494   2.561
 5356TIP3   OH216073   0.452   5.628   3.475
 5356TIP3    H116074   0.390   5.584   3.533
 5356TIP3    H216075   0.405   5.638   3.392
 5357TIP3   OH216076   3.038   3.731   1.202
 5357TIP3    H116077   3.134   3.731   1.211
 5357TIP3    H216078   3.012   3.820   1.228
 5358TIP3   OH216079   4.331   3.596   4.423
 5358TIP3    H116080   4.310   3.684   4.392
 5358TIP3    H216081   4.318   3.600   4.518
 5359TIP3   OH216082   1.650   5.575   2.360
 5359TIP3    H116083   1.695   5.491   2.368
 5359TIP3    H216084   1.716   5.640   2.382
 5360TIP3   OH216085   5.751   2.385   1.201
 5360TIP3    H116086   5.675   2.417   1.151
 5360TIP3    H216087   5.825   2.432   1.164
 5361TIP3   OH216088   4.112   4.227   0.774
 5361TIP3    H116089   4.202   4.199   0.754
 5361TIP3    H216090   4.116   4.254   0.866
 5362TIP3   OH216091   1.075   3.551   0.583
 5362TIP3    H116092   1.098   3.466   0.621
 5362TIP3    H216093   1.143   3.568   0.518
 5363TIP3   OH216094   0.830   4.783   3.248
 5363TIP3    H116095   0.815   4.787   3.342
 5363TIP3    H216096   0.744   4.802   3.210
 5364TIP3   OH216097   6.196   2.871   3.099
 5364TIP3    H116098   6.242   2.822   3.031
 5364TIP3    H216099   6.121   2.817   3.122
 5365TIP3   OH216100   4.408   0.404   4.267
 5365TIP3    H116101   4.375   0.315   4.258
 5365TIP3    H216102   4.333   0.460   4.249
 5366TIP3   OH216103   3.371   1.464   2.592
 5366TIP3    H116104   3.382   1.545   2.542
 5366TIP3    H216105   3.402   1.395   2.532
 5367TIP3   OH216106   1.284   0.940   2.659
 5367TIP3    H116107   1.204   0.945   2.711
 5367TIP3    H216108   1.307   1.032   2.641
 5368TIP3   OH216109   0.962   5.464   2.522
 5368TIP3    H116110   0.879   5.463   2.570
 5368TIP3    H216111   0.937   5.442   2.432
 5369TIP3   OH216112   6.301   3.697   0.393
 5369TIP3    H116113   6.309   3.606   0.362
 5369TIP3    H216114   6.249   3.740   0.325
 5370TIP3   OH216115   3.487   1.736   3.275
 5370TIP3    H116116   3.521   1.667   3.333
 5370TIP3    H216117   3.418   1.693   3.224
 5371TIP3   OH216118   5.206   2.083   4.655
 5371TIP3    H116119   5.236   2.150   4.716
 5371TIP3    H216120   5.234   2.115   4.569
 5372TIP3   OH216121   5.796   1.585   1.276
 5372TIP3    H116122   5.727   1.553   1.218
 5372TIP3    H216123   5.771   1.675   1.297
 5373TIP3   OH216124   6.132   0.212   2.480
 5373TIP3    H116125   6.103   0.302   2.470
 5373TIP3    H216126   6.067   0.171   2.537
 5374TIP3   OH216127   0.788   2.370   4.903
 5374TIP3    H116128   0.820   2.309   4.837
 5374TIP3    H216129   0.866   2.401   4.948
 5375TIP3   OH216130   0.645   0.981   3.080
 5375TIP3    H116131   0.679   0.898   3.047
 5375TIP3    H216132   0.705   1.005   3.151
 5376TIP3   OH216133   6.254   3.976   4.313
 5376TIP3    H116134   6.253   3.898   4.368
 5376TIP3    H216135   6.347   3.996   4.301
 5377TIP3   OH216136   2.153   0.203   0.658
 5377TIP3    H116137   2.137   0.270   0.591
 5377TIP3    H216138   2.153   0.251   0.741
 5378TIP3   OH216139   2.450   4.552   4.663
 5378TIP3    H116140   2.393   4.498   4.608
 5378TIP3    H216141   2.512   4.592   4.602
 5379TIP3   OH216142   4.906   2.699   3.106
 5379TIP3    H116143   4.987   2.737   3.072
 5379TIP3    H216144   4.932   2.656   3.188
 5380TIP3   OH216145   4.677   0.935   2.573
 5380TIP3    H116146   4.641   0.876   2.640
 5380TIP3    H216147   4.613   0.932   2.502
 5381TIP3   OH216148   1.607   5.798   4.687
 5381TIP3    H116149   1.635   5.875   4.637
 5381TIP3    H216150   1.688   5.755   4.713
 5382TIP3   OH216151   0.957   2.008   1.602
 5382TIP3    H116152   0.877   1.956   1.613
 5382TIP3    H216153   0.967   2.017   1.507
 5383TIP3   OH216154   0.238   5.151   3.104
 5383TIP3    H116155   0.184   5.097   3.048
 5383TIP3    H216156   0.179   5.217   3.141
 5384TIP3   OH216157   1.772   4.478   2.609
 5384TIP3    H116158   1.697   4.519   2.566
 5384TIP3    H216159   1.828   4.552   2.635
 5385TIP3   OH216160   3.128   0.616   3.025
 5385TIP3    H116161   3.198   0.652   2.970
 5385TIP3    H216162   3.118   0.681   3.095
 5386TIP3   OH216163   4.371   3.890   3.814
 5386TIP3    H116164   4.427   3.823   3.854
 5386TIP3    H216165   4.431   3.947   3.766
 5387TIP3   OH216166   3.120   0.676   2.107
 5387TIP3    H116167   3.118   0.586   2.139
 5387TIP3    H216168   3.154   0.669   2.017
 5388TIP3   OH216169   5.776   4.712   1.550
 5388TIP3    H116170   5.702   4.764   1.518
 5388TIP3    H216171   5.738   4.653   1.615
 5389TIP3   OH216172   3.393   1.483   0.915
 5389TIP3    H116173   3.431   1.431   0.844
 5389TIP3    H216174   3.466   1.500   0.974
 5390TIP3   OH216175   4.802   4.822   0.640
 5390TIP3    H116176   4.859   4.839   0.715
 5390TIP3    H216177   4.836   4.877   0.570
 5391TIP3   OH216178   2.098   2.191   4.565
 5391TIP3    H116179   2.115   2.273   4.520
 5391TIP3    H216180   2.182   2.164   4.600
 5392TIP3   OH216181   3.429   4.387   3.098
 5392TIP3    H116182   3.375   4.461   3.069
 5392TIP3    H216183   3.511   4.426   3.126
 5393TIP3   OH216184   4.563   4.220   1.317
 5393TIP3    H116185   4.544   4.291   1.379
 5393TIP3    H216186   4.487   4.219   1.259
 5394TIP3   OH216187   4.475   0.587   0.558
 5394TIP3    H116188   4.432   0.604   0.473
 5394TIP3    H216189   4.535   0.514   0.540
 5395TIP3   OH216190   4.081   5.378   1.970
 5395TIP3    H116191   4.000   5.428   1.979
 5395TIP3    H216192   4.131   5.426   1.903
 5396TIP3   OH216193   2.571   4.169   4.986
 5396TIP3    H116194   2.574   4.219   5.068
 5396TIP3    H216195   2.546   4.233   4.920
 5397TIP3   OH216196   3.094   3.499   1.989
 5397TIP3    H116197   3.035   3.440   2.035
 5397TIP3    H216198   3.050   3.519   1.907
 5398TIP3   OH216199   3.338   2.075   3.103
 5398TIP3    H116200   3.310   2.049   3.015
 5398TIP3    H216201   3.264   2.052   3.159
 5399TIP3   OH216202   4.882   3.933   0.989
 5399TIP3    H116203   4.846   3.983   1.062
 5399TIP3    H216204   4.806   3.890   0.950
 5400TIP3   OH216205   4.985   5.552   1.149
 5400TIP3    H116206   4.970   5.583   1.239
 5400TIP3    H216207   5.014   5.630   1.102
 5401TIP3   OH216208   4.186   2.204   4.195
 5401TIP3    H116209   4.266   2.250   4.168
 5401TIP3    H216210   4.115   2.256   4.156
 5402TIP3   OH216211   5.926   1.614   3.951
 5402TIP3    H116212   5.869   1.537   3.948
 5402TIP3    H216213   5.898   1.661   4.030
 5403TIP3   OH216214   2.483   5.683   1.767
 5403TIP3    H116215   2.564   5.679   1.717
 5403TIP3    H216216   2.415   5.698   1.701
 5404TIP3   OH216217   5.092   1.019   2.816
 5404TIP3    H116218   5.047   0.941   2.847
 5404TIP3    H216219   5.133   0.993   2.734
 5405TIP3   OH216220   5.407   3.914   0.687
 5405TIP3    H116221   5.425   3.980   0.619
 5405TIP3    H216222   5.313   3.902   0.684
 5406TIP3   OH216223   1.672   4.262   0.713
 5406TIP3    H116224   1.614   4.289   0.784
 5406TIP3    H216225   1.667   4.167   0.712
 5407TIP3   OH216226   5.375   3.887   3.402
 5407TIP3    H116227   5.347   3.833   3.328
 5407TIP3    H216228   5.321   3.857   3.475
 5408TIP3   OH216229   3.971   3.512   1.307
 5408TIP3    H116230   4.038   3.447   1.286
 5408TIP3    H216231   4.010   3.564   1.378
 5409TIP3   OH216232   3.784   5.238   1.521
 5409TIP3    H116233   3.826   5.265   1.603
 5409TIP3    H216234   3.761   5.321   1.478
 5410TIP3   OH216235   3.406   4.458   1.250
 5410TIP3    H116236   3.364   4.545   1.249
 5410TIP3    H216237   3.357   4.409   1.316
 5411TIP3   OH216238   1.404   0.425   0.598
 5411TIP3    H116239   1.411   0.476   0.678
 5411TIP3    H216240   1.350   0.350   0.622
 5412TIP3   OH216241   4.621   1.756   4.754
 5412TIP3    H116242   4.709   1.743   4.720
 5412TIP3    H216243   4.575   1.803   4.685
 5413TIP3   OH216244   2.150   4.320   1.272
 5413TIP3    H116245   2.230   4.342   1.225
 5413TIP3    H216246   2.156   4.225   1.287
 5414TIP3   OH216247   3.521   5.874   3.372
 5414TIP3    H116248   3.570   5.815   3.314
 5414TIP3    H216249   3.547   5.962   3.344
 5415TIP3   OH216250   5.426   1.267   4.718
 5415TIP3    H116251   5.440   1.235   4.807
 5415TIP3    H216252   5.467   1.354   4.717
 5416TIP3   OH216253   5.042   2.091   5.141
 5416TIP3    H116254   5.028   2.184   5.163
 5416TIP3    H216255   5.130   2.088   5.105
 5417TIP3   OH216256   5.361   4.680   4.648
 5417TIP3    H116257   5.296   4.610   4.652
 5417TIP3    H216258   5.325   4.748   4.705
 5418TIP3   OH216259   1.675   5.864   0.109
 5418TIP3    H116260   1.770   5.870   0.115
 5418TIP3    H216261   1.643   5.946   0.148
 5419TIP3   OH216262   0.602   2.960   5.094
 5419TIP3    H116263   0.631   3.010   5.170
 5419TIP3    H216264   0.662   2.886   5.089
 5420TIP3   OH216265   4.872   2.231   0.722
 5420TIP3    H116266   4.807   2.193   0.663
 5420TIP3    H216267   4.953   2.231   0.671
 5421TIP3   OH216268   0.078   2.164   2.177
 5421TIP3    H116269  -0.011   2.185   2.205
 5421TIP3    H216270   0.101   2.085   2.226
 5422TIP3   OH216271   5.670   4.900   1.823
 5422TIP3    H116272   5.683   4.929   1.913
 5422TIP3    H216273   5.589   4.849   1.825
 5423TIP3   OH216274   2.187   3.140   2.956
 5423TIP3    H116275   2.096   3.163   2.976
 5423TIP3    H216276   2.223   3.218   2.914
 5424TIP3   OH216277   3.974   0.486   0.298
 5424TIP3    H116278   3.999   0.577   0.317
 5424TIP3    H216279   3.891   0.473   0.344
 5425TIP3   OH216280   5.015   0.445   0.842
 5425TIP3    H116281   5.050   0.397   0.767
 5425TIP3    H216282   5.047   0.534   0.831
 5426TIP3   OH216283   0.568   3.883   1.971
 5426TIP3    H116284   0.637   3.866   2.035
 5426TIP3    H216285   0.521   3.958   2.007
 5427TIP3   OH216286   1.618   0.354   4.741
 5427TIP3    H116287   1.643   0.429   4.686
 5427TIP3    H216288   1.680   0.356   4.814
 5428TIP3   OH216289   3.982   3.852   4.983
 5428TIP3    H116290   3.930   3.868   4.904
 5428TIP3    H216291   4.001   3.759   4.981
 5429TIP3   OH216292   1.947   0.075   2.822
 5429TIP3    H116293   1.989  -0.011   2.834
 5429TIP3    H216294   1.853   0.056   2.831
 5430TIP3   OH216295   4.756   4.051   4.145
 5430TIP3    H116296   4.688   4.083   4.087
 5430TIP3    H216297   4.731   3.961   4.166
 5431TIP3   OH216298   0.833   2.142   3.717
 5431TIP3    H116299   0.873   2.199   3.783
 5431TIP3    H216300   0.744   2.176   3.706
 5432TIP3   OH216301   1.969   4.233   3.869
 5432TIP3    H116302   1.932   4.321   3.861
 5432TIP3    H216303   1.992   4.226   3.962
 5433TIP3   OH216304   1.183   0.222   1.551
 5433TIP3    H116305   1.236   0.223   1.630
 5433TIP3    H216306   1.223   0.156   1.495
 5434TIP3   OH216307   5.425   0.957   1.141
 5434TIP3    H116308   5.482   0.994   1.208
 5434TIP3    H216309   5.448   0.864   1.138
 5435TIP3   OH216310   1.798   1.534   1.062
 5435TIP3    H116311   1.816   1.501   0.974
 5435TIP3    H216312   1.871   1.593   1.081
 5436TIP3   OH216313   4.804   4.474   0.939
 5436TIP3    H116314   4.830   4.381   0.940
 5436TIP3    H216315   4.808   4.498   0.847
 5437TIP3   OH216316   2.827   3.919   1.416
 5437TIP3    H116317   2.759   3.923   1.348
 5437TIP3    H216318   2.900   3.968   1.378
 5438TIP3   OH216319   5.044   5.831   3.529
 5438TIP3    H116320   5.049   5.898   3.461
 5438TIP3    H216321   5.134   5.800   3.540
 5439TIP3   OH216322   2.854   1.323   0.623
 5439TIP3    H116323   2.948   1.341   0.626
 5439TIP3    H216324   2.814   1.410   0.621
 5440TIP3   OH216325   0.359   4.007   3.858
 5440TIP3    H116326   0.446   4.042   3.836
 5440TIP3    H216327   0.377   3.935   3.919
 5441TIP3   OH216328   2.539   4.651   2.583
 5441TIP3    H116329   2.543   4.722   2.648
 5441TIP3    H216330   2.631   4.631   2.565
 5442TIP3   OH216331   4.206   3.624   3.665
 5442TIP3    H116332   4.120   3.625   3.707
 5442TIP3    H216333   4.243   3.711   3.683
 5443TIP3   OH216334   4.842   2.448   2.753
 5443TIP3    H116335   4.861   2.466   2.845
 5443TIP3    H216336   4.756   2.486   2.738
 5444TIP3   OH216337   6.306   2.154   2.451
 5444TIP3    H116338   6.265   2.235   2.479
 5444TIP3    H216339   6.355   2.124   2.528
 5445TIP3   OH216340   2.752   3.790   0.622
 5445TIP3    H116341   2.818   3.859   0.628
 5445TIP3    H216342   2.726   3.789   0.530
 5446TIP3   OH216343   3.048   3.052   0.614
 5446TIP3    H116344   3.037   3.008   0.529
 5446TIP3    H216345   2.991   3.129   0.609
 5447TIP3   OH216346   1.377   4.240   4.987
 5447TIP3    H116347   1.461   4.255   4.944
 5447TIP3    H216348   1.372   4.308   5.053
 5448TIP3   OH216349   3.352   0.718   2.900
 5448TIP3    H116350   3.414   0.647   2.920
 5448TIP3    H216351   3.361   0.731   2.805
 5449TIP3   OH216352   2.697   5.044   4.836
 5449TIP3    H116353   2.790   5.047   4.818
 5449TIP3    H216354   2.678   5.127   4.881
 5450TIP3   OH216355   5.107   4.467   4.639
 5450TIP3    H116356   5.061   4.418   4.571
 5450TIP3    H216357   5.171   4.405   4.674
 5451TIP3   OH216358   3.109   0.441   3.603
 5451TIP3    H116359   3.107   0.516   3.663
 5451TIP3    H216360   3.166   0.378   3.646
 5452TIP3   OH216361   2.708   1.519   4.590
 5452TIP3    H116362   2.647   1.570   4.537
 5452TIP3    H216363   2.743   1.582   4.653
 5453TIP3   OH216364   2.606   4.136   0.493
 5453TIP3    H116365   2.554   4.117   0.571
 5453TIP3    H216366   2.635   4.227   0.505
 5454TIP3   OH216367   1.225   3.662   4.507
 5454TIP3    H116368   1.190   3.590   4.456
 5454TIP3    H216369   1.270   3.718   4.444
 5455TIP3   OH216370   4.350   2.140   1.793
 5455TIP3    H116371   4.432   2.096   1.770
 5455TIP3    H216372   4.357   2.226   1.751
 5456TIP3   OH216373   0.564   4.147   3.760
 5456TIP3    H116374   0.601   4.234   3.771
 5456TIP3    H216375   0.595   4.118   3.674
 5457TIP3   OH216376   5.633   3.899   3.319
 5457TIP3    H116377   5.555   3.874   3.368
 5457TIP3    H216378   5.599   3.924   3.233
 5458TIP3   OH216379   1.751   5.597   1.668
 5458TIP3    H116380   1.669   5.646   1.660
 5458TIP3    H216381   1.818   5.665   1.680
 5459TIP3   OH216382   4.828   0.814   4.178
 5459TIP3    H116383   4.896   0.829   4.112
 5459TIP3    H216384   4.750   0.857   4.143
 5460TIP3   OH216385   6.257   1.897   3.651
 5460TIP3    H116386   6.223   1.950   3.579
 5460TIP3    H216387   6.188   1.900   3.717
 5461TIP3   OH216388   1.050   0.762   3.321
 5461TIP3    H116389   1.073   0.800   3.405
 5461TIP3    H216390   1.121   0.787   3.262
 5462TIP3   OH216391   4.427   3.400   2.694
 5462TIP3    H116392   4.362   3.453   2.648
 5462TIP3    H216393   4.376   3.341   2.749
 5463TIP3   OH216394   2.579   4.806   4.855
 5463TIP3    H116395   2.623   4.762   4.782
 5463TIP3    H216396   2.602   4.898   4.843
 5464TIP3   OH216397   3.238   5.609   3.602
 5464TIP3    H116398   3.257   5.601   3.508
 5464TIP3    H216399   3.241   5.704   3.618
 5465TIP3   OH216400   5.188   5.128   3.423
 5465TIP3    H116401   5.125   5.145   3.494
 5465TIP3    H216402   5.197   5.032   3.422
 5466TIP3   OH216403   5.847   1.381   2.055
 5466TIP3    H116404   5.854   1.408   1.963
 5466TIP3    H216405   5.937   1.381   2.087
 5467TIP3   OH216406   3.660   3.323   1.792
 5467TIP3    H116407   3.715   3.290   1.863
 5467TIP3    H216408   3.650   3.248   1.733
 5468TIP3   OH216409   5.245   5.191   5.160
 5468TIP3    H116410   5.192   5.137   5.101
 5468TIP3    H216411   5.183   5.254   5.197
 5469TIP3   OH216412   3.026   0.587   0.809
 5469TIP3    H116413   2.954   0.524   0.796
 5469TIP3    H216414   3.029   0.601   0.903
 5470TIP3   OH216415   3.451   2.412   2.655
 5470TIP3    H116416   3.483   2.400   2.744
 5470TIP3    H216417   3.397   2.491   2.659
 5471TIP3   OH216418   4.960   0.934   2.546
 5471TIP3    H116419   4.866   0.947   2.542
 5471TIP3    H216420   4.994   1.013   2.588
 5472TIP3   OH216421   2.652   4.461   2.378
 5472TIP3    H116422   2.731   4.449   2.430
 5472TIP3    H216423   2.679   4.516   2.305
 5473TIP3   OH216424   1.861   2.346   0.072
 5473TIP3    H116425   1.794   2.403   0.033
 5473TIP3    H216426   1.817   2.302   0.144
 5474TIP3   OH216427   3.850   5.488   4.115
 5474TIP3    H116428   3.924   5.546   4.133
 5474TIP3    H216429   3.854   5.472   4.021
 5475TIP3   OH216430   1.031   0.530   3.679
 5475TIP3    H116431   0.958   0.580   3.642
 5475TIP3    H216432   1.058   0.471   3.609
 5476TIP3   OH216433   3.866   1.313   1.613
 5476TIP3    H116434   3.869   1.408   1.604
 5476TIP3    H216435   3.777   1.289   1.588
 5477TIP3   OH216436   0.644   5.647   4.501
 5477TIP3    H116437   0.727   5.661   4.547
 5477TIP3    H216438   0.591   5.596   4.563
 5478TIP3   OH216439   4.283   1.335   4.187
 5478TIP3    H116440   4.264   1.331   4.094
 5478TIP3    H216441   4.261   1.424   4.213
 5479TIP3   OH216442   5.377   0.499   2.054
 5479TIP3    H116443   5.331   0.502   2.138
 5479TIP3    H216444   5.308   0.485   1.989
 5480TIP3   OH216445   4.158   3.071   0.274
 5480TIP3    H116446   4.212   2.992   0.267
 5480TIP3    H216447   4.199   3.133   0.213
 5481TIP3   OH216448   1.506   0.468   2.893
 5481TIP3    H116449   1.457   0.543   2.859
 5481TIP3    H216450   1.438   0.406   2.919
 5482TIP3   OH216451   0.821   2.803   3.677
 5482TIP3    H116452   0.785   2.883   3.638
 5482TIP3    H216453   0.747   2.742   3.677
 5483TIP3   OH216454   4.986   0.558   1.338
 5483TIP3    H116455   5.010   0.603   1.419
 5483TIP3    H216456   4.890   0.562   1.336
 5484TIP3   OH216457   1.343   4.481   3.002
 5484TIP3    H116458   1.321   4.455   3.092
 5484TIP3    H216459   1.375   4.570   3.010
 5485TIP3   OH216460   3.852   2.104   0.804
 5485TIP3    H116461   3.894   2.019   0.818
 5485TIP3    H216462   3.761   2.090   0.830
 5486TIP3   OH216463   5.586   3.326   3.572
 5486TIP3    H116464   5.619   3.238   3.557
 5486TIP3    H216465   5.504   3.330   3.523
 5487TIP3   OH216466   3.844   1.378   2.579
 5487TIP3    H116467   3.833   1.432   2.657
 5487TIP3    H216468   3.919   1.416   2.533
 5488TIP3   OH216469   3.889   2.710   4.349
 5488TIP3    H116470   3.961   2.664   4.392
 5488TIP3    H216471   3.932   2.781   4.300
 5489TIP3   OH216472   1.722   0.757   3.336
 5489TIP3    H116473   1.666   0.704   3.393
 5489TIP3    H216474   1.681   0.752   3.250
 5490TIP3   OH216475   4.368   1.354   0.490
 5490TIP3    H116476   4.346   1.445   0.507
 5490TIP3    H216477   4.438   1.333   0.553
 5491TIP3   OH216478   2.452   0.406   4.312
 5491TIP3    H116479   2.405   0.341   4.261
 5491TIP3    H216480   2.385   0.447   4.367
 5492TIP3   OH216481   4.104   0.123   0.007
 5492TIP3    H116482   4.146   0.060  -0.052
 5492TIP3    H216483   4.170   0.191   0.020
 5493TIP3   OH216484   5.643   5.853   3.015
 5493TIP3    H116485   5.620   5.803   2.937
 5493TIP3    H216486   5.598   5.809   3.087
 5494TIP3   OH216487   4.679   3.604   0.463
 5494TIP3    H116488   4.656   3.694   0.440
 5494TIP3    H216489   4.696   3.606   0.557
 5495TIP3   OH216490   5.820   2.224   0.879
 5495TIP3    H116491   5.895   2.239   0.937
 5495TIP3    H216492   5.747   2.208   0.939
 5496TIP3   OH216493   1.963   3.315   3.036
 5496TIP3    H116494   1.962   3.376   3.109
 5496TIP3    H216495   1.963   3.371   2.958
 5497TIP3   OH216496   4.532   4.338   4.905
 5497TIP3    H116497   4.440   4.324   4.882
 5497TIP3    H216498   4.571   4.250   4.904
 5498TIP3   OH216499   0.323   3.728   1.644
 5498TIP3    H116500   0.356   3.792   1.580
 5498TIP3    H216501   0.245   3.769   1.681
 5499TIP3   OH216502   3.001   0.282   4.332
 5499TIP3    H116503   2.935   0.234   4.381
 5499TIP3    H216504   2.951   0.345   4.280
 5500TIP3   OH216505   3.586   2.557   0.049
 5500TIP3    H116506   3.597   2.646   0.081
 5500TIP3    H216507   3.495   2.536   0.068
 5501TIP3   OH216508   5.384   5.201   4.337
 5501TIP3    H116509   5.377   5.224   4.430
 5501TIP3    H216510   5.353   5.111   4.332
 5502TIP3   OH216511   0.091   0.313   4.269
 5502TIP3    H116512   0.047   0.228   4.277
 5502TIP3    H216513   0.032   0.366   4.215
 5503TIP3   OH216514   5.473   2.302   4.012
 5503TIP3    H116515   5.514   2.375   4.060
 5503TIP3    H216516   5.544   2.240   3.998
 5504TIP3   OH216517   2.661   5.163   3.903
 5504TIP3    H116518   2.581   5.143   3.854
 5504TIP3    H216519   2.723   5.190   3.835
 5505TIP3   OH216520   2.730   0.385   4.343
 5505TIP3    H116521   2.640   0.410   4.321
 5505TIP3    H216522   2.725   0.355   4.434
 5506TIP3   OH216523   6.256   3.364   3.624
 5506TIP3    H116524   6.309   3.436   3.588
 5506TIP3    H216525   6.188   3.349   3.559
 5507TIP3   OH216526   3.769   4.363   4.649
 5507TIP3    H116527   3.779   4.421   4.574
 5507TIP3    H216528   3.843   4.384   4.706
 5508TIP3   OH216529   5.619   5.635   1.984
 5508TIP3    H116530   5.562   5.599   1.916
 5508TIP3    H216531   5.595   5.727   1.989
 5509TIP3   OH216532   6.112   4.658   1.103
 5509TIP3    H116533   6.034   4.710   1.089
 5509TIP3    H216534   6.110   4.636   1.197
 5510TIP3   OH216535   5.419   0.179   2.234
 5510TIP3    H116536   5.390   0.269   2.249
 5510TIP3    H216537   5.363   0.148   2.163
 5511TIP3   OH216538   1.030   2.571   1.088
 5511TIP3    H116539   1.088   2.507   1.129
 5511TIP3    H216540   0.942   2.546   1.118
 5512TIP3   OH216541   1.009   0.625   0.999
 5512TIP3    H116542   1.082   0.564   0.987
 5512TIP3    H216543   0.993   0.624   1.094
 5513TIP3   OH216544   3.116   4.640   5.149
 5513TIP3    H116545   3.200   4.605   5.121
 5513TIP3    H216546   3.052   4.604   5.088
 5514TIP3   OH216547   1.782   2.784   0.135
 5514TIP3    H116548   1.705   2.841   0.129
 5514TIP3    H216549   1.765   2.714   0.072
 5515TIP3   OH216550   1.835   1.946   3.150
 5515TIP3    H116551   1.770   1.890   3.193
 5515TIP3    H216552   1.788   2.027   3.130
 5516TIP3   OH216553   2.189   0.242   2.741
 5516TIP3    H116554   2.129   0.170   2.719
 5516TIP3    H216555   2.135   0.303   2.790
 5517TIP3   OH216556   4.600   3.641   3.474
 5517TIP3    H116557   4.559   3.596   3.547
 5517TIP3    H216558   4.655   3.575   3.432
 5518TIP3   OH216559   5.608   3.556   2.181
 5518TIP3    H116560   5.630   3.611   2.106
 5518TIP3    H216561   5.535   3.601   2.223
 5519TIP3   OH216562   1.969   1.749   1.020
 5519TIP3    H116563   1.948   1.838   1.047
 5519TIP3    H216564   1.947   1.746   0.927
 5520TIP3   OH216565   1.283   5.241   3.696
 5520TIP3    H116566   1.288   5.149   3.669
 5520TIP3    H216567   1.201   5.273   3.659
 5521TIP3   OH216568   1.021   2.845   2.050
 5521TIP3    H116569   0.929   2.870   2.040
 5521TIP3    H216570   1.064   2.923   2.082
 5522TIP3   OH216571   4.805   2.731   2.354
 5522TIP3    H116572   4.851   2.692   2.428
 5522TIP3    H216573   4.855   2.703   2.278
 5523TIP3   OH216574   5.873   3.423   0.838
 5523TIP3    H116575   5.945   3.388   0.786
 5523TIP3    H216576   5.845   3.349   0.893
 5524TIP3   OH216577   3.005   2.789   1.125
 5524TIP3    H116578   3.098   2.766   1.136
 5524TIP3    H216579   2.965   2.766   1.209
 5525TIP3   OH216580   3.029   1.772   4.000
 5525TIP3    H116581   3.103   1.721   3.966
 5525TIP3    H216582   2.995   1.819   3.924
 5526TIP3   OH216583   5.582   2.283   3.368
 5526TIP3    H116584   5.659   2.276   3.312
 5526TIP3    H216585   5.603   2.229   3.444
 5527TIP3   OH216586   6.328   2.481   1.011
 5527TIP3    H116587   6.335   2.410   1.075
 5527TIP3    H216588   6.291   2.554   1.061
 5528TIP3   OH216589   5.897   4.777   3.282
 5528TIP3    H116590   5.818   4.745   3.239
 5528TIP3    H216591   5.968   4.725   3.245
 5529TIP3   OH216592   1.746   1.501   1.559
 5529TIP3    H116593   1.719   1.574   1.616
 5529TIP3    H216594   1.841   1.513   1.549
 5530TIP3   OH216595   3.146   2.342   3.257
 5530TIP3    H116596   3.154   2.306   3.169
 5530TIP3    H216597   3.076   2.406   3.252
 5531TIP3   OH216598   1.528   1.066   5.024
 5531TIP3    H116599   1.589   1.076   4.950
 5531TIP3    H216600   1.481   1.150   5.027
 5532TIP3   OH216601   1.743   4.261   0.000
 5532TIP3    H116602   1.769   4.352   0.013
 5532TIP3    H216603   1.666   4.250   0.055
 5533TIP3   OH216604   4.058   5.281   4.061
 5533TIP3    H116605   4.063   5.353   4.124
 5533TIP3    H216606   4.105   5.314   3.984
 5534TIP3   OH216607   1.301   3.041   2.198
 5534TIP3    H116608   1.248   3.043   2.278
 5534TIP3    H216609   1.239   3.057   2.127
 5535TIP3   OH216610   1.542   3.707   0.443
 5535TIP3    H116611   1.614   3.650   0.414
 5535TIP3    H216612   1.560   3.792   0.402
 5536TIP3   OH216613   5.607   1.623   2.526
 5536TIP3    H116614   5.560   1.640   2.444
 5536TIP3    H216615   5.698   1.614   2.499
 5537TIP3   OH216616   5.848   1.938   3.695
 5537TIP3    H116617   5.778   1.900   3.747
 5537TIP3    H216618   5.927   1.926   3.749
 5538TIP3   OH216619   4.370   0.329   4.805
 5538TIP3    H116620   4.402   0.417   4.784
 5538TIP3    H216621   4.366   0.284   4.721
 5539TIP3   OH216622   3.905   5.363   3.188
 5539TIP3    H116623   3.955   5.445   3.187
 5539TIP3    H216624   3.888   5.347   3.281
 5540TIP3   OH216625   4.937   5.955   4.874
 5540TIP3    H116626   4.924   5.886   4.939
 5540TIP3    H216627   4.976   5.910   4.799
 5541TIP3   OH216628   0.787   0.745   0.446
 5541TIP3    H116629   0.787   0.815   0.381
 5541TIP3    H216630   0.811   0.667   0.397
 5542TIP3   OH216631   2.774   0.909   4.300
 5542TIP3    H116632   2.789   0.815   4.311
 5542TIP3    H216633   2.815   0.949   4.376
 5543TIP3   OH216634   0.243   1.453   0.738
 5543TIP3    H116635   0.332   1.448   0.774
 5543TIP3    H216636   0.257   1.464   0.644
 5544TIP3   OH216637   2.050   1.202   2.635
 5544TIP3    H116638   2.010   1.282   2.669
 5544TIP3    H216639   1.987   1.133   2.656
 5545TIP3   OH216640   6.153   4.637   2.131
 5545TIP3    H116641   6.193   4.616   2.047
 5545TIP3    H216642   6.116   4.724   2.119
 5546TIP3   OH216643   0.897   3.968   1.684
 5546TIP3    H116644   0.913   3.959   1.778
 5546TIP3    H216645   0.802   3.962   1.675
 5547TIP3   OH216646   3.581   1.985   1.079
 5547TIP3    H116647   3.532   2.011   1.157
 5547TIP3    H216648   3.540   1.904   1.050
 5548TIP3   OH216649   3.461   4.610   3.513
 5548TIP3    H116650   3.459   4.659   3.595
 5548TIP3    H216651   3.414   4.665   3.451
 5549TIP3   OH216652   0.509   3.396   3.121
 5549TIP3    H116653   0.568   3.321   3.118
 5549TIP3    H216654   0.566   3.472   3.106
 5550TIP3   OH216655   2.914   3.975   4.240
 5550TIP3    H116656   2.889   3.975   4.147
 5550TIP3    H216657   2.932   3.883   4.260
 5551TIP3   OH216658   3.582   1.248   4.390
 5551TIP3    H116659   3.597   1.202   4.473
 5551TIP3    H216660   3.519   1.316   4.412
 5552TIP3   OH216661   4.548   5.303   3.384
 5552TIP3    H116662   4.587   5.382   3.423
 5552TIP3    H216663   4.493   5.268   3.454
 5553TIP3   OH216664   3.810   2.210   1.862
 5553TIP3    H116665   3.870   2.146   1.824
 5553TIP3    H216666   3.849   2.232   1.947
 5554TIP3   OH216667   4.014   1.564   3.981
 5554TIP3    H116668   3.990   1.653   4.008
 5554TIP3    H216669   3.935   1.513   3.995
 5555TIP3   OH216670   1.474   5.188   3.397
 5555TIP3    H116671   1.409   5.141   3.449
 5555TIP3    H216672   1.461   5.156   3.307
 5556TIP3   OH216673   4.398   2.988   1.935
 5556TIP3    H116674   4.426   2.914   1.989
 5556TIP3    H216675   4.479   3.035   1.914
 5557TIP3   OH216676   0.927   5.072   1.309
 5557TIP3    H116677   0.980   5.064   1.230
 5557TIP3    H216678   0.853   5.126   1.283
 5558TIP3   OH216679   5.145   5.128   2.359
 5558TIP3    H116680   5.142   5.109   2.265
 5558TIP3    H216681   5.238   5.146   2.376
 5559TIP3   OH216682   0.240   5.269   0.955
 5559TIP3    H116683   0.278   5.250   1.041
 5559TIP3    H216684   0.149   5.292   0.974
 5560TIP3   OH216685   4.517   3.467   1.211
 5560TIP3    H116686   4.462   3.490   1.135
 5560TIP3    H216687   4.601   3.441   1.172
 5561TIP3   OH216688   5.508   3.541   5.140
 5561TIP3    H116689   5.509   3.446   5.155
 5561TIP3    H216690   5.487   3.579   5.225
 5562TIP3   OH216691   2.641   3.626   1.879
 5562TIP3    H116692   2.658   3.674   1.960
 5562TIP3    H216693   2.696   3.669   1.814
 5563TIP3   OH216694   2.235   3.893   2.921
 5563TIP3    H116695   2.176   3.883   2.996
 5563TIP3    H216696   2.189   3.851   2.848
 5564TIP3   OH216697   5.138   1.834   4.813
 5564TIP3    H116698   5.160   1.846   4.906
 5564TIP3    H216699   5.157   1.919   4.773
 5565TIP3   OH216700   3.101   2.221   2.265
 5565TIP3    H116701   3.194   2.233   2.247
 5565TIP3    H216702   3.094   2.132   2.300
 5566TIP3   OH216703   3.426   0.590   4.539
 5566TIP3    H116704   3.496   0.537   4.502
 5566TIP3    H216705   3.431   0.673   4.493
 5567TIP3   OH216706   5.538   3.345   0.466
 5567TIP3    H116707   5.600   3.368   0.396
 5567TIP3    H216708   5.574   3.386   0.544
 5568TIP3   OH216709   2.802   2.350   3.399
 5568TIP3    H116710   2.706   2.349   3.407
 5568TIP3    H216711   2.822   2.273   3.344
 5569TIP3   OH216712   4.271   2.802   0.261
 5569TIP3    H116713   4.356   2.819   0.301
 5569TIP3    H216714   4.219   2.763   0.332
 5570TIP3   OH216715   0.216   3.554   3.031
 5570TIP3    H116716   0.184   3.634   2.991
 5570TIP3    H216717   0.240   3.498   2.957
 5571TIP3   OH216718   2.970   3.701   4.299
 5571TIP3    H116719   2.916   3.676   4.374
 5571TIP3    H216720   3.060   3.686   4.328
 5572TIP3   OH216721   3.740   4.613   1.132
 5572TIP3    H116722   3.691   4.539   1.167
 5572TIP3    H216723   3.801   4.574   1.070
 5573TIP3   OH216724   3.580   5.883   4.365
 5573TIP3    H116725   3.623   5.860   4.282
 5573TIP3    H216726   3.589   5.804   4.418
 5574TIP3   OH216727   3.521   2.215   0.263
 5574TIP3    H116728   3.453   2.148   0.251
 5574TIP3    H216729   3.533   2.253   0.176
 5575TIP3   OH216730   5.349   4.927   1.576
 5575TIP3    H116731   5.443   4.909   1.581
 5575TIP3    H216732   5.331   4.979   1.655
 5576TIP3   OH216733   6.440   3.592   0.085
 5576TIP3    H116734   6.437   3.519   0.024
 5576TIP3    H216735   6.353   3.632   0.078
 5577TIP3   OH216736   1.265   1.825   2.591
 5577TIP3    H116737   1.343   1.881   2.583
 5577TIP3    H216738   1.270   1.766   2.516
 5578TIP3   OH216739   4.977   1.256   2.084
 5578TIP3    H116740   5.007   1.341   2.116
 5578TIP3    H216741   4.978   1.265   1.989
 5579TIP3   OH216742   1.555   0.854   3.162
 5579TIP3    H116743   1.605   0.935   3.173
 5579TIP3    H216744   1.477   0.881   3.112
 5580TIP3   OH216745   0.183   5.907   3.147
 5580TIP3    H116746   0.267   5.930   3.108
 5580TIP3    H216747   0.149   5.837   3.092
 5581TIP3   OH216748   5.842   3.456   2.876
 5581TIP3    H116749   5.864   3.384   2.935
 5581TIP3    H216750   5.746   3.461   2.877
 5582TIP3   OH216751   1.378   3.282   3.573
 5582TIP3    H116752   1.431   3.214   3.532
 5582TIP3    H216753   1.370   3.255   3.665
 5583TIP3   OH216754   1.554   5.520   1.044
 5583TIP3    H116755   1.644   5.547   1.026
 5583TIP3    H216756   1.501   5.599   1.029
 5584TIP3   OH216757   2.246   0.942   3.159
 5584TIP3    H116758   2.192   0.862   3.158
 5584TIP3    H216759   2.197   1.004   3.105
 5585TIP3   OH216760   2.492   4.029   2.229
 5585TIP3    H116761   2.413   4.083   2.237
 5585TIP3    H216762   2.518   4.012   2.319
 5586TIP3   OH216763   5.155   4.029   5.168
 5586TIP3    H116764   5.153   3.958   5.105
 5586TIP3    H216765   5.196   3.992   5.246
 5587TIP3   OH216766   1.769   3.949   4.336
 5587TIP3    H116767   1.755   3.927   4.244
 5587TIP3    H216768   1.717   4.028   4.350
 5588TIP3   OH216769   5.884   3.882   1.998
 5588TIP3    H116770   5.950   3.898   2.065
 5588TIP3    H216771   5.896   3.789   1.975
 5589TIP3   OH216772   6.285   5.164   2.762
 5589TIP3    H116773   6.230   5.242   2.769
 5589TIP3    H216774   6.276   5.121   2.847
 5590TIP3   OH216775   2.295   0.883   1.943
 5590TIP3    H116776   2.307   0.789   1.949
 5590TIP3    H216777   2.300   0.914   2.034
 5591TIP3   OH216778   5.575   2.130   1.874
 5591TIP3    H116779   5.622   2.138   1.957
 5591TIP3    H216780   5.520   2.208   1.870
 5592TIP3   OH216781   4.762   0.418   1.500
 5592TIP3    H116782   4.700   0.350   1.527
 5592TIP3    H216783   4.710   0.499   1.499
 5593TIP3   OH216784   2.494   4.670   3.679
 5593TIP3    H116785   2.407   4.666   3.719
 5593TIP3    H216786   2.552   4.701   3.750
 5594TIP3   OH216787   5.182   1.872   4.352
 5594TIP3    H116788   5.129   1.926   4.293
 5594TIP3    H216789   5.121   1.846   4.422
 5595TIP3   OH216790   5.906   2.674   0.169
 5595TIP3    H116791   5.999   2.660   0.190
 5595TIP3    H216792   5.858   2.625   0.235
 5596TIP3   OH216793   4.077   1.219   0.996
 5596TIP3    H116794   4.150   1.231   0.934
 5596TIP3    H216795   4.052   1.128   0.986
 5597TIP3   OH216796   2.103   5.949   5.176
 5597TIP3    H116797   2.120   6.034   5.217
 5597TIP3    H216798   2.162   5.946   5.101
 5598TIP3   OH216799   4.023   5.708   4.130
 5598TIP3    H116800   4.055   5.775   4.190
 5598TIP3    H216801   4.090   5.703   4.061
 5599TIP3   OH216802   5.600   3.132   0.719
 5599TIP3    H116803   5.530   3.197   0.706
 5599TIP3    H216804   5.578   3.091   0.803
 5600TIP3   OH216805   0.028   5.303   4.251
 5600TIP3    H116806   0.097   5.318   4.187
 5600TIP3    H216807   0.063   5.235   4.309
 5601TIP3   OH216808   0.645   2.114   1.427
 5601TIP3    H116809   0.667   2.195   1.472
 5601TIP3    H216810   0.679   2.045   1.483
 5602TIP3   OH216811   2.495   3.757   3.212
 5602TIP3    H116812   2.503   3.703   3.133
 5602TIP3    H216813   2.582   3.756   3.251
 5603TIP3   OH216814   5.279   4.172   0.718
 5603TIP3    H116815   5.354   4.228   0.698
 5603TIP3    H216816   5.211   4.200   0.656
 5604TIP3   OH216817   1.421   5.040   1.512
 5604TIP3    H116818   1.362   4.978   1.468
 5604TIP3    H216819   1.439   5.000   1.596
 5605TIP3   OH216820   6.190   2.575   3.658
 5605TIP3    H116821   6.233   2.660   3.646
 5605TIP3    H216822   6.119   2.593   3.719
 5606TIP3   OH216823   2.833   2.264   3.730
 5606TIP3    H116824   2.782   2.337   3.695
 5606TIP3    H216825   2.771   2.214   3.783
 5607TIP3   OH216826   2.190   5.361   0.428
 5607TIP3    H116827   2.123   5.424   0.402
 5607TIP3    H216828   2.230   5.334   0.345
 5608TIP3   OH216829   4.665   0.222   4.738
 5608TIP3    H116830   4.670   0.140   4.689
 5608TIP3    H216831   4.602   0.275   4.689
 5609TIP3   OH216832   0.258   1.741   4.176
 5609TIP3    H116833   0.189   1.694   4.223
 5609TIP3    H216834   0.257   1.829   4.214
 5610TIP3   OH216835   3.544   3.124   1.596
 5610TIP3    H116836   3.451   3.147   1.593
 5610TIP3    H216837   3.577   3.148   1.509
 5611TIP3   OH216838   0.206   2.408   2.054
 5611TIP3    H116839   0.225   2.416   2.147
 5611TIP3    H216840   0.157   2.326   2.046
 5612TIP3   OH216841   6.188   3.461   3.004
 5612TIP3    H116842   6.247   3.428   2.936
 5612TIP3    H216843   6.135   3.527   2.959
 5613TIP3   OH216844   2.371   1.707   4.930
 5613TIP3    H116845   2.412   1.635   4.882
 5613TIP3    H216846   2.411   1.786   4.893
 5614TIP3   OH216847   0.503   2.210   5.143
 5614TIP3    H116848   0.586   2.172   5.114
 5614TIP3    H216849   0.529   2.279   5.204
 5615TIP3   OH216850   2.905   0.719   2.581
 5615TIP3    H116851   2.910   0.627   2.554
 5615TIP3    H216852   2.825   0.752   2.540
 5616TIP3   OH216853   0.293   5.336   1.688
 5616TIP3    H116854   0.389   5.335   1.691
 5616TIP3    H216855   0.269   5.247   1.661
 5617TIP3   OH216856   3.106   1.677   4.655
 5617TIP3    H116857   3.126   1.763   4.619
 5617TIP3    H216858   3.101   1.619   4.579
 5618TIP3   OH216859   3.225   2.630   3.747
 5618TIP3    H116860   3.297   2.581   3.708
 5618TIP3    H216861   3.169   2.655   3.674
 5619TIP3   OH216862   4.082   3.868   2.572
 5619TIP3    H116863   4.057   3.786   2.615
 5619TIP3    H216864   4.079   3.933   2.642
 5620TIP3   OH216865   3.343   0.249   4.665
 5620TIP3    H116866   3.329   0.295   4.582
 5620TIP3    H216867   3.402   0.306   4.714
 5621TIP3   OH216868   0.300   3.476   4.385
 5621TIP3    H116869   0.348   3.521   4.455
 5621TIP3    H216870   0.299   3.384   4.412
 5622TIP3   OH216871   4.126   2.622   0.890
 5622TIP3    H116872   4.121   2.576   0.974
 5622TIP3    H216873   4.038   2.659   0.878
 5623TIP3   OH216874   4.975   3.572   3.719
 5623TIP3    H116875   4.993   3.609   3.632
 5623TIP3    H216876   5.057   3.585   3.767
 5624TIP3   OH216877   3.674   5.189   3.302
 5624TIP3    H116878   3.730   5.178   3.379
 5624TIP3    H216879   3.619   5.264   3.323
 5625TIP3   OH216880   0.092   4.546   0.868
 5625TIP3    H116881   0.022   4.606   0.893
 5625TIP3    H216882   0.163   4.565   0.930
 5626TIP3   OH216883   3.745   5.797   4.148
 5626TIP3    H116884   3.690   5.799   4.070
 5626TIP3    H216885   3.831   5.769   4.117
 5627TIP3   OH216886   5.427   4.462   1.934
 5627TIP3    H116887   5.424   4.396   1.864
 5627TIP3    H216888   5.513   4.450   1.974
 5628TIP3   OH216889   2.806   3.698   1.627
 5628TIP3    H116890   2.786   3.791   1.618
 5628TIP3    H216891   2.732   3.653   1.587
 5629TIP3   OH216892   3.979   5.656   2.869
 5629TIP3    H116893   4.002   5.748   2.884
 5629TIP3    H216894   3.944   5.655   2.780
 5630TIP3   OH216895   2.486   1.354   0.888
 5630TIP3    H116896   2.521   1.339   0.800
 5630TIP3    H216897   2.401   1.310   0.888
 5631TIP3   OH216898   1.628   1.658   1.974
 5631TIP3    H116899   1.583   1.679   2.056
 5631TIP3    H216900   1.706   1.610   2.002
 5632TIP3   OH216901   1.146   0.013   3.323
 5632TIP3    H116902   1.177   0.056   3.403
 5632TIP3    H216903   1.154  -0.081   3.341
 5633TIP3   OH216904   0.804   1.955   4.451
 5633TIP3    H116905   0.887   1.937   4.406
 5633TIP3    H216906   0.792   1.881   4.510
 5634TIP3   OH216907   4.538   0.064   3.500
 5634TIP3    H116908   4.505   0.031   3.583
 5634TIP3    H216909   4.528   0.159   3.505
 5635TIP3   OH216910   3.430   1.807   2.546
 5635TIP3    H116911   3.399   1.897   2.555
 5635TIP3    H216912   3.387   1.775   2.467
 5636TIP3   OH216913   5.519   2.130   1.357
 5636TIP3    H116914   5.587   2.082   1.309
 5636TIP3    H216915   5.486   2.194   1.293
 5637TIP3   OH216916   4.799   3.473   4.735
 5637TIP3    H116917   4.711   3.441   4.714
 5637TIP3    H216918   4.839   3.489   4.650
 5638TIP3   OH216919   1.203   0.426   0.957
 5638TIP3    H116920   1.236   0.366   1.025
 5638TIP3    H216921   1.278   0.440   0.899
 5639TIP3   OH216922   1.961   4.994   1.516
 5639TIP3    H116923   1.924   5.082   1.512
 5639TIP3    H216924   2.007   4.984   1.432
 5640TIP3   OH216925   3.449   5.951   2.825
 5640TIP3    H116926   3.425   5.908   2.907
 5640TIP3    H216927   3.449   5.881   2.760
 5641TIP3   OH216928   3.480   1.719   3.883
 5641TIP3    H116929   3.407   1.706   3.823
 5641TIP3    H216930   3.510   1.808   3.864
 5642TIP3   OH216931   2.276   3.563   0.145
 5642TIP3    H116932   2.292   3.654   0.169
 5642TIP3    H216933   2.200   3.566   0.087
 5643TIP3   OH216934   1.638   1.744   2.739
 5643TIP3    H116935   1.614   1.685   2.811
 5643TIP3    H216936   1.720   1.784   2.768
 5644TIP3   OH216937   4.971   0.806   2.914
 5644TIP3    H116938   4.983   0.711   2.913
 5644TIP3    H216939   4.931   0.825   2.999
 5645TIP3   OH216940   4.620   5.790   3.693
 5645TIP3    H116941   4.715   5.793   3.706
 5645TIP3    H216942   4.603   5.700   3.664
 5646TIP3   OH216943   3.330   2.051   0.132
 5646TIP3    H116944   3.264   1.996   0.173
 5646TIP3    H216945   3.282   2.104   0.069
 5647TIP3   OH216946   0.970   5.898   0.701
 5647TIP3    H116947   0.882   5.908   0.665
 5647TIP3    H216948   0.996   5.987   0.726
 5648TIP3   OH216949   4.961   1.914   3.952
 5648TIP3    H116950   4.938   1.968   4.028
 5648TIP3    H216951   4.879   1.872   3.927
 5649TIP3   OH216952   4.214   4.375   1.420
 5649TIP3    H116953   4.174   4.460   1.402
 5649TIP3    H216954   4.275   4.361   1.348
 5650TIP3   OH216955   1.694   2.627   1.377
 5650TIP3    H116956   1.729   2.601   1.292
 5650TIP3    H216957   1.599   2.632   1.362
 5651TIP3   OH216958   6.121   4.243   4.274
 5651TIP3    H116959   6.210   4.272   4.256
 5651TIP3    H216960   6.128   4.148   4.285
 5652TIP3   OH216961   2.575   2.569   2.548
 5652TIP3    H116962   2.596   2.488   2.502
 5652TIP3    H216963   2.615   2.638   2.495
 5653TIP3   OH216964   6.060   2.367   2.388
 5653TIP3    H116965   5.986   2.404   2.437
 5653TIP3    H216966   6.111   2.442   2.360
 5654TIP3   OH216967   3.602   0.219   1.438
 5654TIP3    H116968   3.695   0.197   1.445
 5654TIP3    H216969   3.584   0.219   1.344
 5655TIP3   OH216970   5.702   4.603   5.138
 5655TIP3    H116971   5.707   4.511   5.111
 5655TIP3    H216972   5.793   4.633   5.134
 5656TIP3   OH216973   2.518   4.515   0.703
 5656TIP3    H116974   2.518   4.447   0.770
 5656TIP3    H216975   2.472   4.589   0.743
 5657TIP3   OH216976   4.581   2.193   4.439
 5657TIP3    H116977   4.586   2.204   4.534
 5657TIP3    H216978   4.576   2.282   4.404
 5658TIP3   OH216979   0.850   3.578   1.768
 5658TIP3    H116980   0.760   3.602   1.747
 5658TIP3    H216981   0.843   3.520   1.844
 5659TIP3   OH216982   0.762   3.479   1.468
 5659TIP3    H116983   0.744   3.498   1.560
 5659TIP3    H216984   0.723   3.552   1.420
 5660TIP3   OH216985   5.531   0.889   3.052
 5660TIP3    H116986   5.590   0.916   3.122
 5660TIP3    H216987   5.483   0.815   3.089
 5661TIP3   OH216988   5.344   3.199   1.819
 5661TIP3    H116989   5.257   3.232   1.840
 5661TIP3    H216990   5.404   3.256   1.867
 5662TIP3   OH216991   3.230   5.801   1.371
 5662TIP3    H116992   3.237   5.856   1.294
 5662TIP3    H216993   3.247   5.859   1.445
 5663TIP3   OH216994   2.031   0.541   2.580
 5663TIP3    H116995   2.017   0.486   2.502
 5663TIP3    H216996   2.000   0.628   2.554
 5664TIP3   OH216997   5.247   4.017   2.378
 5664TIP3    H116998   5.282   4.077   2.444
 5664TIP3    H216999   5.257   3.930   2.418
 5665TIP3   OH217000   0.455   1.358   0.071
 5665TIP3    H117001   0.363   1.359   0.045
 5665TIP3    H217002   0.497   1.421   0.013
 5666TIP3   OH217003   3.428   5.107   1.602
 5666TIP3    H117004   3.370   5.181   1.584
 5666TIP3    H217005   3.369   5.035   1.623
 5667TIP3   OH217006   3.859   0.113   2.076
 5667TIP3    H117007   3.943   0.139   2.036
 5667TIP3    H217008   3.878   0.107   2.169
 5668TIP3   OH217009   5.903   2.777   3.127
 5668TIP3    H117010   5.869   2.742   3.209
 5668TIP3    H217011   5.831   2.769   3.065
 5669TIP3   OH217012   1.355   1.852   1.793
 5669TIP3    H117013   1.337   1.789   1.724
 5669TIP3    H217014   1.302   1.822   1.868
 5670TIP3   OH217015   3.920   5.873   4.593
 5670TIP3    H117016   3.981   5.903   4.660
 5670TIP3    H217017   3.899   5.783   4.618
 5671TIP3   OH217018   1.234   3.033   1.359
 5671TIP3    H117019   1.274   2.971   1.298
 5671TIP3    H217020   1.151   3.057   1.319
 5672TIP3   OH217021   4.350   4.005   1.205
 5672TIP3    H117022   4.304   3.981   1.125
 5672TIP3    H217023   4.403   3.928   1.228
 5673TIP3   OH217024   3.906   3.740   2.028
 5673TIP3    H117025   3.987   3.731   1.979
 5673TIP3    H217026   3.928   3.714   2.117
 5674TIP3   OH217027   5.679   5.431   1.748
 5674TIP3    H117028   5.747   5.498   1.740
 5674TIP3    H217029   5.597   5.479   1.750
 5675TIP3   OH217030   4.507   1.648   0.271
 5675TIP3    H117031   4.441   1.587   0.238
 5675TIP3    H217032   4.560   1.669   0.194
 5676TIP3   OH217033   2.904   4.848   2.647
 5676TIP3    H117034   2.872   4.892   2.569
 5676TIP3    H217035   2.953   4.772   2.614
 5677TIP3   OH217036   3.693   4.883   3.107
 5677TIP3    H117037   3.679   4.961   3.054
 5677TIP3    H217038   3.788   4.872   3.109
 5678TIP3   OH217039   0.212   2.667   1.245
 5678TIP3    H117040   0.234   2.743   1.190
 5678TIP3    H217041   0.213   2.593   1.184
 5679TIP3   OH217042   0.070   2.611   2.188
 5679TIP3    H117043   0.131   2.684   2.179
 5679TIP3    H217044   0.089   2.554   2.113
 5680TIP3   OH217045   3.631   5.376   4.702
 5680TIP3    H117046   3.646   5.295   4.653
 5680TIP3    H217047   3.665   5.358   4.789
 5681TIP3   OH217048   2.941   0.672   1.833
 5681TIP3    H117049   2.889   0.701   1.908
 5681TIP3    H217050   3.022   0.640   1.872
 5682TIP3   OH217051   1.525   0.602   1.169
 5682TIP3    H117052   1.436   0.638   1.166
 5682TIP3    H217053   1.547   0.585   1.078
 5683TIP3   OH217054   1.180   5.850   4.060
 5683TIP3    H117055   1.235   5.826   4.135
 5683TIP3    H217056   1.093   5.817   4.081
 5684TIP3   OH217057   5.602   0.786   0.218
 5684TIP3    H117058   5.620   0.836   0.297
 5684TIP3    H217059   5.627   0.845   0.146
 5685TIP3   OH217060   1.118   2.734   1.541
 5685TIP3    H117061   1.116   2.822   1.578
 5685TIP3    H217062   1.211   2.715   1.528
 5686TIP3   OH217063   3.049   2.828   1.524
 5686TIP3    H117064   3.033   2.744   1.569
 5686TIP3    H217065   3.032   2.894   1.591
 5687TIP3   OH217066   1.060   1.172   3.307
 5687TIP3    H117067   0.985   1.219   3.343
 5687TIP3    H217068   1.030   1.140   3.222
 5688TIP3   OH217069   4.070   2.807   4.942
 5688TIP3    H117070   4.091   2.858   4.864
 5688TIP3    H217071   4.061   2.717   4.910
 5689TIP3   OH217072   1.193   1.441   1.374
 5689TIP3    H117073   1.282   1.440   1.411
 5689TIP3    H217074   1.182   1.531   1.343
 5690TIP3   OH217075   5.314   0.501   0.559
 5690TIP3    H117076   5.224   0.482   0.532
 5690TIP3    H217077   5.347   0.561   0.492
 5691TIP3   OH217078   6.161   4.404   0.045
 5691TIP3    H117079   6.101   4.337   0.013
 5691TIP3    H217080   6.110   4.485   0.043
 5692TIP3   OH217081   1.505   0.960   4.708
 5692TIP3    H117082   1.485   0.911   4.628
 5692TIP3    H217083   1.421   0.969   4.753
 5693TIP3   OH217084   2.555   2.910   3.274
 5693TIP3    H117085   2.486   2.920   3.339
 5693TIP3    H217086   2.509   2.908   3.190
 5694TIP3   OH217087   1.519   2.187   1.172
 5694TIP3    H117088   1.512   2.282   1.168
 5694TIP3    H217089   1.570   2.170   1.252
 5695TIP3   OH217090   4.757   1.060   2.878
 5695TIP3    H117091   4.849   1.055   2.849
 5695TIP3    H217092   4.714   1.112   2.810
 5696TIP3   OH217093   2.221   0.324   0.894
 5696TIP3    H117094   2.218   0.390   0.963
 5696TIP3    H217095   2.311   0.326   0.862
 5697TIP3   OH217096   0.533   0.477   1.520
 5697TIP3    H117097   0.524   0.570   1.543
 5697TIP3    H217098   0.446   0.452   1.490
 5698TIP3   OH217099   2.584   5.479   1.219
 5698TIP3    H117100   2.503   5.527   1.237
 5698TIP3    H217101   2.571   5.395   1.263
 5699TIP3   OH217102   3.328   2.967   1.224
 5699TIP3    H117103   3.288   2.892   1.178
 5699TIP3    H217104   3.420   2.942   1.233
 5700TIP3   OH217105   2.569   3.397   4.276
 5700TIP3    H117106   2.517   3.383   4.197
 5700TIP3    H217107   2.657   3.369   4.251
 5701TIP3   OH217108   2.708   5.476   4.513
 5701TIP3    H117109   2.729   5.551   4.458
 5701TIP3    H217110   2.787   5.458   4.563
 5702TIP3   OH217111   0.177   4.485   2.046
 5702TIP3    H117112   0.099   4.529   2.081
 5702TIP3    H217113   0.150   4.394   2.034
 5703TIP3   OH217114   0.920   1.266   1.064
 5703TIP3    H117115   1.004   1.226   1.086
 5703TIP3    H217116   0.938   1.360   1.064
 5704TIP3   OH217117   5.863   3.620   0.486
 5704TIP3    H117118   5.781   3.668   0.471
 5704TIP3    H217119   5.880   3.575   0.403
 5705TIP3   OH217120   4.468   4.590   0.032
 5705TIP3    H117121   4.430   4.565  -0.052
 5705TIP3    H217122   4.411   4.550   0.097
 5706TIP3   OH217123   3.107   1.991   4.722
 5706TIP3    H117124   3.152   1.964   4.642
 5706TIP3    H217125   3.023   2.025   4.692
 5707TIP3   OH217126   5.028   4.424   3.302
 5707TIP3    H117127   5.085   4.350   3.278
 5707TIP3    H217128   4.960   4.424   3.235
 5708TIP3   OH217129   1.700   3.142   2.858
 5708TIP3    H117130   1.696   3.112   2.768
 5708TIP3    H217131   1.735   3.068   2.907
 5709TIP3   OH217132   5.006   5.663   1.442
 5709TIP3    H117133   5.082   5.719   1.457
 5709TIP3    H217134   5.020   5.588   1.500
 5710TIP3   OH217135   1.396   1.044   1.830
 5710TIP3    H117136   1.357   1.110   1.887
 5710TIP3    H217137   1.429   0.976   1.890
 5711TIP3   OH217138   1.936   2.129   3.751
 5711TIP3    H117139   1.970   2.200   3.697
 5711TIP3    H217140   1.993   2.127   3.828
 5712TIP3   OH217141   0.197   1.293   5.065
 5712TIP3    H117142   0.127   1.320   5.124
 5712TIP3    H217143   0.194   1.197   5.068
 5713TIP3   OH217144   0.563   0.565   3.000
 5713TIP3    H117145   0.580   0.616   3.078
 5713TIP3    H217146   0.558   0.629   2.929
 5714TIP3   OH217147   0.117   4.729   1.699
 5714TIP3    H117148   0.117   4.642   1.659
 5714TIP3    H217149   0.178   4.722   1.772
 5715TIP3   OH217150   0.439   4.426   3.390
 5715TIP3    H117151   0.356   4.453   3.351
 5715TIP3    H217152   0.487   4.508   3.404
 5716TIP3   OH217153   1.943   0.783   1.232
 5716TIP3    H117154   1.907   0.800   1.320
 5716TIP3    H217155   1.971   0.869   1.201
 5717TIP3   OH217156   3.677   5.796   2.990
 5717TIP3    H117157   3.680   5.752   3.075
 5717TIP3    H217158   3.674   5.889   3.011
 5718TIP3   OH217159   2.652   5.398   0.187
 5718TIP3    H117160   2.741   5.429   0.201
 5718TIP3    H217161   2.633   5.344   0.264
 5719TIP3   OH217162   3.844   1.588   1.695
 5719TIP3    H117163   3.752   1.614   1.703
 5719TIP3    H217164   3.891   1.670   1.680
 5720TIP3   OH217165   5.741   4.320   5.076
 5720TIP3    H117166   5.778   4.329   4.988
 5720TIP3    H217167   5.813   4.283   5.128
 5721TIP3   OH217168   2.525   3.323   1.490
 5721TIP3    H117169   2.507   3.343   1.582
 5721TIP3    H217170   2.591   3.254   1.493
 5722TIP3   OH217171   4.809   2.856   3.964
 5722TIP3    H117172   4.880   2.810   4.008
 5722TIP3    H217173   4.733   2.799   3.973
 5723TIP3   OH217174   5.276   2.504   1.864
 5723TIP3    H117175   5.298   2.570   1.799
 5723TIP3    H217176   5.356   2.453   1.875
 5724TIP3   OH217177   2.788   4.921   0.970
 5724TIP3    H117178   2.781   4.864   0.894
 5724TIP3    H217179   2.803   5.008   0.933
 5725TIP3   OH217180   0.526   4.250   2.062
 5725TIP3    H117181   0.608   4.218   2.100
 5725TIP3    H217182   0.509   4.332   2.107
 5726TIP3   OH217183   0.175   4.787   2.763
 5726TIP3    H117184   0.126   4.708   2.782
 5726TIP3    H217185   0.266   4.765   2.785
 5727TIP3   OH217186   1.697   0.635   0.897
 5727TIP3    H117187   1.767   0.648   0.832
 5727TIP3    H217188   1.740   0.588   0.969
 5728TIP3   OH217189   0.334   3.902   3.196
 5728TIP3    H117190   0.254   3.893   3.247
 5728TIP3    H217191   0.405   3.891   3.259
 5729TIP3   OH217192   1.246   1.472   0.961
 5729TIP3    H117193   1.287   1.386   0.971
 5729TIP3    H217194   1.158   1.461   0.996
 5730TIP3   OH217195   0.487   0.715   3.534
 5730TIP3    H117196   0.479   0.735   3.627
 5730TIP3    H217197   0.459   0.795   3.490
 5731TIP3   OH217198   3.201   0.895   1.067
 5731TIP3    H117199   3.158   0.902   0.982
 5731TIP3    H217200   3.248   0.978   1.078
 5732TIP3   OH217201   1.370   2.493   3.876
 5732TIP3    H117202   1.317   2.417   3.855
 5732TIP3    H217203   1.444   2.458   3.926
 5733TIP3   OH217204   6.000   3.929   1.608
 5733TIP3    H117205   6.085   3.890   1.587
 5733TIP3    H217206   5.949   3.921   1.528
 5734TIP3   OH217207   4.093   1.206   2.993
 5734TIP3    H117208   4.029   1.228   3.061
 5734TIP3    H217209   4.144   1.286   2.981
 5735TIP3   OH217210   1.920   5.238   0.987
 5735TIP3    H117211   1.899   5.309   1.048
 5735TIP3    H217212   1.942   5.164   1.044
 5736TIP3   OH217213   6.236   0.638   0.546
 5736TIP3    H117214   6.188   0.569   0.592
 5736TIP3    H217215   6.191   0.646   0.461
 5737TIP3   OH217216   1.026   0.635   0.282
 5737TIP3    H117217   1.058   0.556   0.237
 5737TIP3    H217218   1.052   0.707   0.225
 5738TIP3   OH217219   0.283   4.778   2.282
 5738TIP3    H117220   0.289   4.847   2.348
 5738TIP3    H217221   0.195   4.743   2.291
 5739TIP3   OH217222   6.146   3.466   4.808
 5739TIP3    H117223   6.174   3.381   4.773
 5739TIP3    H217224   6.051   3.467   4.797
 5740TIP3   OH217225   5.425   3.560   0.198
 5740TIP3    H117226   5.374   3.535   0.275
 5740TIP3    H217227   5.424   3.482   0.142
 5741TIP3   OH217228   4.250   0.673   2.526
 5741TIP3    H117229   4.207   0.645   2.445
 5741TIP3    H217230   4.327   0.618   2.532
 5742TIP3   OH217231   1.107   0.331   0.678
 5742TIP3    H117232   1.088   0.424   0.694
 5742TIP3    H217233   1.078   0.286   0.757
 5743TIP3   OH217234   0.003   2.445   0.336
 5743TIP3    H117235   0.017   2.366   0.387
 5743TIP3    H217236   0.076   2.448   0.275
 5744TIP3   OH217237   4.091   0.201   4.064
 5744TIP3    H117238   4.054   0.280   4.104
 5744TIP3    H217239   4.031   0.131   4.090
 5745TIP3   OH217240   1.099   0.125   4.099
 5745TIP3    H117241   1.037   0.122   4.026
 5745TIP3    H217242   1.147   0.042   4.093
 5746TIP3   OH217243   0.715   1.959   2.989
 5746TIP3    H117244   0.726   2.050   3.017
 5746TIP3    H217245   0.716   1.963   2.894
 5747TIP3   OH217246   1.901   5.595   3.891
 5747TIP3    H117247   1.857   5.510   3.901
 5747TIP3    H217248   1.986   5.584   3.933
 5748TIP3   OH217249   5.544   4.826   0.706
 5748TIP3    H117250   5.461   4.871   0.725
 5748TIP3    H217251   5.563   4.777   0.786
 5749TIP3   OH217252   4.543   3.367   0.482
 5749TIP3    H117253   4.475   3.376   0.415
 5749TIP3    H217254   4.583   3.454   0.487
 5750TIP3   OH217255   3.894   1.174   5.164
 5750TIP3    H117256   3.893   1.080   5.142
 5750TIP3    H217257   3.802   1.198   5.168
 5751TIP3   OH217258   1.042   4.595   1.145
 5751TIP3    H117259   0.986   4.591   1.067
 5751TIP3    H217260   1.089   4.678   1.136
 5752TIP3   OH217261   3.257   3.722   1.809
 5752TIP3    H117262   3.169   3.696   1.780
 5752TIP3    H217263   3.261   3.694   1.900
 5753TIP3   OH217264   1.713   5.501   2.104
 5753TIP3    H117265   1.691   5.532   2.192
 5753TIP3    H217266   1.798   5.459   2.115
 5754TIP3   OH217267   3.340   1.726   0.042
 5754TIP3    H117268   3.402   1.665   0.001
 5754TIP3    H217269   3.324   1.793  -0.026
 5755TIP3   OH217270   1.339   2.155   4.070
 5755TIP3    H117271   1.368   2.245   4.085
 5755TIP3    H217272   1.275   2.138   4.139
 5756TIP3   OH217273   0.623   4.020   1.108
 5756TIP3    H117274   0.679   3.967   1.051
 5756TIP3    H217275   0.675   4.098   1.126
 5757TIP3   OH217276   1.657   3.075   2.174
 5757TIP3    H117277   1.613   3.118   2.101
 5757TIP3    H217278   1.620   2.987   2.176
 5758TIP3   OH217279   5.554   3.337   1.055
 5758TIP3    H117280   5.593   3.419   1.085
 5758TIP3    H217281   5.629   3.279   1.038
 5759TIP3   OH217282   1.407   4.398   3.266
 5759TIP3    H117283   1.494   4.411   3.228
 5759TIP3    H217284   1.421   4.334   3.336
 5760TIP3   OH217285   5.129   3.846   1.057
 5760TIP3    H117286   5.049   3.882   1.018
 5760TIP3    H217287   5.132   3.884   1.144
 5761TIP3   OH217288   5.981   1.593   3.289
 5761TIP3    H117289   5.940   1.663   3.340
 5761TIP3    H217290   5.930   1.515   3.311
 5762TIP3   OH217291   6.030   5.234   0.504
 5762TIP3    H117292   5.964   5.241   0.574
 5762TIP3    H217293   6.073   5.319   0.503
 5763TIP3   OH217294   0.813   4.215   4.436
 5763TIP3    H117295   0.853   4.146   4.490
 5763TIP3    H217296   0.779   4.278   4.500
 5764TIP3   OH217297   0.426   2.796   0.912
 5764TIP3    H117298   0.337   2.822   0.935
 5764TIP3    H217299   0.480   2.872   0.932
 5765TIP3   OH217300   1.523   4.328   2.063
 5765TIP3    H117301   1.496   4.386   1.992
 5765TIP3    H217302   1.568   4.385   2.126
 5766TIP3   OH217303   1.861   4.077   0.150
 5766TIP3    H117304   1.857   3.992   0.105
 5766TIP3    H217305   1.829   4.139   0.085
 5767TIP3   OH217306   0.051   2.960   2.549
 5767TIP3    H117307   0.029   3.007   2.469
 5767TIP3    H217308  -0.030   2.917   2.574
 5768TIP3   OH217309   1.540   3.842   2.916
 5768TIP3    H117310   1.595   3.777   2.873
 5768TIP3    H217311   1.469   3.792   2.955
 5769TIP3   OH217312   0.678   5.242   0.914
 5769TIP3    H117313   0.685   5.180   0.987
 5769TIP3    H217314   0.669   5.186   0.836
 5770TIP3   OH217315   5.644   0.380   2.006
 5770TIP3    H117316   5.549   0.386   2.016
 5770TIP3    H217317   5.662   0.286   2.013
 5771TIP3   OH217318   2.395   0.374   2.622
 5771TIP3    H117319   2.368   0.464   2.604
 5771TIP3    H217320   2.322   0.337   2.671
 5772TIP3   OH217321   1.913   4.668   4.184
 5772TIP3    H117322   1.973   4.600   4.152
 5772TIP3    H217323   1.938   4.747   4.137
 5773TIP3   OH217324   0.229   1.663   2.283
 5773TIP3    H117325   0.301   1.602   2.262
 5773TIP3    H217326   0.272   1.735   2.329
 5774TIP3   OH217327   6.085   2.641   1.897
 5774TIP3    H117328   6.018   2.579   1.868
 5774TIP3    H217329   6.150   2.640   1.827
 5775TIP3   OH217330   5.062   2.079   4.218
 5775TIP3    H117331   5.105   2.136   4.281
 5775TIP3    H217332   5.111   2.092   4.136
 5776TIP3   OH217333   0.829   3.582   4.202
 5776TIP3    H117334   0.858   3.669   4.176
 5776TIP3    H217335   0.888   3.556   4.272
 5777TIP3   OH217336   3.365   4.090   2.222
 5777TIP3    H117337   3.328   4.087   2.310
 5777TIP3    H217338   3.291   4.072   2.165
 5778TIP3   OH217339   4.213   2.858   5.195
 5778TIP3    H117340   4.143   2.921   5.177
 5778TIP3    H217341   4.173   2.773   5.177
 5779TIP3   OH217342   1.880   2.311   3.422
 5779TIP3    H117343   1.859   2.312   3.329
 5779TIP3    H217344   1.884   2.219   3.445
 5780TIP3   OH217345   0.954   2.683   5.182
 5780TIP3    H117346   0.887   2.689   5.114
 5780TIP3    H217347   1.036   2.672   5.135
 5781TIP3   OH217348   5.536   5.708   3.267
 5781TIP3    H117349   5.471   5.661   3.214
 5781TIP3    H217350   5.516   5.682   3.357
 5782TIP3   OH217351   3.204   4.666   1.524
 5782TIP3    H117352   3.146   4.670   1.601
 5782TIP3    H217353   3.285   4.628   1.558
 5783TIP3   OH217354   3.627   5.278   0.211
 5783TIP3    H117355   3.568   5.312   0.144
 5783TIP3    H217356   3.656   5.356   0.260
 5784TIP3   OH217357   3.172   4.787   0.338
 5784TIP3    H117358   3.130   4.763   0.421
 5784TIP3    H217359   3.263   4.759   0.348
 5785TIP3   OH217360   3.960   2.777   1.677
 5785TIP3    H117361   3.879   2.731   1.653
 5785TIP3    H217362   3.933   2.838   1.746
 5786TIP3   OH217363   6.127   0.083   0.253
 5786TIP3    H117364   6.111   0.176   0.265
 5786TIP3    H217365   6.169   0.055   0.334
 5787TIP3   OH217366   4.027   2.368   4.399
 5787TIP3    H117367   4.108   2.333   4.363
 5787TIP3    H217368   4.032   2.349   4.493
 5788TIP3   OH217369   1.103   3.465   0.103
 5788TIP3    H117370   1.086   3.511   0.020
 5788TIP3    H217371   1.117   3.535   0.167
 5789TIP3   OH217372   4.377   2.048   3.677
 5789TIP3    H117373   4.392   1.975   3.737
 5789TIP3    H217374   4.435   2.117   3.710
 5790TIP3   OH217375   0.194   1.454   1.629
 5790TIP3    H117376   0.279   1.454   1.586
 5790TIP3    H217377   0.197   1.379   1.688
 5791TIP3   OH217378   1.793   5.807   2.403
 5791TIP3    H117379   1.792   5.900   2.378
 5791TIP3    H217380   1.835   5.807   2.489
 5792TIP3   OH217381   2.074   0.320   1.509
 5792TIP3    H117382   2.040   0.410   1.511
 5792TIP3    H217383   2.024   0.275   1.578
 5793TIP3   OH217384   1.246   5.496   0.919
 5793TIP3    H117385   1.288   5.418   0.956
 5793TIP3    H217386   1.241   5.558   0.992
 5794TIP3   OH217387   4.733   2.116   2.958
 5794TIP3    H117388   4.815   2.162   2.974
 5794TIP3    H217389   4.759   2.025   2.943
 5795TIP3   OH217390   0.673   0.951   5.097
 5795TIP3    H117391   0.718   0.869   5.116
 5795TIP3    H217392   0.607   0.960   5.165
 5796TIP3   OH217393   4.274   4.601   4.139
 5796TIP3    H117394   4.263   4.646   4.223
 5796TIP3    H217395   4.368   4.605   4.123
 5797TIP3   OH217396   1.917   4.682   2.737
 5797TIP3    H117397   1.841   4.734   2.708
 5797TIP3    H217398   1.965   4.741   2.795
 5798TIP3   OH217399   1.831   1.473   2.072
 5798TIP3    H117400   1.785   1.412   2.015
 5798TIP3    H217401   1.916   1.486   2.030
 5799TIP3   OH217402   2.028   5.886   1.980
 5799TIP3    H117403   2.024   5.863   2.073
 5799TIP3    H217404   2.047   5.980   1.979
 5800TIP3   OH217405   2.335   3.604   3.715
 5800TIP3    H117406   2.267   3.625   3.779
 5800TIP3    H217407   2.354   3.688   3.673
 5801TIP3   OH217408   0.767   3.219   0.494
 5801TIP3    H117409   0.718   3.152   0.542
 5801TIP3    H217410   0.846   3.174   0.463
 5802TIP3   OH217411   4.779   3.350   1.907
 5802TIP3    H117412   4.772   3.348   2.002
 5802TIP3    H217413   4.854   3.406   1.890
 5803TIP3   OH217414   2.177   4.856   2.130
 5803TIP3    H117415   2.195   4.796   2.057
 5803TIP3    H217416   2.089   4.831   2.160
 5804TIP3   OH217417   5.177   3.465   1.048
 5804TIP3    H117418   5.192   3.384   1.001
 5804TIP3    H217419   5.166   3.438   1.140
 5805TIP3   OH217420   4.633   0.255   0.985
 5805TIP3    H117421   4.642   0.163   0.963
 5805TIP3    H217422   4.641   0.258   1.081
 5806TIP3   OH217423   4.699   2.401   5.053
 5806TIP3    H117424   4.626   2.342   5.074
 5806TIP3    H217425   4.745   2.413   5.136
 5807TIP3   OH217426   3.919   5.270   2.519
 5807TIP3    H117427   3.903   5.353   2.564
 5807TIP3    H217428   3.914   5.291   2.426
 5808TIP3   OH217429   2.493   5.798   1.422
 5808TIP3    H117430   2.411   5.807   1.470
 5808TIP3    H217431   2.483   5.717   1.371
 5809TIP3   OH217432   1.783   0.753   4.977
 5809TIP3    H117433   1.700   0.713   4.952
 5809TIP3    H217434   1.843   0.733   4.906
 5810TIP3   OH217435   6.144   5.476   0.532
 5810TIP3    H117436   6.231   5.460   0.494
 5810TIP3    H217437   6.157   5.462   0.626
 5811TIP3   OH217438   4.144   2.992   4.770
 5811TIP3    H117439   4.219   3.034   4.810
 5811TIP3    H217440   4.069   3.044   4.798
 5812TIP3   OH217441   5.180   5.393   1.258
 5812TIP3    H117442   5.090   5.407   1.230
 5812TIP3    H217443   5.180   5.421   1.350
 5813TIP3   OH217444   0.102   1.948   5.205
 5813TIP3    H117445   0.156   2.003   5.147
 5813TIP3    H217446   0.136   1.860   5.192
 5814TIP3   OH217447   5.710   2.972   1.208
 5814TIP3    H117448   5.663   2.960   1.291
 5814TIP3    H217449   5.781   2.909   1.212
 5815TIP3   OH217450   5.973   4.612   5.159
 5815TIP3    H117451   5.973   4.537   5.100
 5815TIP3    H217452   6.048   4.664   5.131
 5816TIP3   OH217453   3.974   4.267   3.756
 5816TIP3    H117454   3.983   4.218   3.837
 5816TIP3    H217455   3.885   4.301   3.757
 5817TIP3   OH217456   4.302   0.809   4.801
 5817TIP3    H117457   4.304   0.899   4.767
 5817TIP3    H217458   4.268   0.818   4.890
 5818TIP3   OH217459   4.716   5.133   5.113
 5818TIP3    H117460   4.745   5.203   5.055
 5818TIP3    H217461   4.758   5.054   5.078
 5819TIP3   OH217462   3.830   4.910   2.672
 5819TIP3    H117463   3.873   4.826   2.687
 5819TIP3    H217464   3.872   4.970   2.734
 5820TIP3   OH217465   5.421   1.684   5.235
 5820TIP3    H117466   5.478   1.743   5.285
 5820TIP3    H217467   5.478   1.651   5.165
 5821TIP3   OH217468   1.769   2.918   3.039
 5821TIP3    H117469   1.840   2.862   3.006
 5821TIP3    H217470   1.689   2.877   3.007
 5822TIP3   OH217471   2.721   1.467   0.278
 5822TIP3    H117472   2.775   1.390   0.296
 5822TIP3    H217473   2.781   1.541   0.291
 5823TIP3   OH217474   5.101   2.589   0.781
 5823TIP3    H117475   5.105   2.678   0.747
 5823TIP3    H217476   5.191   2.568   0.805
 5824TIP3   OH217477   4.080   0.402   2.617
 5824TIP3    H117478   4.047   0.463   2.683
 5824TIP3    H217479   4.175   0.405   2.629
 5825TIP3   OH217480   5.810   5.931   4.177
 5825TIP3    H117481   5.838   5.851   4.132
 5825TIP3    H217482   5.823   5.911   4.270
 5826TIP3   OH217483   6.355   1.197   1.829
 5826TIP3    H117484   6.322   1.117   1.870
 5826TIP3    H217485   6.357   1.176   1.735
 5827TIP3   OH217486   1.555   0.868   2.617
 5827TIP3    H117487   1.579   0.960   2.626
 5827TIP3    H217488   1.461   0.866   2.634
 5828TIP3   OH217489   3.227   5.673   4.492
 5828TIP3    H117490   3.263   5.757   4.521
 5828TIP3    H217491   3.293   5.639   4.431
 5829TIP3   OH217492   2.526   1.354   3.548
 5829TIP3    H117493   2.494   1.307   3.471
 5829TIP3    H217494   2.447   1.383   3.593
 5830TIP3   OH217495   1.645   2.154   0.577
 5830TIP3    H117496   1.740   2.159   0.589
 5830TIP3    H217497   1.611   2.146   0.666
 5831TIP3   OH217498   6.071   2.861   0.695
 5831TIP3    H117499   6.040   2.774   0.670
 5831TIP3    H217500   6.087   2.906   0.612
 5832TIP3   OH217501   5.238   5.346   3.947
 5832TIP3    H117502   5.330   5.324   3.960
 5832TIP3    H217503   5.238   5.409   3.875
 5833TIP3   OH217504   5.311   3.167   2.492
 5833TIP3    H117505   5.380   3.117   2.448
 5833TIP3    H217506   5.314   3.253   2.451
 5834TIP3   OH217507   0.550   4.478   0.847
 5834TIP3    H117508   0.459   4.491   0.873
 5834TIP3    H217509   0.583   4.566   0.829
 5835TIP3   OH217510   1.949   1.005   4.551
 5835TIP3    H117511   2.018   0.971   4.494
 5835TIP3    H217512   1.991   1.015   4.637
 5836TIP3   OH217513   1.522   0.357   3.498
 5836TIP3    H117514   1.501   0.448   3.518
 5836TIP3    H217515   1.533   0.356   3.403
 5837TIP3   OH217516   1.907   2.907   0.581
 5837TIP3    H117517   1.861   2.991   0.574
 5837TIP3    H217518   1.842   2.842   0.553
 5838TIP3   OH217519   0.935   0.814   3.874
 5838TIP3    H117520   0.872   0.747   3.901
 5838TIP3    H217521   0.980   0.774   3.799
 5839TIP3   OH217522   3.557   3.570   1.764
 5839TIP3    H117523   3.593   3.481   1.765
 5839TIP3    H217524   3.467   3.559   1.734
 5840TIP3   OH217525   2.043   2.933   4.552
 5840TIP3    H117526   2.098   3.010   4.569
 5840TIP3    H217527   1.964   2.950   4.603
 5841TIP3   OH217528   1.944   4.814   0.018
 5841TIP3    H117529   2.003   4.783  -0.051
 5841TIP3    H217530   1.963   4.907   0.027
 5842TIP3   OH217531   0.642   4.042   2.477
 5842TIP3    H117532   0.686   3.993   2.546
 5842TIP3    H217533   0.683   4.128   2.478
 5843TIP3   OH217534   5.446   1.568   3.292
 5843TIP3    H117535   5.521   1.554   3.233
 5843TIP3    H217536   5.400   1.643   3.255
 5844TIP3   OH217537   5.538   0.447   4.078
 5844TIP3    H117538   5.572   0.368   4.120
 5844TIP3    H217539   5.444   0.445   4.097
 5845TIP3   OH217540   1.657   5.951   1.012
 5845TIP3    H117541   1.627   6.003   0.937
 5845TIP3    H217542   1.584   5.955   1.075
 5846TIP3   OH217543   1.342   2.374   1.815
 5846TIP3    H117544   1.333   2.469   1.816
 5846TIP3    H217545   1.271   2.342   1.871
 5847TIP3   OH217546   3.025   2.133   1.212
 5847TIP3    H117547   3.023   2.207   1.151
 5847TIP3    H217548   3.056   2.170   1.295
 5848TIP3   OH217549   3.490   4.597   4.777
 5848TIP3    H117550   3.536   4.598   4.693
 5848TIP3    H217551   3.558   4.574   4.841
 5849TIP3   OH217552   3.720   0.799   0.084
 5849TIP3    H117553   3.729   0.747   0.164
 5849TIP3    H217554   3.647   0.758   0.038
 5850TIP3   OH217555   5.049   2.972   0.478
 5850TIP3    H117556   5.084   3.042   0.534
 5850TIP3    H217557   4.958   2.963   0.506
 5851TIP3   OH217558   6.055   0.529   3.957
 5851TIP3    H117559   5.999   0.604   3.938
 5851TIP3    H217560   5.999   0.468   4.005
 5852TIP3   OH217561   1.019   1.259   0.514
 5852TIP3    H117562   0.997   1.176   0.472
 5852TIP3    H217563   0.945   1.277   0.572
 5853TIP3   OH217564   0.582   3.351   0.338
 5853TIP3    H117565   0.637   3.425   0.312
 5853TIP3    H217566   0.643   3.287   0.375
 5854TIP3   OH217567   6.014   5.615   2.274
 5854TIP3    H117568   5.931   5.662   2.266
 5854TIP3    H217569   6.075   5.680   2.310
 5855TIP3   OH217570   3.068   4.381   3.490
 5855TIP3    H117571   3.149   4.332   3.478
 5855TIP3    H217572   2.999   4.314   3.489
 5856TIP3   OH217573   3.267   5.890   3.568
 5856TIP3    H117574   3.339   5.929   3.518
 5856TIP3    H217575   3.211   5.965   3.590
 5857TIP3   OH217576   5.672   3.068   2.935
 5857TIP3    H117577   5.627   3.128   2.995
 5857TIP3    H217578   5.608   3.051   2.866
 5858TIP3   OH217579   2.853   0.832   0.894
 5858TIP3    H117580   2.838   0.896   0.964
 5858TIP3    H217581   2.942   0.851   0.864
 5859TIP3   OH217582   1.750   2.352   1.263
 5859TIP3    H117583   1.815   2.400   1.315
 5859TIP3    H217584   1.669   2.360   1.314
 5860TIP3   OH217585   2.879   3.554   0.708
 5860TIP3    H117586   2.818   3.626   0.689
 5860TIP3    H217587   2.905   3.568   0.799
 5861TIP3   OH217588   0.315   0.146   4.114
 5861TIP3    H117589   0.305   0.051   4.117
 5861TIP3    H217590   0.226   0.180   4.117
 5862TIP3   OH217591   4.215   3.875   0.810
 5862TIP3    H117592   4.238   3.898   0.721
 5862TIP3    H217593   4.149   3.806   0.801
 5863TIP3   OH217594   3.274   0.533   0.705
 5863TIP3    H117595   3.184   0.544   0.737
 5863TIP3    H217596   3.327   0.529   0.784
 5864TIP3   OH217597   2.474   2.987   4.176
 5864TIP3    H117598   2.561   2.951   4.164
 5864TIP3    H217599   2.415   2.914   4.160
 5865TIP3   OH217600   4.916   0.379   4.528
 5865TIP3    H117601   4.878   0.466   4.517
 5865TIP3    H217602   4.970   0.366   4.450
 5866TIP3   OH217603   1.311   0.892   0.642
 5866TIP3    H117604   1.277   0.840   0.714
 5866TIP3    H217605   1.239   0.949   0.617
 5867TIP3   OH217606   2.958   3.383   2.198
 5867TIP3    H117607   2.972   3.466   2.245
 5867TIP3    H217608   2.866   3.386   2.172
 5868TIP3   OH217609   1.995   3.819   5.190
 5868TIP3    H117610   2.058   3.757   5.153
 5868TIP3    H217611   2.024   3.904   5.159
 5869TIP3   OH217612   5.101   5.659   2.598
 5869TIP3    H117613   5.167   5.612   2.548
 5869TIP3    H217614   5.028   5.670   2.537
 5870TIP3   OH217615   0.470   0.665   1.231
 5870TIP3    H117616   0.465   0.662   1.327
 5870TIP3    H217617   0.473   0.759   1.210
 5871TIP3   OH217618   0.361   0.607   0.857
 5871TIP3    H117619   0.450   0.619   0.825
 5871TIP3    H217620   0.353   0.669   0.930
 5872TIP3   OH217621   1.064   5.587   2.920
 5872TIP3    H117622   1.060   5.632   2.836
 5872TIP3    H217623   1.038   5.653   2.984
 5873TIP3   OH217624   3.726   3.553   1.197
 5873TIP3    H117625   3.657   3.577   1.259
 5873TIP3    H217626   3.805   3.549   1.251
 5874TIP3   OH217627   4.902   0.498   5.132
 5874TIP3    H117628   4.908   0.545   5.215
 5874TIP3    H217629   4.808   0.490   5.115
 5875TIP3   OH217630   2.696   2.769   3.567
 5875TIP3    H117631   2.730   2.772   3.478
 5875TIP3    H217632   2.702   2.677   3.593
 5876TIP3   OH217633   0.722   3.242   3.110
 5876TIP3    H117634   0.765   3.163   3.143
 5876TIP3    H217635   0.794   3.300   3.085
 5877TIP3   OH217636   0.455   4.453   3.867
 5877TIP3    H117637   0.495   4.454   3.780
 5877TIP3    H217638   0.407   4.536   3.872
 5878TIP3   OH217639   2.902   3.301   3.996
 5878TIP3    H117640   2.825   3.273   4.045
 5878TIP3    H217641   2.928   3.223   3.946
 5879TIP3   OH217642   3.167   5.032   0.768
 5879TIP3    H117643   3.104   5.104   0.764
 5879TIP3    H217644   3.149   4.989   0.851
 5880TIP3   OH217645   1.838   1.817   4.837
 5880TIP3    H117646   1.813   1.725   4.842
 5880TIP3    H217647   1.922   1.822   4.883
 5881TIP3   OH217648   3.172   2.328   2.970
 5881TIP3    H117649   3.247   2.268   2.975
 5881TIP3    H217650   3.207   2.407   2.929
 5882TIP3   OH217651   2.844   2.183   3.140
 5882TIP3    H117652   2.919   2.181   3.081
 5882TIP3    H217653   2.778   2.129   3.097
 5883TIP3   OH217654   1.451   5.252   0.362
 5883TIP3    H117655   1.524   5.246   0.423
 5883TIP3    H217656   1.383   5.300   0.409
 5884TIP3   OH217657   4.722   4.905   3.564
 5884TIP3    H117658   4.627   4.909   3.572
 5884TIP3    H217659   4.750   4.852   3.639
 5885TIP3   OH217660   4.660   3.006   3.271
 5885TIP3    H117661   4.623   2.919   3.287
 5885TIP3    H217662   4.739   2.990   3.219
 5886TIP3   OH217663   1.080   2.808   3.697
 5886TIP3    H117664   1.101   2.901   3.706
 5886TIP3    H217665   0.987   2.807   3.674
 5887TIP3   OH217666   0.682   2.280   1.851
 5887TIP3    H117667   0.631   2.206   1.882
 5887TIP3    H217668   0.738   2.303   1.925
 5888TIP3   OH217669   2.092   1.002   1.131
 5888TIP3    H117670   2.061   1.043   1.051
 5888TIP3    H217671   2.135   1.072   1.179
 5889TIP3   OH217672   6.080   0.574   1.730
 5889TIP3    H117673   6.032   0.495   1.755
 5889TIP3    H217674   6.166   0.542   1.704
 5890TIP3   OH217675   4.818   1.288   1.142
 5890TIP3    H117676   4.862   1.287   1.057
 5890TIP3    H217677   4.857   1.216   1.191
 5891TIP3   OH217678   1.006   3.450   2.006
 5891TIP3    H117679   1.052   3.436   2.089
 5891TIP3    H217680   1.066   3.417   1.940
 5892TIP3   OH217681   2.980   4.128   2.455
 5892TIP3    H117682   2.905   4.112   2.399
 5892TIP3    H217683   2.978   4.057   2.519
 5893TIP3   OH217684   3.998   0.063   0.431
 5893TIP3    H117685   3.907   0.056   0.462
 5893TIP3    H217686   3.994   0.128   0.360
 5894TIP3   OH217687   3.007   4.412   2.715
 5894TIP3    H117688   3.094   4.442   2.687
 5894TIP3    H217689   3.006   4.424   2.810
 5895TIP3   OH217690   2.203   2.475   3.287
 5895TIP3    H117691   2.291   2.498   3.317
 5895TIP3    H217692   2.148   2.547   3.318
 5896TIP3   OH217693   0.182   3.809   2.878
 5896TIP3    H117694   0.186   3.780   2.787
 5896TIP3    H217695   0.154   3.900   2.873
 5897TIP3   OH217696   2.046   2.963   3.885
 5897TIP3    H117697   2.094   3.045   3.900
 5897TIP3    H217698   2.115   2.898   3.866
 5898TIP3   OH217699   0.654   1.419   4.499
 5898TIP3    H117700   0.675   1.379   4.583
 5898TIP3    H217701   0.712   1.495   4.493
 5899TIP3   OH217702   6.360   2.191   3.416
 5899TIP3    H117703   6.355   2.238   3.498
 5899TIP3    H217704   6.291   2.125   3.421
 5900TIP3   OH217705   2.951   4.002   1.656
 5900TIP3    H117706   2.882   3.980   1.593
 5900TIP3    H217707   2.912   3.982   1.742
 5901TIP3   OH217708   0.443   1.637   5.129
 5901TIP3    H117709   0.361   1.592   5.110
 5901TIP3    H217710   0.422   1.697   5.201
 5902TIP3   OH217711   5.529   4.740   2.442
 5902TIP3    H117712   5.613   4.786   2.442
 5902TIP3    H217713   5.485   4.771   2.363
 5903TIP3   OH217714   5.597   3.806   3.784
 5903TIP3    H117715   5.562   3.723   3.751
 5903TIP3    H217716   5.692   3.798   3.774
 5904TIP3   OH217717   3.828   2.270   3.723
 5904TIP3    H117718   3.806   2.246   3.813
 5904TIP3    H217719   3.749   2.311   3.689
 5905TIP3   OH217720   5.879   3.429   5.089
 5905TIP3    H117721   5.911   3.353   5.041
 5905TIP3    H217722   5.825   3.477   5.026
 5906TIP3   OH217723   4.587   0.538   2.925
 5906TIP3    H117724   4.616   0.448   2.942
 5906TIP3    H217725   4.551   0.567   3.008
 5907TIP3   OH217726   4.314   1.880   0.365
 5907TIP3    H117727   4.305   1.907   0.457
 5907TIP3    H217728   4.228   1.899   0.327
 5908TIP3   OH217729   3.348   0.621   0.209
 5908TIP3    H117730   3.364   0.715   0.218
 5908TIP3    H217731   3.261   0.608   0.247
 5909TIP3   OH217732   6.174   3.804   3.123
 5909TIP3    H117733   6.141   3.754   3.048
 5909TIP3    H217734   6.151   3.752   3.199
 5910TIP3   OH217735   6.080   1.470   2.234
 5910TIP3    H117736   6.146   1.455   2.166
 5910TIP3    H217737   6.111   1.547   2.281
 5911TIP3   OH217738   5.861   0.432   4.941
 5911TIP3    H117739   5.928   0.411   4.876
 5911TIP3    H217740   5.884   0.378   5.017
 5912TIP3   OH217741   2.640   1.574   1.786
 5912TIP3    H117742   2.550   1.544   1.800
 5912TIP3    H217743   2.665   1.534   1.703
 5913TIP3   OH217744   2.162   1.775   2.801
 5913TIP3    H117745   2.178   1.835   2.729
 5913TIP3    H217746   2.071   1.790   2.826
 5914TIP3   OH217747   5.688   5.283   5.174
 5914TIP3    H117748   5.608   5.286   5.121
 5914TIP3    H217749   5.707   5.375   5.193
 5915TIP3   OH217750   4.910   0.004   2.840
 5915TIP3    H117751   4.986   0.038   2.793
 5915TIP3    H217752   4.872  -0.060   2.781
 5916TIP3   OH217753   0.138   3.142   1.215
 5916TIP3    H117754   0.211   3.198   1.241
 5916TIP3    H217755   0.066   3.168   1.272
 5917TIP3   OH217756   1.472   3.607   0.116
 5917TIP3    H117757   1.441   3.529   0.070
 5917TIP3    H217758   1.409   3.675   0.093
 5918TIP3   OH217759   1.247   3.368   4.245
 5918TIP3    H117760   1.292   3.390   4.163
 5918TIP3    H217761   1.302   3.407   4.313
 5919TIP3   OH217762   2.523   3.179   1.197
 5919TIP3    H117763   2.500   3.258   1.246
 5919TIP3    H217764   2.439   3.139   1.175
 5920TIP3   OH217765   3.230   3.784   4.435
 5920TIP3    H117766   3.209   3.871   4.399
 5920TIP3    H217767   3.300   3.801   4.497
 5921TIP3   OH217768   0.269   3.091   2.337
 5921TIP3    H117769   0.205   3.099   2.408
 5921TIP3    H217770   0.354   3.105   2.379
 5922TIP3   OH217771   0.235   0.074   4.887
 5922TIP3    H117772   0.324   0.039   4.877
 5922TIP3    H217773   0.187   0.005   4.933
 5923TIP3   OH217774   3.458   2.767   2.860
 5923TIP3    H117775   3.470   2.733   2.772
 5923TIP3    H217776   3.422   2.855   2.848
 5924TIP3   OH217777   2.237   3.158   2.103
 5924TIP3    H117778   2.244   3.081   2.159
 5924TIP3    H217779   2.211   3.123   2.018
 5925TIP3   OH217780   2.470   5.216   1.012
 5925TIP3    H117781   2.406   5.145   1.024
 5925TIP3    H217782   2.448   5.279   1.080
 5926TIP3   OH217783   4.550   2.485   1.236
 5926TIP3    H117784   4.563   2.490   1.331
 5926TIP3    H217785   4.602   2.559   1.202
 5927TIP3   OH217786   3.922   1.265   3.624
 5927TIP3    H117787   3.928   1.352   3.584
 5927TIP3    H217788   3.835   1.264   3.665
 5928TIP3   OH217789   3.286   1.671   4.236
 5928TIP3    H117790   3.349   1.706   4.299
 5928TIP3    H217791   3.230   1.613   4.288
 5929TIP3   OH217792   4.644   5.084   0.617
 5929TIP3    H117793   4.726   5.124   0.649
 5929TIP3    H217794   4.581   5.101   0.687
 5930TIP3   OH217795   2.625   4.422   3.177
 5930TIP3    H117796   2.698   4.419   3.115
 5930TIP3    H217797   2.661   4.467   3.254
 5931TIP3   OH217798   6.169   0.094   1.657
 5931TIP3    H117799   6.134   0.181   1.676
 5931TIP3    H217800   6.224   0.106   1.580
 5932TIP3   OH217801   5.801   5.317   3.188
 5932TIP3    H117802   5.797   5.382   3.117
 5932TIP3    H217803   5.821   5.235   3.143
 5933TIP3   OH217804   2.582   0.255   1.967
 5933TIP3    H117805   2.587   0.160   1.967
 5933TIP3    H217806   2.489   0.274   1.968
 5934TIP3   OH217807   1.869   1.682   0.778
 5934TIP3    H117808   1.918   1.621   0.723
 5934TIP3    H217809   1.781   1.683   0.741
 5935TIP3   OH217810   3.290   3.616   2.500
 5935TIP3    H117811   3.336   3.533   2.516
 5935TIP3    H217812   3.335   3.653   2.424
 5936TIP3   OH217813   0.035   5.358   3.954
 5936TIP3    H117814   0.039   5.452   3.933
 5936TIP3    H217815   0.116   5.342   4.002
 5937TIP3   OH217816   5.627   1.564   2.783
 5937TIP3    H117817   5.639   1.469   2.789
 5937TIP3    H217818   5.603   1.580   2.692
 5938TIP3   OH217819   2.135   2.254   1.866
 5938TIP3    H117820   2.159   2.177   1.814
 5938TIP3    H217821   2.209   2.267   1.925
 5939TIP3   OH217822   3.398   1.157   0.181
 5939TIP3    H117823   3.394   1.105   0.101
 5939TIP3    H217824   3.461   1.226   0.161
 5940TIP3   OH217825   5.117   2.392   2.359
 5940TIP3    H117826   5.115   2.378   2.264
 5940TIP3    H217827   5.178   2.466   2.371
 5941TIP3   OH217828   4.621   2.110   1.741
 5941TIP3    H117829   4.624   2.111   1.645
 5941TIP3    H217830   4.596   2.021   1.764
 5942TIP3   OH217831   2.923   2.318   2.802
 5942TIP3    H117832   2.956   2.230   2.786
 5942TIP3    H217833   2.975   2.350   2.876
 5943TIP3   OH217834   2.944   0.194   1.771
 5943TIP3    H117835   3.008   0.193   1.843
 5943TIP3    H217836   2.892   0.273   1.786
 5944TIP3   OH217837   3.048   1.763   2.962
 5944TIP3    H117838   3.050   1.795   3.052
 5944TIP3    H217839   2.955   1.761   2.939
 5945TIP3   OH217840   1.370   5.844   1.862
 5945TIP3    H117841   1.408   5.894   1.934
 5945TIP3    H217842   1.391   5.753   1.882
 5946TIP3   OH217843   1.796   1.650   3.057
 5946TIP3    H117844   1.765   1.707   3.128
 5946TIP3    H217845   1.718   1.630   3.006
 5947TIP3   OH217846   1.606   0.836   4.284
 5947TIP3    H117847   1.543   0.889   4.332
 5947TIP3    H217848   1.674   0.899   4.256
 5948TIP3   OH217849   2.080   3.194   4.140
 5948TIP3    H117850   2.086   3.223   4.049
 5948TIP3    H217851   2.094   3.274   4.191
 5949TIP3   OH217852   6.200   2.666   4.666
 5949TIP3    H117853   6.245   2.708   4.740
 5949TIP3    H217854   6.270   2.649   4.603
 5950TIP3   OH217855   3.661   4.072   4.074
 5950TIP3    H117856   3.597   4.013   4.114
 5950TIP3    H217857   3.729   4.014   4.040
 5951TIP3   OH217858   2.104   5.836   4.403
 5951TIP3    H117859   2.057   5.918   4.419
 5951TIP3    H217860   2.124   5.803   4.491
 5952TIP3   OH217861   2.808   5.920   4.571
 5952TIP3    H117862   2.892   5.965   4.578
 5952TIP3    H217863   2.759   5.972   4.506
 5953TIP3   OH217864   2.276   2.791   3.842
 5953TIP3    H117865   2.313   2.758   3.924
 5953TIP3    H217866   2.349   2.790   3.781
 5954TIP3   OH217867   4.650   2.549   1.863
 5954TIP3    H117868   4.688   2.482   1.806
 5954TIP3    H217869   4.564   2.514   1.886
 5955TIP3   OH217870   6.345   1.084  -0.023
 5955TIP3    H117871   6.364   1.154   0.040
 5955TIP3    H217872   6.421   1.026  -0.017
 5956TIP3   OH217873   5.218   4.955   0.508
 5956TIP3    H117874   5.203   4.975   0.416
 5956TIP3    H217875   5.283   5.019   0.536
 5957TIP3   OH217876   3.777   2.086   3.393
 5957TIP3    H117877   3.766   2.005   3.442
 5957TIP3    H217878   3.712   2.081   3.324
 5958TIP3   OH217879   5.414   2.695   4.685
 5958TIP3    H117880   5.320   2.707   4.698
 5958TIP3    H217881   5.424   2.688   4.590
 5959TIP3   OH217882   2.710   5.308   3.539
 5959TIP3    H117883   2.770   5.273   3.606
 5959TIP3    H217884   2.715   5.403   3.550
 5960TIP3   OH217885   4.202   3.187   3.297
 5960TIP3    H117886   4.276   3.164   3.240
 5960TIP3    H217887   4.210   3.282   3.310
 5961TIP3   OH217888   2.911   1.646   1.770
 5961TIP3    H117889   2.819   1.629   1.788
 5961TIP3    H217890   2.910   1.723   1.713
 5962TIP3   OH217891   2.108   2.485   0.746
 5962TIP3    H117892   2.183   2.438   0.782
 5962TIP3    H217893   2.147   2.562   0.704
 5963TIP3   OH217894   6.185   0.979   1.907
 5963TIP3    H117895   6.145   1.041   1.845
 5963TIP3    H217896   6.115   0.917   1.928
 5964TIP3   OH217897   2.851   4.281   4.719
 5964TIP3    H117898   2.859   4.226   4.642
 5964TIP3    H217899   2.934   4.328   4.725
 5965TIP3   OH217900   4.250   5.760   0.021
 5965TIP3    H117901   4.272   5.845  -0.017
 5965TIP3    H217902   4.324   5.704  -0.001
 5966TIP3   OH217903   5.442   5.181   3.527
 5966TIP3    H117904   5.355   5.190   3.487
 5966TIP3    H217905   5.496   5.245   3.481
 5967TIP3   OH217906   3.225   5.626   0.976
 5967TIP3    H117907   3.142   5.622   0.930
 5967TIP3    H217908   3.236   5.718   0.999
 5968TIP3   OH217909   4.823   4.377   3.482
 5968TIP3    H117910   4.905   4.406   3.441
 5968TIP3    H217911   4.809   4.439   3.553
 5969TIP3   OH217912   1.604   2.534   0.672
 5969TIP3    H117913   1.625   2.451   0.716
 5969TIP3    H217914   1.689   2.567   0.642
 5970TIP3   OH217915   1.029   1.231   1.467
 5970TIP3    H117916   1.078   1.308   1.437
 5970TIP3    H217917   1.027   1.173   1.391
 5971TIP3   OH217918   2.285   4.441   3.700
 5971TIP3    H117919   2.288   4.377   3.771
 5971TIP3    H217920   2.212   4.413   3.645
 5972TIP3   OH217921   4.611   0.651   1.457
 5972TIP3    H117922   4.538   0.702   1.421
 5972TIP3    H217923   4.679   0.716   1.477
 5973TIP3   OH217924   0.167   2.209   4.465
 5973TIP3    H117925   0.154   2.303   4.476
 5973TIP3    H217926   0.255   2.193   4.499
 5974TIP3   OH217927   2.093   3.544   3.568
 5974TIP3    H117928   2.147   3.577   3.496
 5974TIP3    H217929   2.146   3.558   3.646
 5975TIP3   OH217930   5.130   3.681   0.543
 5975TIP3    H117931   5.219   3.678   0.509
 5975TIP3    H217932   5.086   3.607   0.500
 5976TIP3   OH217933   4.601   2.961   2.188
 5976TIP3    H117934   4.651   2.997   2.115
 5976TIP3    H217935   4.566   2.878   2.156
 5977TIP3   OH217936   5.871   2.749   3.967
 5977TIP3    H117937   5.884   2.812   3.896
 5977TIP3    H217938   5.886   2.664   3.926
 5978TIP3   OH217939   5.635   5.701   2.788
 5978TIP3    H117940   5.567   5.657   2.737
 5978TIP3    H217941   5.712   5.699   2.731
 5979TIP3   OH217942   0.922   4.190   1.237
 5979TIP3    H117943   0.933   4.283   1.220
 5979TIP3    H217944   0.912   4.183   1.332
 5980TIP3   OH217945   0.724   2.469   4.332
 5980TIP3    H117946   0.674   2.547   4.357
 5980TIP3    H217947   0.706   2.405   4.401
 5981TIP3   OH217948   5.647   5.095   0.572
 5981TIP3    H117949   5.563   5.128   0.540
 5981TIP3    H217950   5.625   5.020   0.627
 5982TIP3   OH217951   3.331   2.330   5.054
 5982TIP3    H117952   3.400   2.382   5.095
 5982TIP3    H217953   3.366   2.307   4.968
 5983TIP3   OH217954   0.442   3.767   2.965
 5983TIP3    H117955   0.440   3.777   3.060
 5983TIP3    H217956   0.351   3.775   2.938
 5984TIP3   OH217957   3.205   3.850   4.825
 5984TIP3    H117958   3.260   3.772   4.834
 5984TIP3    H217959   3.266   3.920   4.799
 5985TIP3   OH217960   0.251   3.237   2.047
 5985TIP3    H117961   0.236   3.149   2.082
 5985TIP3    H217962   0.339   3.232   2.010
 5986TIP3   OH217963   2.883   0.455   4.125
 5986TIP3    H117964   2.860   0.435   4.034
 5986TIP3    H217965   2.815   0.411   4.177
 5987TIP3   OH217966   4.465   1.499   2.874
 5987TIP3    H117967   4.507   1.578   2.839
 5987TIP3    H217968   4.502   1.427   2.823
 5988TIP3   OH217969   3.073   3.394   1.058
 5988TIP3    H117970   3.034   3.379   1.144
 5988TIP3    H217971   3.133   3.321   1.046
 5989TIP3   OH217972   6.220   0.198   4.603
 5989TIP3    H117973   6.220   0.152   4.687
 5989TIP3    H217974   6.301   0.170   4.560
 5990TIP3   OH217975   3.182   1.993   0.781
 5990TIP3    H117976   3.211   2.064   0.723
 5990TIP3    H217977   3.232   1.917   0.753
 5991TIP3   OH217978   2.058   0.463   2.845
 5991TIP3    H117979   2.046   0.476   2.751
 5991TIP3    H217980   1.978   0.497   2.885
 5992TIP3   OH217981   6.346   4.980   2.150
 5992TIP3    H117982   6.261   4.940   2.131
 5992TIP3    H217983   6.360   4.964   2.243
 5993TIP3   OH217984   1.310   4.325   0.360
 5993TIP3    H117985   1.229   4.369   0.336
 5993TIP3    H217986   1.282   4.238   0.389
 5994TIP3   OH217987   2.530   1.565   3.037
 5994TIP3    H117988   2.466   1.587   3.106
 5994TIP3    H217989   2.615   1.574   3.080
 5995TIP3   OH217990   0.314   5.788   4.551
 5995TIP3    H117991   0.368   5.830   4.618
 5995TIP3    H217992   0.250   5.855   4.528
 5996TIP3   OH217993   4.997   1.571   1.662
 5996TIP3    H117994   5.076   1.615   1.632
 5996TIP3    H217995   4.998   1.486   1.618
 5997TIP3   OH217996   3.142   0.135   5.149
 5997TIP3    H117997   3.049   0.115   5.144
 5997TIP3    H217998   3.176   0.116   5.062
 5998TIP3   OH217999   0.780   2.655   4.044
 5998TIP3    H118000   0.874   2.667   4.029
 5998TIP3    H218001   0.742   2.742   4.031
 5999TIP3   OH218002   2.203   0.608   5.012
 5999TIP3    H118003   2.249   0.600   4.928
 5999TIP3    H218004   2.126   0.553   5.002
 6000TIP3   OH218005   1.611   0.343   4.215
 6000TIP3    H118006   1.677   0.355   4.283
 6000TIP3    H218007   1.560   0.424   4.218
 6001TIP3   OH218008   3.804   1.175   0.584
 6001TIP3    H118009   3.824   1.097   0.531
 6001TIP3    H218010   3.791   1.142   0.672
 6002TIP3   OH218011   3.834   1.264   4.279
 6002TIP3    H118012   3.747   1.268   4.318
 6002TIP3    H218013   3.821   1.294   4.189
 6003TIP3   OH218014   5.670   0.301   1.115
 6003TIP3    H118015   5.604   0.318   1.182
 6003TIP3    H218016   5.666   0.378   1.058
 6004TIP3   OH218017   2.333   2.449   0.420
 6004TIP3    H118018   2.418   2.450   0.463
 6004TIP3    H218019   2.322   2.359   0.389
 6005TIP3   OH218020   5.420   0.852   1.503
 6005TIP3    H118021   5.418   0.901   1.585
 6005TIP3    H218022   5.485   0.897   1.450
 6006TIP3   OH218023   1.079   3.745   5.218
 6006TIP3    H118024   1.164   3.721   5.182
 6006TIP3    H218025   1.016   3.720   5.150
 6007TIP3   OH218026   2.395   2.468   2.712
 6007TIP3    H118027   2.457   2.497   2.645
 6007TIP3    H218028   2.399   2.535   2.780
 6008TIP3   OH218029   2.231   4.280   0.694
 6008TIP3    H118030   2.252   4.213   0.759
 6008TIP3    H218031   2.139   4.264   0.672
 6009TIP3   OH218032   6.276   0.915   0.267
 6009TIP3    H118033   6.212   0.847   0.290
 6009TIP3    H218034   6.262   0.931   0.174
 6010TIP3   OH218035   6.210   1.244   2.708
 6010TIP3    H118036   6.292   1.259   2.660
 6010TIP3    H218037   6.186   1.331   2.741
 6011TIP3   OH218038   2.983   0.452   2.462
 6011TIP3    H118039   3.058   0.464   2.519
 6011TIP3    H218040   3.020   0.430   2.376
 6012TIP3   OH218041   4.569   2.863   2.655
 6012TIP3    H118042   4.663   2.876   2.638
 6012TIP3    H218043   4.525   2.917   2.589
 6013TIP3   OH218044   2.418   2.985   3.048
 6013TIP3    H118045   2.361   3.057   3.022
 6013TIP3    H218046   2.497   2.996   2.994
 6014TIP3   OH218047   3.704   5.063   1.306
 6014TIP3    H118048   3.618   5.103   1.295
 6014TIP3    H218049   3.744   5.112   1.378
 6015TIP3   OH218050   5.293   0.749   1.984
 6015TIP3    H118051   5.260   0.768   2.071
 6015TIP3    H218052   5.342   0.667   1.994
 6016TIP3   OH218053   4.526   0.128   3.150
 6016TIP3    H118054   4.488   0.118   3.237
 6016TIP3    H218055   4.610   0.171   3.165
 6017TIP3   OH218056   0.549   0.535   5.074
 6017TIP3    H118057   0.619   0.591   5.040
 6017TIP3    H218058   0.583   0.501   5.157
 6018TIP3   OH218059   2.260   4.595   1.079
 6018TIP3    H118060   2.169   4.598   1.106
 6018TIP3    H218061   2.257   4.584   0.984
 6019TIP3   OH218062   3.684   1.614   4.399
 6019TIP3    H118063   3.731   1.618   4.482
 6019TIP3    H218064   3.596   1.585   4.423
 6020TIP3   OH218065   0.422   1.964   3.206
 6020TIP3    H118066   0.391   1.923   3.125
 6020TIP3    H218067   0.343   1.980   3.257
 6021TIP3   OH218068   3.642   5.537   2.810
 6021TIP3    H118069   3.671   5.618   2.852
 6021TIP3    H218070   3.673   5.467   2.866
 6022TIP3   OH218071   3.179   4.800   4.868
 6022TIP3    H118072   3.230   4.822   4.790
 6022TIP3    H218073   3.244   4.790   4.937
 6023TIP3   OH218074   2.815   4.256   0.129
 6023TIP3    H118075   2.764   4.304   0.064
 6023TIP3    H218076   2.899   4.302   0.131
 6024TIP3   OH218077   0.185   0.872   4.743
 6024TIP3    H118078   0.111   0.857   4.685
 6024TIP3    H218079   0.172   0.812   4.816
 6025TIP3   OH218080   1.579   0.729   0.372
 6025TIP3    H118081   1.504   0.672   0.352
 6025TIP3    H218082   1.584   0.729   0.467
 6026TIP3   OH218083   2.378   2.202   5.011
 6026TIP3    H118084   2.303   2.144   5.017
 6026TIP3    H218085   2.369   2.261   5.086
 6027TIP3   OH218086   3.709   3.869   3.509
 6027TIP3    H118087   3.771   3.929   3.551
 6027TIP3    H218088   3.746   3.782   3.524
 6028TIP3   OH218089   6.247   5.196   2.396
 6028TIP3    H118090   6.177   5.220   2.456
 6028TIP3    H218091   6.321   5.251   2.422
 6029TIP3   OH218092   5.321   3.196   0.471
 6029TIP3    H118093   5.407   3.237   0.480
 6029TIP3    H218094   5.333   3.127   0.405
 6030TIP3   OH218095   6.034   1.705   0.600
 6030TIP3    H118096   6.086   1.783   0.583
 6030TIP3    H218097   5.985   1.690   0.519
 6031TIP3   OH218098   6.287   3.705   4.435
 6031TIP3    H118099   6.376   3.735   4.418
 6031TIP3    H218100   6.287   3.614   4.406
 6032TIP3   OH218101   4.081   0.950   1.173
 6032TIP3    H118102   3.986   0.946   1.183
 6032TIP3    H218103   4.114   0.944   1.263
 6033TIP3   OH218104   5.163   0.589   2.843
 6033TIP3    H118105   5.135   0.501   2.869
 6033TIP3    H218106   5.116   0.606   2.761
 6034TIP3   OH218107   3.047   4.452   3.013
 6034TIP3    H118108   3.137   4.480   2.993
 6034TIP3    H218109   3.031   4.484   3.101
 6035TIP3   OH218110   5.200   4.111   0.409
 6035TIP3    H118111   5.270   4.173   0.432
 6035TIP3    H218112   5.151   4.154   0.339
 6036TIP3   OH218113   3.576   5.344   4.402
 6036TIP3    H118114   3.590   5.428   4.358
 6036TIP3    H218115   3.484   5.322   4.382
 6037TIP3   OH218116   1.476   4.558   3.575
 6037TIP3    H118117   1.557   4.609   3.568
 6037TIP3    H218118   1.427   4.581   3.495
 6038TIP3   OH218119   2.248   5.622   4.861
 6038TIP3    H118120   2.321   5.683   4.868
 6038TIP3    H218121   2.178   5.673   4.820
 6039TIP3   OH218122   4.958   1.222   3.711
 6039TIP3    H118123   4.999   1.300   3.747
 6039TIP3    H218124   5.028   1.178   3.663
 6040TIP3   OH218125   5.229   2.280   2.102
 6040TIP3    H118126   5.183   2.198   2.119
 6040TIP3    H218127   5.206   2.302   2.012
 6041TIP3   OH218128   3.076   4.977   0.144
 6041TIP3    H118129   3.156   4.996   0.094
 6041TIP3    H218130   3.105   4.920   0.215
 6042TIP3   OH218131   5.112   2.400   3.546
 6042TIP3    H118132   5.186   2.352   3.583
 6042TIP3    H218133   5.040   2.337   3.546
 6043TIP3   OH218134   5.291   4.118   4.428
 6043TIP3    H118135   5.342   4.050   4.472
 6043TIP3    H218136   5.341   4.139   4.350
 6044TIP3   OH218137   0.682   1.860   2.296
 6044TIP3    H118138   0.698   1.794   2.228
 6044TIP3    H218139   0.615   1.820   2.352
 6045TIP3   OH218140   2.586   2.146   0.894
 6045TIP3    H118141   2.511   2.169   0.949
 6045TIP3    H218142   2.659   2.137   0.956
 6046TIP3   OH218143   1.658   5.198   2.540
 6046TIP3    H118144   1.713   5.266   2.502
 6046TIP3    H218145   1.568   5.231   2.530
 6047TIP3   OH218146   2.340   3.565   4.685
 6047TIP3    H118147   2.354   3.571   4.780
 6047TIP3    H218148   2.418   3.519   4.653
 6048TIP3   OH218149   2.170   4.518   0.830
 6048TIP3    H118150   2.201   4.435   0.794
 6048TIP3    H218151   2.144   4.569   0.753
 6049TIP3   OH218152   2.866   0.114   0.290
 6049TIP3    H118153   2.900   0.079   0.373
 6049TIP3    H218154   2.816   0.042   0.252
 6050TIP3   OH218155   1.591   3.360   2.554
 6050TIP3    H118156   1.674   3.361   2.507
 6050TIP3    H218157   1.533   3.307   2.499
 6051TIP3   OH218158   5.082   2.483   3.284
 6051TIP3    H118159   5.066   2.480   3.378
 6051TIP3    H218160   5.162   2.432   3.272
 6052TIP3   OH218161   1.597   2.620   4.495
 6052TIP3    H118162   1.528   2.646   4.555
 6052TIP3    H218163   1.640   2.702   4.470
 6053TIP3   OH218164   2.193   1.300   0.538
 6053TIP3    H118165   2.099   1.286   0.526
 6053TIP3    H218166   2.229   1.301   0.450
 6054TIP3   OH218167   3.947   0.878   1.711
 6054TIP3    H118168   3.868   0.853   1.759
 6054TIP3    H218169   3.935   0.841   1.624
 6055TIP3   OH218170   1.494   3.420   0.652
 6055TIP3    H118171   1.517   3.487   0.717
 6055TIP3    H218172   1.564   3.355   0.659
 6056TIP3   OH218173   6.299   3.803   2.630
 6056TIP3    H118174   6.314   3.787   2.537
 6056TIP3    H218175   6.323   3.722   2.673
 6057TIP3   OH218176   4.725   3.968   2.229
 6057TIP3    H118177   4.651   3.957   2.289
 6057TIP3    H218178   4.795   4.005   2.284
 6058TIP3   OH218179   1.931   5.761   0.441
 6058TIP3    H118180   1.920   5.756   0.536
 6058TIP3    H218181   1.927   5.855   0.421
 6059TIP3   OH218182   2.115   3.475   4.347
 6059TIP3    H118183   2.133   3.516   4.431
 6059TIP3    H218184   2.020   3.482   4.336
 6060TIP3   OH218185   0.918   3.333   4.979
 6060TIP3    H118186   0.938   3.371   4.893
 6060TIP3    H218187   0.948   3.242   4.972
 6061TIP3   OH218188   5.230   0.786   2.258
 6061TIP3    H118189   5.135   0.787   2.273
 6061TIP3    H218190   5.266   0.760   2.343
 6062TIP3   OH218191   4.037   0.608   4.035
 6062TIP3    H118192   3.957   0.560   4.017
 6062TIP3    H218193   4.016   0.699   4.013
 6063TIP3   OH218194   3.391   0.677   2.153
 6063TIP3    H118195   3.390   0.600   2.096
 6063TIP3    H218196   3.299   0.706   2.155
 6064TIP3   OH218197   4.018   2.818   2.742
 6064TIP3    H118198   4.023   2.788   2.833
 6064TIP3    H218199   4.002   2.738   2.692
 6065TIP3   OH218200   1.627   1.643   0.576
 6065TIP3    H118201   1.600   1.707   0.642
 6065TIP3    H218202   1.549   1.630   0.522
 6066TIP3   OH218203   3.013   2.544   1.606
 6066TIP3    H118204   2.949   2.483   1.642
 6066TIP3    H218205   3.038   2.600   1.679
 6067TIP3   OH218206   4.611   4.614   1.724
 6067TIP3    H118207   4.545   4.663   1.773
 6067TIP3    H218208   4.667   4.682   1.686
 6068TIP3   OH218209   3.161   4.039   4.330
 6068TIP3    H118210   3.145   4.117   4.383
 6068TIP3    H218211   3.076   4.020   4.289
 6069TIP3   OH218212   3.286   3.199   5.010
 6069TIP3    H118213   3.336   3.257   5.067
 6069TIP3    H218214   3.345   3.182   4.936
 6070TIP3   OH218215   4.095   4.003   1.337
 6070TIP3    H118216   4.170   4.027   1.392
 6070TIP3    H218217   4.134   3.976   1.254
 6071TIP3   OH218218   4.294   2.777   1.786
 6071TIP3    H118219   4.200   2.781   1.769
 6071TIP3    H218220   4.309   2.840   1.856
 6072TIP3   OH218221   0.898   4.920   4.825
 6072TIP3    H118222   0.820   4.918   4.770
 6072TIP3    H218223   0.911   5.013   4.845
 6073TIP3   OH218224   2.844   3.707   3.011
 6073TIP3    H118225   2.874   3.618   3.029
 6073TIP3    H218226   2.800   3.734   3.091
 6074TIP3   OH218227   2.750   3.772   0.354
 6074TIP3    H118228   2.775   3.864   0.352
 6074TIP3    H218229   2.683   3.763   0.286
 6075TIP3   OH218230   1.060   0.987   0.821
 6075TIP3    H118231   0.978   0.979   0.869
 6075TIP3    H218232   1.108   0.907   0.844
 6076TIP3   OH218233   1.146   2.290   0.621
 6076TIP3    H118234   1.145   2.307   0.715
 6076TIP3    H218235   1.111   2.202   0.612
 6077TIP3   OH218236   0.704   0.951   0.780
 6077TIP3    H118237   0.724   0.894   0.854
 6077TIP3    H218238   0.612   0.932   0.760
 6078TIP3   OH218239   2.825   0.439   0.655
 6078TIP3    H118240   2.758   0.501   0.624
 6078TIP3    H218241   2.877   0.420   0.577
 6079TIP3   OH218242   0.157   5.566   1.754
 6079TIP3    H118243   0.193   5.482   1.726
 6079TIP3    H218244   0.184   5.574   1.845
 6080TIP3   OH218245   1.760   2.481   1.855
 6080TIP3    H118246   1.692   2.534   1.897
 6080TIP3    H218247   1.799   2.540   1.791
 6081TIP3   OH218248   3.279   1.647   2.051
 6081TIP3    H118249   3.248   1.699   1.977
 6081TIP3    H218250   3.211   1.581   2.064
 6082TIP3   OH218251   1.314   1.070   3.022
 6082TIP3    H118252   1.275   1.095   2.938
 6082TIP3    H218253   1.351   1.152   3.057
 6083TIP3   OH218254   0.716   2.787   3.019
 6083TIP3    H118255   0.671   2.844   2.957
 6083TIP3    H218256   0.650   2.769   3.087
 6084TIP3   OH218257   4.692   4.760   0.286
 6084TIP3    H118258   4.614   4.708   0.310
 6084TIP3    H218259   4.704   4.742   0.193
 6085TIP3   OH218260   2.920   4.574   0.686
 6085TIP3    H118261   2.855   4.544   0.622
 6085TIP3    H218262   2.882   4.550   0.771
 6086TIP3   OH218263   1.182   2.689   5.034
 6086TIP3    H118264   1.253   2.726   5.087
 6086TIP3    H218265   1.204   2.714   4.944
 6087TIP3   OH218266   4.951   1.248   0.574
 6087TIP3    H118267   4.936   1.219   0.484
 6087TIP3    H218268   4.924   1.340   0.574
 6088TIP3   OH218269   1.465   1.098   2.219
 6088TIP3    H118270   1.556   1.083   2.196
 6088TIP3    H218271   1.426   1.138   2.141
 6089TIP3   OH218272   0.793   0.676   5.144
 6089TIP3    H118273   0.824   0.621   5.072
 6089TIP3    H218274   0.872   0.693   5.196
 6090TIP3   OH218275   2.842   4.796   1.520
 6090TIP3    H118276   2.872   4.759   1.437
 6090TIP3    H218277   2.824   4.888   1.500
 6091TIP3   OH218278   1.032   3.796   1.505
 6091TIP3    H118279   0.986   3.836   1.579
 6091TIP3    H218280   0.988   3.832   1.428
 6092TIP3   OH218281   0.335   3.263   0.506
 6092TIP3    H118282   0.271   3.299   0.568
 6092TIP3    H218283   0.406   3.327   0.504
 6093TIP3   OH218284   1.846   0.941   0.718
 6093TIP3    H118285   1.831   0.849   0.697
 6093TIP3    H218286   1.766   0.985   0.690
 6094TIP3   OH218287   5.302   1.398   2.065
 6094TIP3    H118288   5.353   1.477   2.083
 6094TIP3    H218289   5.285   1.360   2.152
 6095TIP3   OH218290   1.025   3.789   4.042
 6095TIP3    H118291   1.002   3.871   3.999
 6095TIP3    H218292   1.107   3.807   4.088
 6096TIP3   OH218293   4.550   2.699   2.332
 6096TIP3    H118294   4.642   2.715   2.354
 6096TIP3    H218295   4.521   2.780   2.290
 6097TIP3   OH218296   5.061   0.818   3.966
 6097TIP3    H118297   5.006   0.875   3.912
 6097TIP3    H218298   5.035   0.729   3.942
 6098TIP3   OH218299   0.674   3.409   2.230
 6098TIP3    H118300   0.731   3.403   2.308
 6098TIP3    H218301   0.615   3.481   2.249
 6099TIP3   OH218302   1.107   2.455   4.104
 6099TIP3    H118303   1.046   2.389   4.072
 6099TIP3    H218304   1.132   2.504   4.025
 6100TIP3   OH218305   4.921   1.274   1.800
 6100TIP3    H118306   4.838   1.306   1.765
 6100TIP3    H218307   4.980   1.348   1.793
 6101TIP3   OH218308   0.585   3.054   4.576
 6101TIP3    H118309   0.514   3.092   4.524
 6101TIP3    H218310   0.665   3.080   4.530
 6102TIP3   OH218311   3.697   5.237   2.180
 6102TIP3    H118312   3.762   5.298   2.216
 6102TIP3    H218313   3.734   5.151   2.196
 6103TIP3   OH218314   2.719   2.552   3.702
 6103TIP3    H118315   2.627   2.539   3.725
 6103TIP3    H218316   2.759   2.589   3.781
 6104TIP3   OH218317   4.427   2.633   3.720
 6104TIP3    H118318   4.405   2.644   3.812
 6104TIP3    H218319   4.419   2.721   3.683
 6105TIP3   OH218320   5.051   0.672   3.574
 6105TIP3    H118321   4.965   0.668   3.615
 6105TIP3    H218322   5.042   0.737   3.504
 6106TIP3   OH218323   0.335   2.817   1.907
 6106TIP3    H118324   0.305   2.728   1.889
 6106TIP3    H218325   0.424   2.819   1.871
 6107TIP3   OH218326   4.800   0.210   3.188
 6107TIP3    H118327   4.792   0.119   3.219
 6107TIP3    H218328   4.808   0.262   3.268
 6108TIP3   OH218329   1.183   0.389   0.172
 6108TIP3    H118330   1.101   0.392   0.122
 6108TIP3    H218331   1.156   0.361   0.260
 6109TIP3   OH218332   1.567   5.627   0.217
 6109TIP3    H118333   1.638   5.685   0.188
 6109TIP3    H218334   1.601   5.587   0.297
 6110TIP3   OH218335   5.904   1.962   1.082
 6110TIP3    H118336   5.926   1.918   1.163
 6110TIP3    H218337   5.981   1.952   1.027
 6111TIP3   OH218338   2.171   3.011   1.863
 6111TIP3    H118339   2.112   2.981   1.795
 6111TIP3    H218340   2.227   2.935   1.882
 6112TIP3   OH218341   0.193   4.053   0.083
 6112TIP3    H118342   0.100   4.047   0.062
 6112TIP3    H218343   0.225   4.127   0.030
 6113TIP3   OH218344   5.235   5.829   2.152
 6113TIP3    H118345   5.312   5.786   2.190
 6113TIP3    H218346   5.271   5.895   2.093
 6114TIP3   OH218347   0.559   1.480   3.601
 6114TIP3    H118348   0.470   1.458   3.627
 6114TIP3    H218349   0.550   1.524   3.517
 6115TIP3   OH218350   0.259   0.198   2.574
 6115TIP3    H118351   0.351   0.224   2.564
 6115TIP3    H218352   0.219   0.220   2.490
 6116TIP3   OH218353   3.230   3.745   5.203
 6116TIP3    H118354   3.240   3.722   5.110
 6116TIP3    H218355   3.313   3.786   5.226
 6117TIP3   OH218356   1.745   3.254   1.034
 6117TIP3    H118357   1.721   3.217   0.949
 6117TIP3    H218358   1.813   3.196   1.067
 6118TIP3   OH218359   4.024   5.198   5.017
 6118TIP3    H118360   4.010   5.104   5.010
 6118TIP3    H218361   4.033   5.214   5.111
 6119TIP3   OH218362   4.618   1.106   4.914
 6119TIP3    H118363   4.583   1.157   4.986
 6119TIP3    H218364   4.658   1.029   4.955
 6120TIP3   OH218365   2.604   4.625   4.458
 6120TIP3    H118366   2.598   4.708   4.409
 6120TIP3    H218367   2.653   4.567   4.400
 6121TIP3   OH218368   3.319   1.861   1.626
 6121TIP3    H118369   3.401   1.909   1.619
 6121TIP3    H218370   3.291   1.848   1.535
 6122TIP3   OH218371   4.931   5.219   4.971
 6122TIP3    H118372   4.992   5.151   4.945
 6122TIP3    H218373   4.940   5.287   4.904
 6123TIP3   OH218374   1.523   0.852   1.973
 6123TIP3    H118375   1.615   0.865   1.994
 6123TIP3    H218376   1.520   0.768   1.928
 6124TIP3   OH218377   4.443   5.906   2.673
 6124TIP3    H118378   4.367   5.960   2.655
 6124TIP3    H218379   4.508   5.966   2.709
 6125TIP3   OH218380   2.042   5.108   0.381
 6125TIP3    H118381   2.091   5.189   0.398
 6125TIP3    H218382   2.080   5.044   0.441
 6126TIP3   OH218383   6.106   2.576   4.315
 6126TIP3    H118384   6.037   2.643   4.313
 6126TIP3    H218385   6.102   2.535   4.229
 6127TIP3   OH218386   2.899   5.710   2.454
 6127TIP3    H118387   2.983   5.729   2.412
 6127TIP3    H218388   2.913   5.726   2.547
 6128TIP3   OH218389   0.610   3.531   5.076
 6128TIP3    H118390   0.527   3.486   5.092
 6128TIP3    H218391   0.593   3.586   4.999
 6129TIP3   OH218392   5.890   4.059   4.570
 6129TIP3    H118393   5.806   4.066   4.615
 6129TIP3    H218394   5.915   4.149   4.549
 6130TIP3   OH218395   1.178   0.058   4.985
 6130TIP3    H118396   1.129   0.102   4.916
 6130TIP3    H218397   1.151   0.101   5.066
 6131TIP3   OH218398   0.120   2.210   2.689
 6131TIP3    H118399   0.118   2.301   2.659
 6131TIP3    H218400   0.099   2.214   2.782
 6132TIP3   OH218401   0.180   1.161   3.087
 6132TIP3    H118402   0.275   1.161   3.074
 6132TIP3    H218403   0.169   1.167   3.182
 6133TIP3   OH218404   3.030   4.277   5.155
 6133TIP3    H118405   3.094   4.331   5.111
 6133TIP3    H218406   2.979   4.238   5.084
 6134TIP3   OH218407   5.757   2.720   4.562
 6134TIP3    H118408   5.724   2.806   4.536
 6134TIP3    H218409   5.743   2.717   4.657
 6135TIP3   OH218410   2.016   5.090   0.113
 6135TIP3    H118411   2.094   5.037   0.095
 6135TIP3    H218412   2.004   5.082   0.207
 6136TIP3   OH218413   3.102   5.977   3.919
 6136TIP3    H118414   3.011   5.960   3.892
 6136TIP3    H218415   3.137   6.033   3.850
 6137TIP3   OH218416   3.128   0.360   0.558
 6137TIP3    H118417   3.205   0.400   0.598
 6137TIP3    H218418   3.100   0.424   0.492
 6138TIP3   OH218419   2.372   5.267   0.771
 6138TIP3    H118420   2.399   5.241   0.859
 6138TIP3    H218421   2.296   5.212   0.752
 6139TIP3   OH218422   6.333   0.213   3.618
 6139TIP3    H118423   6.252   0.224   3.568
 6139TIP3    H218424   6.314   0.251   3.704
 6140TIP3   OH218425   4.504   2.295   3.801
 6140TIP3    H118426   4.419   2.320   3.839
 6140TIP3    H218427   4.563   2.287   3.876
 6141TIP3   OH218428   5.001   0.448   3.175
 6141TIP3    H118429   5.017   0.365   3.130
 6141TIP3    H218430   5.040   0.436   3.262
 6142TIP3   OH218431   5.573   5.279   2.137
 6142TIP3    H118432   5.623   5.357   2.159
 6142TIP3    H218433   5.585   5.268   2.042
 6143TIP3   OH218434   0.341   2.806   4.834
 6143TIP3    H118435   0.333   2.889   4.880
 6143TIP3    H218436   0.300   2.742   4.893
 6144TIP3   OH218437   5.435   1.274   3.023
 6144TIP3    H118438   5.414   1.229   2.941
 6144TIP3    H218439   5.352   1.315   3.049
 6145TIP3   OH218440   2.210   2.204   3.380
 6145TIP3    H118441   2.163   2.123   3.359
 6145TIP3    H218442   2.164   2.272   3.331
 6146TIP3   OH218443   0.796   4.758   5.081
 6146TIP3    H118444   0.751   4.751   4.998
 6146TIP3    H218445   0.799   4.852   5.099
 6147TIP3   OH218446   5.280   2.239   4.853
 6147TIP3    H118447   5.263   2.251   4.946
 6147TIP3    H218448   5.369   2.270   4.840
 6148TIP3   OH218449   4.445   4.697   1.198
 6148TIP3    H118450   4.469   4.716   1.289
 6148TIP3    H218451   4.358   4.736   1.187
 6149TIP3   OH218452   5.579   5.591   4.944
 6149TIP3    H118453   5.544   5.615   5.030
 6149TIP3    H218454   5.661   5.546   4.964
 6150TIP3   OH218455   0.008   4.966   2.409
 6150TIP3    H118456   0.075   5.005   2.465
 6150TIP3    H218457  -0.059   5.034   2.400
 6151TIP3   OH218458   1.534   3.018   0.988
 6151TIP3    H118459   1.587   2.949   0.948
 6151TIP3    H218460   1.508   2.981   1.073
 6152TIP3   OH218461   2.557   1.150   4.726
 6152TIP3    H118462   2.495   1.179   4.659
 6152TIP3    H218463   2.641   1.142   4.679
 6153TIP3   OH218464   3.930   3.139   0.938
 6153TIP3    H118465   3.860   3.193   0.975
 6153TIP3    H218466   3.990   3.124   1.011
 6154TIP3   OH218467   1.985   2.434   1.431
 6154TIP3    H118468   2.010   2.467   1.344
 6154TIP3    H218469   2.068   2.410   1.472
 6155TIP3   OH218470   4.296   2.566   2.576
 6155TIP3    H118471   4.390   2.559   2.596
 6155TIP3    H218472   4.293   2.623   2.499
 6156TIP3   OH218473   2.079   0.305   2.005
 6156TIP3    H118474   2.076   0.211   1.987
 6156TIP3    H218475   1.988   0.333   1.997
 6157TIP3   OH218476   4.338   3.449   3.289
 6157TIP3    H118477   4.427   3.414   3.279
 6157TIP3    H218478   4.330   3.514   3.218
 6158TIP3   OH218479   2.483   0.341   0.827
 6158TIP3    H118480   2.563   0.288   0.836
 6158TIP3    H218481   2.482   0.396   0.906
 6159TIP3   OH218482   6.018   0.747   4.425
 6159TIP3    H118483   6.035   0.829   4.470
 6159TIP3    H218484   6.099   0.697   4.435
 6160TIP3   OH218485   2.876   1.184   0.236
 6160TIP3    H118486   2.948   1.246   0.243
 6160TIP3    H218487   2.898   1.130   0.160
 6161TIP3   OH218488   4.382   1.455   3.215
 6161TIP3    H118489   4.351   1.382   3.270
 6161TIP3    H218490   4.302   1.495   3.182
 6162TIP3   OH218491   0.749   1.396   0.193
 6162TIP3    H118492   0.681   1.342   0.232
 6162TIP3    H218493   0.765   1.358   0.107
 6163TIP3   OH218494   1.198   1.669   2.078
 6163TIP3    H118495   1.142   1.656   2.001
 6163TIP3    H218496   1.159   1.614   2.146
 6164TIP3   OH218497   3.553   0.081   3.703
 6164TIP3    H118498   3.619   0.131   3.654
 6164TIP3    H218499   3.546  -0.002   3.656
 6165TIP3   OH218500   3.803   0.932   5.016
 6165TIP3    H118501   3.756   0.960   4.937
 6165TIP3    H218502   3.817   0.838   5.005
 6166TIP3   OH218503   2.350   4.755   0.771
 6166TIP3    H118504   2.282   4.731   0.834
 6166TIP3    H218505   2.305   4.808   0.706
 6167TIP3   OH218506   1.199   2.975   0.555
 6167TIP3    H118507   1.104   2.963   0.559
 6167TIP3    H218508   1.213   3.024   0.473
 6168TIP3   OH218509   0.817   0.567   3.945
 6168TIP3    H118510   0.736   0.561   3.893
 6168TIP3    H218511   0.798   0.517   4.024
 6169TIP3   OH218512   2.015   0.338   0.468
 6169TIP3    H118513   1.931   0.372   0.497
 6169TIP3    H218514   2.004   0.323   0.374
 6170TIP3   OH218515   2.802   4.044   3.229
 6170TIP3    H118516   2.719   4.086   3.251
 6170TIP3    H218517   2.842   4.101   3.164
 6171TIP3   OH218518   1.404   1.281   3.593
 6171TIP3    H118519   1.394   1.234   3.510
 6171TIP3    H218520   1.464   1.353   3.573
 6172TIP3   OH218521   1.272   5.114   5.136
 6172TIP3    H118522   1.242   5.091   5.048
 6172TIP3    H218523   1.307   5.202   5.126
 6173TIP3   OH218524   2.211   5.854   3.928
 6173TIP3    H118525   2.263   5.854   4.008
 6173TIP3    H218526   2.243   5.778   3.879
 6174TIP3   OH218527   4.692   3.925   2.511
 6174TIP3    H118528   4.601   3.904   2.530
 6174TIP3    H218529   4.731   3.843   2.484
 6175TIP3   OH218530   4.691   4.689   2.702
 6175TIP3    H118531   4.733   4.630   2.640
 6175TIP3    H218532   4.738   4.772   2.691
 6176TIP3   OH218533   1.723   1.989   4.665
 6176TIP3    H118534   1.744   1.928   4.736
 6176TIP3    H218535   1.680   2.063   4.709
 6177TIP3   OH218536   4.610   2.060   1.475
 6177TIP3    H118537   4.580   2.116   1.403
 6177TIP3    H218538   4.696   2.029   1.448
 6178TIP3   OH218539   0.404   1.481   1.892
 6178TIP3    H118540   0.343   1.410   1.872
 6178TIP3    H218541   0.470   1.477   1.823
 6179TIP3   OH218542   3.315   2.466   1.550
 6179TIP3    H118543   3.281   2.527   1.615
 6179TIP3    H218544   3.339   2.521   1.475
 6180TIP3   OH218545   0.397   2.120   2.231
 6180TIP3    H118546   0.481   2.134   2.186
 6180TIP3    H218547   0.361   2.208   2.242
 6181TIP3   OH218548   0.618   2.256   3.840
 6181TIP3    H118549   0.596   2.298   3.924
 6181TIP3    H218550   0.552   2.188   3.830
 6182TIP3   OH218551   5.392   5.815  -0.008
 6182TIP3    H118552   5.328   5.877  -0.042
 6182TIP3    H218553   5.471   5.866   0.007
 6183TIP3   OH218554   4.985   2.581   1.297
 6183TIP3    H118555   4.942   2.651   1.347
 6183TIP3    H218556   5.064   2.622   1.262
 6184TIP3   OH218557   3.623   0.029   1.215
 6184TIP3    H118558   3.561   0.099   1.194
 6184TIP3    H218559   3.571  -0.036   1.263
 6185TIP3   OH218560   4.001   1.508   0.165
 6185TIP3    H118561   4.077   1.559   0.136
 6185TIP3    H218562   3.931   1.533   0.105
 6186TIP3   OH218563   4.181   2.337   4.645
 6186TIP3    H118564   4.215   2.423   4.623
 6186TIP3    H218565   4.163   2.341   4.739
 6187TIP3   OH218566   0.938   0.171   4.855
 6187TIP3    H118567   0.864   0.210   4.901
 6187TIP3    H218568   0.898   0.108   4.794
 6188TIP3   OH218569   5.218   3.474   4.510
 6188TIP3    H118570   5.276   3.549   4.498
 6188TIP3    H218571   5.212   3.464   4.605
 6189TIP3   OH218572   2.340   3.122   1.682
 6189TIP3    H118573   2.264   3.097   1.734
 6189TIP3    H218574   2.314   3.203   1.640
 6190TIP3   OH218575   4.524   4.228   2.231
 6190TIP3    H118576   4.489   4.306   2.189
 6190TIP3    H218577   4.514   4.159   2.166
 6191TIP3   OH218578   1.930   2.427   0.957
 6191TIP3    H118579   1.982   2.457   0.883
 6191TIP3    H218580   1.977   2.458   1.034
 6192TIP3   OH218581   3.835   2.419   1.035
 6192TIP3    H118582   3.886   2.457   0.963
 6192TIP3    H218583   3.898   2.367   1.084
 6193TIP3   OH218584   1.773   3.818   2.302
 6193TIP3    H118585   1.817   3.861   2.228
 6193TIP3    H218586   1.684   3.854   2.300
 6194TIP3   OH218587   3.968   3.489   1.744
 6194TIP3    H118588   3.904   3.468   1.812
 6194TIP3    H218589   4.015   3.566   1.777
 6195TIP3   OH218590   1.091   2.398   1.967
 6195TIP3    H118591   1.014   2.425   2.018
 6195TIP3    H218592   1.056   2.340   1.899
 6196TIP3   OH218593   5.733   3.889   2.823
 6196TIP3    H118594   5.729   3.965   2.766
 6196TIP3    H218595   5.809   3.905   2.879
 6197TIP3   OH218596   5.309   0.162   4.153
 6197TIP3    H118597   5.270   0.120   4.077
 6197TIP3    H218598   5.278   0.110   4.227
 6198TIP3   OH218599   3.464   5.388   5.009
 6198TIP3    H118600   3.517   5.458   5.048
 6198TIP3    H218601   3.391   5.433   4.968
 6199TIP3   OH218602   2.615   3.202   0.428
 6199TIP3    H118603   2.673   3.180   0.501
 6199TIP3    H218604   2.539   3.242   0.469
 6200TIP3   OH218605   3.859   4.119   2.738
 6200TIP3    H118606   3.789   4.130   2.803
 6200TIP3    H218607   3.927   4.070   2.783
 6201TIP3   OH218608   1.569   3.904   3.198
 6201TIP3    H118609   1.490   3.919   3.249
 6201TIP3    H218610   1.538   3.864   3.117
 6202TIP3   OH218611   5.103   0.940   0.735
 6202TIP3    H118612   5.043   0.962   0.806
 6202TIP3    H218613   5.168   1.010   0.735
 6203TIP3   OH218614   2.920   1.898   1.681
 6203TIP3    H118615   2.977   1.959   1.728
 6203TIP3    H218616   2.832   1.918   1.714
 6204TIP3   OH218617   1.105   4.900   3.313
 6204TIP3    H118618   1.065   4.826   3.360
 6204TIP3    H218619   1.030   4.945   3.274
 6205TIP3   OH218620   6.383   5.556   2.766
 6205TIP3    H118621   6.303   5.510   2.745
 6205TIP3    H218622   6.446   5.527   2.701
 6206TIP3   OH218623   4.493   4.209   2.515
 6206TIP3    H118624   4.432   4.283   2.514
 6206TIP3    H218625   4.528   4.205   2.426
 6207TIP3   OH218626   4.356   3.898   3.030
 6207TIP3    H118627   4.439   3.899   2.983
 6207TIP3    H218628   4.340   3.990   3.053
 6208TIP3   OH218629   1.856   5.839   2.692
 6208TIP3    H118630   1.888   5.923   2.724
 6208TIP3    H218631   1.761   5.845   2.699
 6209TIP3   OH218632   3.195   2.528   0.861
 6209TIP3    H118633   3.289   2.513   0.873
 6209TIP3    H218634   3.173   2.477   0.783
 6210TIP3   OH218635   0.283   1.948   2.043
 6210TIP3    H118636   0.193   1.929   2.072
 6210TIP3    H218637   0.317   2.007   2.109
 6211TIP3   OH218638   3.145   2.359   0.286
 6211TIP3    H118639   3.215   2.423   0.276
 6211TIP3    H218640   3.070   2.397   0.240
 6212TIP3   OH218641   4.953   3.553   0.397
 6212TIP3    H118642   4.865   3.574   0.430
 6212TIP3    H218643   4.943   3.555   0.301
 6213TIP3   OH218644   0.325   5.097   0.411
 6213TIP3    H118645   0.287   5.077   0.496
 6213TIP3    H218646   0.251   5.099   0.351
 6214TIP3   OH218647   4.802   1.172   4.305
 6214TIP3    H118648   4.781   1.083   4.332
 6214TIP3    H218649   4.818   1.166   4.211
 6215TIP3   OH218650   5.656   5.274   4.544
 6215TIP3    H118651   5.647   5.340   4.474
 6215TIP3    H218652   5.699   5.321   4.615
 6216TIP3   OH218653   1.288   5.359   4.093
 6216TIP3    H118654   1.256   5.448   4.107
 6216TIP3    H218655   1.376   5.370   4.057
 6217TIP3   OH218656   1.874   1.885   2.863
 6217TIP3    H118657   1.838   1.886   2.951
 6217TIP3    H218658   1.933   1.961   2.860
 6218TIP3   OH218659   0.577   0.043   4.625
 6218TIP3    H118660   0.492   0.032   4.583
 6218TIP3    H218661   0.563   0.011   4.715
 6219TIP3   OH218662   0.701   1.204   0.537
 6219TIP3    H118663   0.657   1.214   0.452
 6219TIP3    H218664   0.633   1.170   0.595
 6220TIP3   OH218665   0.330   3.127   3.045
 6220TIP3    H118666   0.246   3.083   3.060
 6220TIP3    H218667   0.346   3.176   3.126
 6221TIP3   OH218668   2.237   3.740   0.991
 6221TIP3    H118669   2.176   3.807   1.021
 6221TIP3    H218670   2.183   3.662   0.980
 6222TIP3   OH218671   3.177   0.453   4.076
 6222TIP3    H118672   3.109   0.511   4.111
 6222TIP3    H218673   3.137   0.365   4.078
 6223TIP3   OH218674   5.515   4.490   2.615
 6223TIP3    H118675   5.420   4.498   2.623
 6223TIP3    H218676   5.532   4.492   2.521
 6224TIP3   OH218677   1.584   3.383   4.709
 6224TIP3    H118678   1.533   3.375   4.790
 6224TIP3    H218679   1.585   3.477   4.691
 6225TIP3   OH218680   5.033   1.372   4.433
 6225TIP3    H118681   5.088   1.414   4.367
 6225TIP3    H218682   5.066   1.406   4.516
 6226TIP3   OH218683   4.697   3.000   2.935
 6226TIP3    H118684   4.647   2.965   2.861
 6226TIP3    H218685   4.780   2.950   2.932
 6227TIP3   OH218686   4.894   4.540   0.693
 6227TIP3    H118687   4.878   4.602   0.622
 6227TIP3    H218688   4.973   4.493   0.667
 6228TIP3   OH218689   0.806   0.655   2.215
 6228TIP3    H118690   0.816   0.592   2.143
 6228TIP3    H218691   0.825   0.740   2.175
 6229TIP3   OH218692   0.152   2.462   1.519
 6229TIP3    H118693   0.163   2.430   1.609
 6229TIP3    H218694   0.241   2.484   1.491
 6230TIP3   OH218695   1.173   3.274   0.614
 6230TIP3    H118696   1.119   3.217   0.669
 6230TIP3    H218697   1.241   3.215   0.579
 6231TIP3   OH218698   0.057   1.562   1.240
 6231TIP3    H118699  -0.028   1.593   1.207
 6231TIP3    H218700   0.035   1.495   1.304
 6232TIP3   OH218701   6.049   2.329   0.972
 6232TIP3    H118702   6.088   2.294   1.052
 6232TIP3    H218703   6.021   2.417   0.996
 6233TIP3   OH218704   0.383   4.865   4.012
 6233TIP3    H118705   0.324   4.938   3.993
 6233TIP3    H218706   0.362   4.799   3.946
 6234TIP3   OH218707   2.963   2.198   4.508
 6234TIP3    H118708   2.888   2.165   4.559
 6234TIP3    H218709   2.947   2.166   4.419
 6235TIP3   OH218710   2.458   2.391   3.738
 6235TIP3    H118711   2.434   2.308   3.696
 6235TIP3    H218712   2.409   2.392   3.820
 6236TIP3   OH218713   5.293   1.306   0.987
 6236TIP3    H118714   5.302   1.401   0.976
 6236TIP3    H218715   5.260   1.295   1.076
 6237TIP3   OH218716   0.586   2.766   1.817
 6237TIP3    H118717   0.614   2.751   1.727
 6237TIP3    H218718   0.650   2.719   1.871
 6238TIP3   OH218719   5.874   4.208   2.937
 6238TIP3    H118720   5.832   4.269   2.876
 6238TIP3    H218721   5.968   4.220   2.920
 6239TIP3   OH218722   0.072   0.213   5.063
 6239TIP3    H118723   0.135   0.200   4.993
 6239TIP3    H218724   0.035   0.126   5.079
 6240TIP3   OH218725   4.346   4.436   1.189
 6240TIP3    H118726   4.278   4.454   1.124
 6240TIP3    H218727   4.381   4.522   1.212
 6241TIP3   OH218728   5.062   5.916   3.787
 6241TIP3    H118729   5.072   5.882   3.699
 6241TIP3    H218730   5.066   6.011   3.777
 6242TIP3   OH218731   5.933   2.879   3.480
 6242TIP3    H118732   5.955   2.786   3.470
 6242TIP3    H218733   6.014   2.925   3.458
 6243TIP3   OH218734   5.757   3.356   0.272
 6243TIP3    H118735   5.848   3.382   0.284
 6243TIP3    H218736   5.753   3.324   0.181
 6244TIP3   OH218737   2.041   5.531   3.293
 6244TIP3    H118738   1.946   5.543   3.302
 6244TIP3    H218739   2.066   5.588   3.221
 6245TIP3   OH218740   4.277   4.923   4.974
 6245TIP3    H118741   4.196   4.908   4.925
 6245TIP3    H218742   4.307   4.836   4.999
 6246TIP3   OH218743   3.418   0.441   2.363
 6246TIP3    H118744   3.428   0.501   2.290
 6246TIP3    H218745   3.507   0.409   2.381
 6247TIP3   OH218746   1.301   3.649   1.140
 6247TIP3    H118747   1.296   3.619   1.231
 6247TIP3    H218748   1.387   3.691   1.133
 6248TIP3   OH218749   5.778   3.792   1.714
 6248TIP3    H118750   5.841   3.725   1.739
 6248TIP3    H218751   5.822   3.875   1.733
 6249TIP3   OH218752   5.967   5.118   3.064
 6249TIP3    H118753   6.059   5.136   3.082
 6249TIP3    H218754   5.945   5.045   3.122
 6250TIP3   OH218755   2.680   4.549   5.079
 6250TIP3    H118756   2.657   4.503   4.998
 6250TIP3    H218757   2.680   4.641   5.054
 6251TIP3   OH218758   0.589   0.095   3.176
 6251TIP3    H118759   0.505   0.132   3.146
 6251TIP3    H218760   0.564   0.026   3.237
 6252TIP3   OH218761   2.260   0.433   3.970
 6252TIP3    H118762   2.194   0.482   3.921
 6252TIP3    H218763   2.337   0.489   3.970
 6253TIP3   OH218764   1.317   5.388   5.145
 6253TIP3    H118765   1.412   5.391   5.130
 6253TIP3    H218766   1.281   5.443   5.075
 6254TIP3   OH218767   3.801   2.960   4.862
 6254TIP3    H118768   3.739   2.893   4.892
 6254TIP3    H218769   3.775   3.040   4.908
 6255TIP3   OH218770   0.321   0.948   3.475
 6255TIP3    H118771   0.384   1.019   3.490
 6255TIP3    H218772   0.244   0.992   3.439
 6256TIP3   OH218773   1.078   1.394   2.626
 6256TIP3    H118774   1.134   1.455   2.673
 6256TIP3    H218775   1.012   1.449   2.584
 6257TIP3   OH218776   5.933   0.696   3.339
 6257TIP3    H118777   5.839   0.682   3.355
 6257TIP3    H218778   5.977   0.630   3.392
 6258TIP3   OH218779   0.714   3.245   4.774
 6258TIP3    H118780   0.785   3.188   4.804
 6258TIP3    H218781   0.656   3.187   4.724
 6259TIP3   OH218782   3.657   5.076   4.444
 6259TIP3    H118783   3.624   5.029   4.368
 6259TIP3    H218784   3.623   5.165   4.434
 6260TIP3   OH218785   4.948   5.220   3.805
 6260TIP3    H118786   5.031   5.207   3.759
 6260TIP3    H218787   4.902   5.286   3.753
 6261TIP3   OH218788   2.286   5.570   3.781
 6261TIP3    H118789   2.262   5.516   3.857
 6261TIP3    H218790   2.377   5.595   3.797
 6262TIP3   OH218791   2.209   0.550   0.442
 6262TIP3    H118792   2.294   0.516   0.469
 6262TIP3    H218793   2.147   0.480   0.462
 6263TIP3   OH218794   2.448   2.362   1.602
 6263TIP3    H118795   2.449   2.438   1.544
 6263TIP3    H218796   2.500   2.389   1.678
 6264TIP3   OH218797   5.189   2.182   2.739
 6264TIP3    H118798   5.191   2.250   2.806
 6264TIP3    H218799   5.112   2.129   2.762
 6265TIP3   OH218800   6.123   4.546   2.816
 6265TIP3    H118801   6.073   4.625   2.798
 6265TIP3    H218802   6.213   4.568   2.789
 6266TIP3   OH218803   1.555   2.562   0.293
 6266TIP3    H118804   1.490   2.519   0.236
 6266TIP3    H218805   1.639   2.525   0.267
 6267TIP3   OH218806   3.781   5.135   3.793
 6267TIP3    H118807   3.842   5.188   3.742
 6267TIP3    H218808   3.737   5.198   3.850
 6268TIP3   OH218809   2.288   4.641   4.361
 6268TIP3    H118810   2.194   4.653   4.369
 6268TIP3    H218811   2.305   4.556   4.402
 6269TIP3   OH218812   3.389   1.161   2.579
 6269TIP3    H118813   3.294   1.160   2.566
 6269TIP3    H218814   3.423   1.203   2.501
 6270TIP3   OH218815   1.308   3.804   1.523
 6270TIP3    H118816   1.214   3.799   1.539
 6270TIP3    H218817   1.315   3.850   1.439
 6271TIP3   OH218818   3.707   4.323   1.521
 6271TIP3    H118819   3.716   4.243   1.470
 6271TIP3    H218820   3.615   4.347   1.510
 6272TIP3   OH218821   2.421   3.249   4.083
 6272TIP3    H118822   2.463   3.263   3.998
 6272TIP3    H218823   2.440   3.159   4.106
 6273TIP3   OH218824   4.998   2.596   3.659
 6273TIP3    H118825   5.057   2.525   3.632
 6273TIP3    H218826   5.012   2.665   3.594
 6274TIP3   OH218827   5.382   0.301   5.010
 6274TIP3    H118828   5.290   0.326   5.018
 6274TIP3    H218829   5.383   0.207   5.030
 6275TIP3   OH218830   1.823   3.891   0.479
 6275TIP3    H118831   1.877   3.872   0.402
 6275TIP3    H218832   1.737   3.915   0.443
 6276TIP3   OH218833   0.458   5.849   3.763
 6276TIP3    H118834   0.445   5.920   3.701
 6276TIP3    H218835   0.532   5.877   3.818
 6277TIP3   OH218836   4.654   1.691   0.731
 6277TIP3    H118837   4.640   1.692   0.637
 6277TIP3    H218838   4.613   1.772   0.763
 6278TIP3   OH218839   1.463   3.729   2.576
 6278TIP3    H118840   1.550   3.766   2.562
 6278TIP3    H218841   1.479   3.637   2.596
 6279TIP3   OH218842   6.214   5.819   1.810
 6279TIP3    H118843   6.211   5.727   1.837
 6279TIP3    H218844   6.181   5.819   1.720
 6280TIP3   OH218845   3.168   1.848   0.493
 6280TIP3    H118846   3.184   1.774   0.434
 6280TIP3    H218847   3.156   1.923   0.435
 6281TIP3   OH218848   5.970   0.600   4.665
 6281TIP3    H118849   5.938   0.645   4.587
 6281TIP3    H218850   6.039   0.658   4.698
 6282TIP3   OH218851   1.342   0.385   4.811
 6282TIP3    H118852   1.300   0.320   4.755
 6282TIP3    H218853   1.434   0.385   4.783
 6283TIP3   OH218854   5.524   2.448   2.633
 6283TIP3    H118855   5.538   2.510   2.562
 6283TIP3    H218856   5.464   2.383   2.597
 6284TIP3   OH218857   3.909   3.072   0.359
 6284TIP3    H118858   3.999   3.085   0.331
 6284TIP3    H218859   3.914   3.071   0.455
 6285TIP3   OH218860   0.728   0.152   2.801
 6285TIP3    H118861   0.750   0.198   2.882
 6285TIP3    H218862   0.727   0.220   2.734
 6286TIP3   OH218863   4.700   4.822   2.023
 6286TIP3    H118864   4.739   4.738   1.999
 6286TIP3    H218865   4.776   4.880   2.035
 6287TIP3   OH218866   2.959   2.545   3.275
 6287TIP3    H118867   2.905   2.624   3.278
 6287TIP3    H218868   2.900   2.475   3.304
 6288TIP3   OH218869   3.217   2.010   3.787
 6288TIP3    H118870   3.160   1.960   3.729
 6288TIP3    H218871   3.177   2.097   3.791
 6289TIP3   OH218872   0.142   0.440   2.878
 6289TIP3    H118873   0.085   0.375   2.837
 6289TIP3    H218874   0.224   0.435   2.829
 6290TIP3   OH218875   3.177   0.793   3.238
 6290TIP3    H118876   3.203   0.885   3.249
 6290TIP3    H218877   3.230   0.745   3.301
 6291TIP3   OH218878   4.190   5.197   2.175
 6291TIP3    H118879   4.139   5.254   2.117
 6291TIP3    H218880   4.176   5.109   2.140
 6292TIP3   OH218881   2.716   0.666   1.055
 6292TIP3    H118882   2.751   0.717   1.128
 6292TIP3    H218883   2.710   0.728   0.983
 6293TIP3   OH218884   4.499   1.670   3.639
 6293TIP3    H118885   4.427   1.644   3.581
 6293TIP3    H218886   4.578   1.658   3.585
 6294TIP3   OH218887   1.041   5.980   0.159
 6294TIP3    H118888   1.093   5.904   0.131
 6294TIP3    H218889   0.958   5.943   0.188
 6295TIP3   OH218890   3.319   2.726   3.173
 6295TIP3    H118891   3.353   2.783   3.242
 6295TIP3    H218892   3.395   2.677   3.142
 6296TIP3   OH218893   2.966   3.930   2.674
 6296TIP3    H118894   2.889   3.880   2.701
 6296TIP3    H218895   3.040   3.880   2.708
 6297TIP3   OH218896   4.838   0.935   3.535
 6297TIP3    H118897   4.804   0.997   3.471
 6297TIP3    H218898   4.769   0.869   3.544
 6298TIP3   OH218899   1.344   3.636   2.920
 6298TIP3    H118900   1.259   3.602   2.949
 6298TIP3    H218901   1.386   3.562   2.876
 6299TIP3   OH218902   1.333   3.284   1.048
 6299TIP3    H118903   1.401   3.334   1.093
 6299TIP3    H218904   1.251   3.310   1.091
 6300TIP3   OH218905   4.823   5.501   5.069
 6300TIP3    H118906   4.779   5.447   5.003
 6300TIP3    H218907   4.803   5.591   5.044
 6301TIP3   OH218908   1.322   4.625   3.350
 6301TIP3    H118909   1.336   4.539   3.311
 6301TIP3    H218910   1.336   4.687   3.278
 6302TIP3   OH218911   2.837   4.594   0.349
 6302TIP3    H118912   2.915   4.549   0.379
 6302TIP3    H218913   2.783   4.525   0.311
 6303TIP3   OH218914   5.350   4.207   5.042
 6303TIP3    H118915   5.288   4.166   5.101
 6303TIP3    H218916   5.381   4.285   5.089
 6304TIP3   OH218917   1.183   0.325   2.644
 6304TIP3    H118918   1.151   0.415   2.654
 6304TIP3    H218919   1.192   0.294   2.734
 6305TIP3   OH218920   2.607   5.633   5.028
 6305TIP3    H118921   2.588   5.554   5.079
 6305TIP3    H218922   2.587   5.609   4.938
 6306TIP3   OH218923   2.980   5.206   0.328
 6306TIP3    H118924   2.891   5.171   0.336
 6306TIP3    H218925   2.999   5.200   0.234
 6307TIP3   OH218926   5.434   4.486   4.460
 6307TIP3    H118927   5.476   4.493   4.374
 6307TIP3    H218928   5.358   4.544   4.454
 6308TIP3   OH218929   3.080   4.876   1.874
 6308TIP3    H118930   3.046   4.799   1.827
 6308TIP3    H218931   3.097   4.940   1.805
 6309TIP3   OH218932   2.327   3.984   4.909
 6309TIP3    H118933   2.285   4.064   4.876
 6309TIP3    H218934   2.349   4.004   5.000
 6310TIP3   OH218935   2.902   2.331   0.020
 6310TIP3    H118936   2.854   2.310  -0.060
 6310TIP3    H218937   2.896   2.426   0.027
 6311TIP3   OH218938   4.280   2.937   0.879
 6311TIP3    H118939   4.216   2.907   0.815
 6311TIP3    H218940   4.365   2.915   0.841
 6312TIP3   OH218941   1.877   3.796   1.751
 6312TIP3    H118942   1.967   3.826   1.765
 6312TIP3    H218943   1.822   3.862   1.792
 6313TIP3   OH218944   3.364   2.417   1.221
 6313TIP3    H118945   3.323   2.345   1.172
 6313TIP3    H218946   3.417   2.373   1.287
 6314TIP3   OH218947   5.078   1.228   0.179
 6314TIP3    H118948   5.052   1.250   0.090
 6314TIP3    H218949   5.049   1.303   0.231
 6315TIP3   OH218950   6.151   5.492   0.811
 6315TIP3    H118951   6.206   5.481   0.888
 6315TIP3    H218952   6.065   5.514   0.845
 6316TIP3   OH218953   1.510   0.615   4.198
 6316TIP3    H118954   1.444   0.647   4.136
 6316TIP3    H218955   1.543   0.694   4.240
 6317TIP3   OH218956   4.982   3.920   3.258
 6317TIP3    H118957   4.939   4.004   3.277
 6317TIP3    H218958   5.048   3.911   3.327
 6318TIP3   OH218959   3.330   3.356   2.540
 6318TIP3    H118960   3.290   3.300   2.474
 6318TIP3    H218961   3.422   3.330   2.542
 6319TIP3   OH218962   1.968   4.280   0.749
 6319TIP3    H118963   1.899   4.213   0.745
 6319TIP3    H218964   1.933   4.353   0.699
 6320TIP3   OH218965   4.816   3.864   2.881
 6320TIP3    H118966   4.864   3.863   2.799
 6320TIP3    H218967   4.832   3.950   2.919
 6321TIP3   OH218968   5.572   0.120   3.537
 6321TIP3    H118969   5.500   0.162   3.584
 6321TIP3    H218970   5.564   0.152   3.447
 6322TIP3   OH218971   3.825   4.990   1.643
 6322TIP3    H118972   3.785   5.077   1.652
 6322TIP3    H218973   3.882   4.998   1.567
 6323TIP3   OH218974   0.755   0.826   1.032
 6323TIP3    H118975   0.775   0.887   1.104
 6323TIP3    H218976   0.778   0.740   1.067
 6324TIP3   OH218977   5.282   2.616   2.346
 6324TIP3    H118978   5.254   2.650   2.260
 6324TIP3    H218979   5.377   2.623   2.344
 6325TIP3   OH218980   2.081   2.565   0.442
 6325TIP3    H118981   2.109   2.653   0.469
 6325TIP3    H218982   2.158   2.510   0.459
 6326TIP3   OH218983   5.633   5.433   0.369
 6326TIP3    H118984   5.665   5.511   0.322
 6326TIP3    H218985   5.667   5.443   0.458
 6327TIP3   OH218986   4.590   2.593   2.813
 6327TIP3    H118987   4.566   2.675   2.769
 6327TIP3    H218988   4.595   2.616   2.906
 6328TIP3   OH218989   4.044   4.043   0.048
 6328TIP3    H118990   4.039   4.057  -0.047
 6328TIP3    H218991   4.121   4.092   0.075
 6329TIP3   OH218992   5.215   1.988   2.517
 6329TIP3    H118993   5.156   2.049   2.472
 6329TIP3    H218994   5.157   1.936   2.574
 6330TIP3   OH218995   3.162   4.832   2.832
 6330TIP3    H118996   3.139   4.779   2.755
 6330TIP3    H218997   3.138   4.777   2.906
 6331TIP3   OH218998   1.642   2.375   3.921
 6331TIP3    H118999   1.665   2.335   4.005
 6331TIP3    H219000   1.595   2.306   3.874
 6332TIP3   OH219001   2.100   5.391   4.905
 6332TIP3    H119002   2.125   5.481   4.887
 6332TIP3    H219003   2.179   5.351   4.942
 6333TIP3   OH219004   4.689   1.681   3.448
 6333TIP3    H119005   4.664   1.736   3.374
 6333TIP3    H219006   4.778   1.652   3.428
 6334TIP3   OH219007   4.229   3.566   2.535
 6334TIP3    H119008   4.159   3.586   2.597
 6334TIP3    H219009   4.231   3.642   2.476
 6335TIP3   OH219010   6.161   1.635   2.436
 6335TIP3    H119011   6.244   1.599   2.467
 6335TIP3    H219012   6.181   1.726   2.414
 6336TIP3   OH219013   3.738   0.985   4.734
 6336TIP3    H119014   3.825   1.020   4.717
 6336TIP3    H219015   3.743   0.894   4.703
 6337TIP3   OH219016   1.461   2.222   3.798
 6337TIP3    H119017   1.370   2.250   3.794
 6337TIP3    H219018   1.473   2.168   3.720
 6338TIP3   OH219019   0.629   4.756   3.985
 6338TIP3    H119020   0.691   4.814   4.031
 6338TIP3    H219021   0.543   4.786   4.012
 6339TIP3   OH219022   2.571   2.643   0.255
 6339TIP3    H119023   2.601   2.557   0.227
 6339TIP3    H219024   2.554   2.633   0.349
 6340TIP3   OH219025   2.465   5.841   4.813
 6340TIP3    H119026   2.481   5.882   4.728
 6340TIP3    H219027   2.549   5.804   4.838
 6341TIP3   OH219028   3.557   1.864   4.120
 6341TIP3    H119029   3.550   1.933   4.053
 6341TIP3    H219030   3.495   1.797   4.091
 6342TIP3   OH219031   1.108   4.197   4.888
 6342TIP3    H119032   1.195   4.218   4.921
 6342TIP3    H219033   1.081   4.120   4.938
 6343TIP3   OH219034   0.316   0.555   0.531
 6343TIP3    H119035   0.355   0.632   0.489
 6343TIP3    H219036   0.379   0.531   0.600
 6344TIP3   OH219037   4.224   4.441   0.127
 6344TIP3    H119038   4.231   4.356   0.084
 6344TIP3    H219039   4.166   4.492   0.070
 6345TIP3   OH219040   0.849   5.279   0.579
 6345TIP3    H119041   0.927   5.265   0.526
 6345TIP3    H219042   0.864   5.227   0.658
 6346TIP3   OH219043   2.004   4.893   3.053
 6346TIP3    H119044   2.073   4.884   3.118
 6346TIP3    H219045   2.049   4.915   2.972
 6347TIP3   OH219046   0.796   1.917   2.000
 6347TIP3    H119047   0.863   1.896   2.065
 6347TIP3    H219048   0.812   1.856   1.929
 6348TIP3   OH219049   1.208   2.780   1.123
 6348TIP3    H119050   1.137   2.720   1.145
 6348TIP3    H219051   1.281   2.753   1.179
 6349TIP3   OH219052   3.991   0.755   3.332
 6349TIP3    H119053   4.000   0.674   3.383
 6349TIP3    H219054   3.917   0.800   3.372
 6350TIP3   OH219055   0.802   3.834   2.105
 6350TIP3    H119056   0.840   3.759   2.059
 6350TIP3    H219057   0.845   3.835   2.190
 6351TIP3   OH219058   4.918   3.130   3.480
 6351TIP3    H119059   4.891   3.044   3.513
 6351TIP3    H219060   4.919   3.119   3.385
 6352TIP3   OH219061   2.840   1.538   2.659
 6352TIP3    H119062   2.814   1.603   2.595
 6352TIP3    H219063   2.935   1.547   2.666
 6353TIP3   OH219064   0.601   1.917   3.391
 6353TIP3    H119065   0.669   1.983   3.378
 6353TIP3    H219066   0.542   1.928   3.316
 6354TIP3   OH219067   1.548   5.026   1.969
 6354TIP3    H119068   1.536   4.998   1.878
 6354TIP3    H219069   1.639   5.056   1.972
 6355TIP3   OH219070   1.087   1.988   0.480
 6355TIP3    H119071   1.025   1.993   0.552
 6355TIP3    H219072   1.077   1.901   0.443
 6356TIP3   OH219073   2.999   2.939   2.444
 6356TIP3    H119074   2.920   2.927   2.498
 6356TIP3    H219075   3.015   3.033   2.445
 6357TIP3   OH219076   2.727   3.719   4.939
 6357TIP3    H119077   2.698   3.806   4.965
 6357TIP3    H219078   2.817   3.713   4.970
 6358TIP3   OH219079   2.008   0.267   4.689
 6358TIP3    H119080   1.997   0.305   4.777
 6358TIP3    H219081   2.008   0.173   4.704
 6359TIP3   OH219082   3.511   2.527   4.820
 6359TIP3    H119083   3.520   2.499   4.729
 6359TIP3    H219084   3.557   2.460   4.871
 6360TIP3   OH219085   1.783   4.766   1.265
 6360TIP3    H119086   1.818   4.846   1.226
 6360TIP3    H219087   1.853   4.736   1.324
 6361TIP3   OH219088   4.749   4.090   1.168
 6361TIP3    H119089   4.689   4.125   1.102
 6361TIP3    H219090   4.724   4.136   1.249
 6362TIP3   OH219091   1.501   5.184   4.222
 6362TIP3    H119092   1.412   5.156   4.197
 6362TIP3    H219093   1.516   5.264   4.172
 6363TIP3   OH219094   4.112   2.740   4.019
 6363TIP3    H119095   4.114   2.826   3.977
 6363TIP3    H219096   4.019   2.716   4.018
 6364TIP3   OH219097   0.323   4.473   2.693
 6364TIP3    H119098   0.367   4.408   2.747
 6364TIP3    H219099   0.337   4.556   2.738
 6365TIP3   OH219100   6.344   0.892   4.507
 6365TIP3    H119101   6.391   0.948   4.446
 6365TIP3    H219102   6.317   0.817   4.454
 6366TIP3   OH219103   0.382   2.792   1.500
 6366TIP3    H119104   0.311   2.735   1.470
 6366TIP3    H219105   0.440   2.734   1.549
 6367TIP3   OH219106   4.568   5.049   3.896
 6367TIP3    H119107   4.635   5.108   3.859
 6367TIP3    H219108   4.614   5.001   3.964
 6368TIP3   OH219109   0.538   1.299   4.275
 6368TIP3    H119110   0.590   1.341   4.344
 6368TIP3    H219111   0.602   1.256   4.219
 6369TIP3   OH219112   2.373   3.902   4.189
 6369TIP3    H119113   2.313   3.893   4.115
 6369TIP3    H219114   2.422   3.982   4.171
 6370TIP3   OH219115   0.956   3.559   4.679
 6370TIP3    H119116   1.014   3.635   4.692
 6370TIP3    H219117   1.016   3.485   4.666
 6371TIP3   OH219118   2.694   1.318   3.786
 6371TIP3    H119119   2.666   1.324   3.695
 6371TIP3    H219120   2.737   1.402   3.803
 6372TIP3   OH219121   6.133   5.420   2.749
 6372TIP3    H119122   6.052   5.381   2.782
 6372TIP3    H219123   6.124   5.415   2.654
 6373TIP3   OH219124   4.991   0.842   4.582
 6373TIP3    H119125   4.911   0.886   4.611
 6373TIP3    H219126   5.034   0.906   4.526
 6374TIP3   OH219127   1.733   1.113   2.143
 6374TIP3    H119128   1.690   1.157   2.071
 6374TIP3    H219129   1.827   1.120   2.123
 6375TIP3   OH219130   5.898   4.386   1.468
 6375TIP3    H119131   5.815   4.380   1.421
 6375TIP3    H219132   5.899   4.310   1.525
 6376TIP3   OH219133   2.117   1.094   4.781
 6376TIP3    H119134   2.205   1.056   4.776
 6376TIP3    H219135   2.130   1.182   4.815
 6377TIP3   OH219136   3.208   4.387   1.833
 6377TIP3    H119137   3.296   4.406   1.801
 6377TIP3    H219138   3.177   4.315   1.778
 6378TIP3   OH219139   2.519   0.701   3.470
 6378TIP3    H119140   2.433   0.712   3.430
 6378TIP3    H219141   2.580   0.729   3.402
 6379TIP3   OH219142   0.529   5.302   0.125
 6379TIP3    H119143   0.465   5.331   0.190
 6379TIP3    H219144   0.579   5.233   0.169
 6380TIP3   OH219145   2.117   3.566   1.802
 6380TIP3    H119146   2.161   3.511   1.866
 6380TIP3    H219147   2.132   3.655   1.833
 6381TIP3   OH219148   4.072   2.001   4.971
 6381TIP3    H119149   4.119   1.921   4.947
 6381TIP3    H219150   3.982   1.971   4.987
 6382TIP3   OH219151   0.264   2.444   3.462
 6382TIP3    H119152   0.234   2.388   3.533
 6382TIP3    H219153   0.324   2.389   3.411
 6383TIP3   OH219154   4.295   2.564   4.532
 6383TIP3    H119155   4.329   2.581   4.620
 6383TIP3    H219156   4.350   2.617   4.475
 6384TIP3   OH219157   2.862   0.566   3.066
 6384TIP3    H119158   2.821   0.627   3.005
 6384TIP3    H219159   2.955   0.588   3.063
 6385TIP3   OH219160   0.209   1.204   4.145
 6385TIP3    H119161   0.215   1.174   4.054
 6385TIP3    H219162   0.252   1.289   4.145
 6386TIP3   OH219163   5.922   2.295   3.561
 6386TIP3    H119164   6.003   2.265   3.601
 6386TIP3    H219165   5.892   2.220   3.509
 6387TIP3   OH219166   2.458   1.579   1.061
 6387TIP3    H119167   2.364   1.599   1.055
 6387TIP3    H219168   2.472   1.511   0.995
 6388TIP3   OH219169   1.995   1.242   2.156
 6388TIP3    H119170   1.984   1.336   2.170
 6388TIP3    H219171   2.055   1.235   2.082
 6389TIP3   OH219172   5.139   3.228   4.886
 6389TIP3    H119173   5.120   3.198   4.975
 6389TIP3    H219174   5.217   3.179   4.861
 6390TIP3   OH219175   1.880   1.907   0.531
 6390TIP3    H119176   1.871   1.878   0.622
 6390TIP3    H219177   1.966   1.950   0.529
 6391TIP3   OH219178   3.952   0.166   1.742
 6391TIP3    H119179   3.919   0.076   1.744
 6391TIP3    H219180   4.005   0.173   1.822
 6392TIP3   OH219181   0.569   5.616   1.118
 6392TIP3    H119182   0.536   5.550   1.056
 6392TIP3    H219183   0.499   5.682   1.121
 6393TIP3   OH219184   0.063   3.578   2.105
 6393TIP3    H119185  -0.011   3.583   2.166
 6393TIP3    H219186   0.022   3.569   2.019
 6394TIP3   OH219187   2.169   5.055   5.094
 6394TIP3    H119188   2.076   5.035   5.108
 6394TIP3    H219189   2.211   4.970   5.089
 6395TIP3   OH219190   0.305   0.470   0.026
 6395TIP3    H119191   0.235   0.406   0.037
 6395TIP3    H219192   0.372   0.423  -0.025
 6396TIP3   OH219193   5.158   4.378   1.408
 6396TIP3    H119194   5.099   4.451   1.388
 6396TIP3    H219195   5.244   4.419   1.420
 6397TIP3   OH219196   4.569   4.316   0.847
 6397TIP3    H119197   4.566   4.390   0.907
 6397TIP3    H219198   4.575   4.239   0.904
 6398TIP3   OH219199   2.773   5.879   4.821
 6398TIP3    H119200   2.860   5.908   4.850
 6398TIP3    H219201   2.779   5.878   4.726
 6399TIP3   OH219202   5.449   3.775   4.188
 6399TIP3    H119203   5.532   3.812   4.158
 6399TIP3    H219204   5.429   3.705   4.125
 6400TIP3   OH219205   4.276   4.263   1.652
 6400TIP3    H119206   4.259   4.173   1.627
 6400TIP3    H219207   4.243   4.315   1.578
 6401TIP3   OH219208   2.559   0.607   4.169
 6401TIP3    H119209   2.561   0.577   4.078
 6401TIP3    H219210   2.494   0.551   4.211
 6402TIP3   OH219211   5.891   4.347   2.118
 6402TIP3    H119212   5.968   4.363   2.063
 6402TIP3    H219213   5.917   4.278   2.178
 6403TIP3   OH219214   3.088   1.294   1.412
 6403TIP3    H119215   3.033   1.320   1.486
 6403TIP3    H219216   3.084   1.198   1.412
 6404TIP3   OH219217   3.635   5.346   1.254
 6404TIP3    H119218   3.701   5.313   1.194
 6404TIP3    H219219   3.557   5.295   1.235
 6405TIP3   OH219220   2.557   3.962   1.652
 6405TIP3    H119221   2.506   3.882   1.639
 6405TIP3    H219222   2.611   3.944   1.729
 6406TIP3   OH219223   5.990   4.865   1.821
 6406TIP3    H119224   5.974   4.771   1.806
 6406TIP3    H219225   5.904   4.905   1.813
 6407TIP3   OH219226   0.950   3.789   0.712
 6407TIP3    H119227   0.954   3.866   0.656
 6407TIP3    H219228   1.000   3.722   0.665
 6408TIP3   OH219229   5.198   1.853   5.085
 6408TIP3    H119230   5.136   1.839   5.156
 6408TIP3    H219231   5.265   1.786   5.098
 6409TIP3   OH219232   1.124   5.911   3.480
 6409TIP3    H119233   1.219   5.899   3.483
 6409TIP3    H219234   1.097   5.908   3.572
 6410TIP3   OH219235   0.058   1.577   2.507
 6410TIP3    H119236   0.064   1.484   2.528
 6410TIP3    H219237   0.135   1.594   2.452
 6411TIP3   OH219238   2.584   5.317   3.120
 6411TIP3    H119239   2.669   5.360   3.111
 6411TIP3    H219240   2.522   5.389   3.132
 6412TIP3   OH219241   2.571   4.973   1.307
 6412TIP3    H119242   2.601   4.899   1.253
 6412TIP3    H219243   2.499   4.937   1.358
 6413TIP3   OH219244   6.153   2.364   2.037
 6413TIP3    H119245   6.220   2.367   1.969
 6413TIP3    H219246   6.160   2.450   2.081
 6414TIP3   OH219247   0.286   0.220   0.429
 6414TIP3    H119248   0.351   0.291   0.436
 6414TIP3    H219249   0.272   0.191   0.519
 6415TIP3   OH219250   3.639   0.681   4.101
 6415TIP3    H119251   3.608   0.766   4.067
 6415TIP3    H219252   3.559   0.633   4.121
 6416TIP3   OH219253   2.924   4.680   2.404
 6416TIP3    H119254   2.935   4.590   2.375
 6416TIP3    H219255   2.846   4.711   2.359
 6417TIP3   OH219256   3.276   3.618   3.201
 6417TIP3    H119257   3.248   3.537   3.160
 6417TIP3    H219258   3.256   3.686   3.136
 6418TIP3   OH219259   3.177   1.999   4.119
 6418TIP3    H119260   3.131   1.922   4.084
 6418TIP3    H219261   3.255   1.962   4.161
 6419TIP3   OH219262   4.781   1.050   0.725
 6419TIP3    H119263   4.847   1.105   0.682
 6419TIP3    H219264   4.822   1.023   0.807
 6420TIP3   OH219265   3.779   4.021   2.004
 6420TIP3    H119266   3.858   4.074   1.991
 6420TIP3    H219267   3.715   4.083   2.040
 6421TIP3   OH219268   2.011   3.148   1.039
 6421TIP3    H119269   2.073   3.162   1.110
 6421TIP3    H219270   2.059   3.096   0.975
 6422TIP3   OH219271   6.392   4.559   5.033
 6422TIP3    H119272   6.346   4.491   4.984
 6422TIP3    H219273   6.332   4.633   5.033
 6423TIP3   OH219274   1.794   0.176   0.037
 6423TIP3    H119275   1.869   0.205   0.088
 6423TIP3    H219276   1.757   0.103   0.088
 6424TIP3   OH219277   3.116   4.929   1.033
 6424TIP3    H119278   3.023   4.921   1.050
 6424TIP3    H219279   3.142   5.010   1.076
 6425TIP3   OH219280   1.683   0.207   3.652
 6425TIP3    H119281   1.696   0.256   3.733
 6425TIP3    H219282   1.612   0.252   3.607
 6426TIP3   OH219283   4.592   4.689   2.958
 6426TIP3    H119284   4.623   4.703   2.869
 6426TIP3    H219285   4.521   4.752   2.968
 6427TIP3   OH219286   2.537   4.490   2.034
 6427TIP3    H119287   2.519   4.468   1.942
 6427TIP3    H219288   2.621   4.447   2.052
 6428TIP3   OH219289   1.176   3.756   2.382
 6428TIP3    H119290   1.269   3.780   2.387
 6428TIP3    H219291   1.160   3.702   2.459
 6429TIP3   OH219292   4.800   5.898   2.827
 6429TIP3    H119293   4.883   5.945   2.827
 6429TIP3    H219294   4.733   5.965   2.839
 6430TIP3   OH219295   2.064   3.069   0.167
 6430TIP3    H119296   1.976   3.088   0.201
 6430TIP3    H219297   2.051   2.999   0.104
 6431TIP3   OH219298   4.571   1.023   3.617
 6431TIP3    H119299   4.504   0.970   3.573
 6431TIP3    H219300   4.610   1.075   3.547
 6432TIP3   OH219301   1.191   4.378   4.672
 6432TIP3    H119302   1.281   4.355   4.646
 6432TIP3    H219303   1.178   4.333   4.756
 6433TIP3   OH219304   6.167   2.586   0.206
 6433TIP3    H119305   6.220   2.663   0.225
 6433TIP3    H219306   6.221   2.512   0.234
 6434TIP3   OH219307   4.741   2.832   4.416
 6434TIP3    H119308   4.783   2.918   4.403
 6434TIP3    H219309   4.782   2.796   4.494
 6435TIP3   OH219310   1.533   1.559   3.543
 6435TIP3    H119311   1.497   1.597   3.464
 6435TIP3    H219312   1.624   1.589   3.545
 6436TIP3   OH219313   0.682   5.120   2.588
 6436TIP3    H119314   0.737   5.150   2.515
 6436TIP3    H219315   0.600   5.169   2.577
 6437TIP3   OH219316   1.247   4.541   0.585
 6437TIP3    H119317   1.197   4.461   0.567
 6437TIP3    H219318   1.188   4.594   0.639
 6438TIP3   OH219319   5.713   2.286   3.119
 6438TIP3    H119320   5.673   2.360   3.071
 6438TIP3    H219321   5.708   2.213   3.057
 6439TIP3   OH219322   5.148   3.928   0.788
 6439TIP3    H119323   5.199   3.902   0.864
 6439TIP3    H219324   5.186   4.012   0.762
 6440TIP3   OH219325   4.162   3.999   5.130
 6440TIP3    H119326   4.104   3.931   5.095
 6440TIP3    H219327   4.102   4.066   5.162
 6441TIP3   OH219328   3.954   4.654   3.714
 6441TIP3    H119329   4.026   4.660   3.777
 6441TIP3    H219330   3.997   4.659   3.629
 6442TIP3   OH219331   4.340   2.948   2.795
 6442TIP3    H119332   4.409   2.892   2.758
 6442TIP3    H219333   4.268   2.888   2.813
 6443TIP3   OH219334   0.613   0.606   0.660
 6443TIP3    H119335   0.654   0.683   0.621
 6443TIP3    H219336   0.638   0.534   0.603
 6444TIP3   OH219337   0.657   3.146   2.146
 6444TIP3    H119338   0.598   3.163   2.073
 6444TIP3    H219339   0.633   3.210   2.213
 6445TIP3   OH219340   1.039   5.148   1.553
 6445TIP3    H119341   0.955   5.181   1.586
 6445TIP3    H219342   1.022   5.129   1.461
 6446TIP3   OH219343   3.752   0.082   0.749
 6446TIP3    H119344   3.844   0.108   0.762
 6446TIP3    H219345   3.749   0.051   0.659
 6447TIP3   OH219346   4.777   4.590   1.929
 6447TIP3    H119347   4.725   4.585   1.848
 6447TIP3    H219348   4.776   4.501   1.963
 6448TIP3   OH219349   0.280   2.261   0.907
 6448TIP3    H119350   0.240   2.318   0.972
 6448TIP3    H219351   0.358   2.308   0.878
 6449TIP3   OH219352   3.523   3.056   2.391
 6449TIP3    H119353   3.608   3.021   2.367
 6449TIP3    H219354   3.461   3.013   2.332
 6450TIP3   OH219355   0.756   2.987   1.935
 6450TIP3    H119356   0.700   3.020   2.005
 6450TIP3    H219357   0.702   2.923   1.889
 6451TIP3   OH219358   1.782   2.065   2.577
 6451TIP3    H119359   1.870   2.033   2.556
 6451TIP3    H219360   1.749   2.004   2.643
 6452TIP3   OH219361   1.035   1.097   2.808
 6452TIP3    H119362   0.947   1.132   2.798
 6452TIP3    H219363   1.089   1.151   2.751
 6453TIP3   OH219364   0.255   5.943   1.754
 6453TIP3    H119365   0.247   6.037   1.741
 6453TIP3    H219366   0.269   5.933   1.848
 6454TIP3   OH219367   5.935   1.614   3.604
 6454TIP3    H119368   6.015   1.656   3.635
 6454TIP3    H219369   5.957   1.521   3.600
 6455TIP3   OH219370   2.829   2.816   4.731
 6455TIP3    H119371   2.895   2.766   4.682
 6455TIP3    H219372   2.746   2.786   4.695
 6456TIP3   OH219373   1.467   3.364   2.830
 6456TIP3    H119374   1.497   3.365   2.739
 6456TIP3    H219375   1.532   3.311   2.876
 6457TIP3   OH219376   3.127   2.265   3.789
 6457TIP3    H119377   3.158   2.338   3.736
 6457TIP3    H219378   3.035   2.255   3.766
 6458TIP3   OH219379   5.123   5.372   4.398
 6458TIP3    H119380   5.128   5.467   4.394
 6458TIP3    H219381   5.188   5.341   4.335
 6459TIP3   OH219382   5.173   4.774   2.523
 6459TIP3    H119383   5.119   4.777   2.602
 6459TIP3    H219384   5.241   4.839   2.537
 6460TIP3   OH219385   5.462   5.757   4.776
 6460TIP3    H119386   5.504   5.837   4.808
 6460TIP3    H219387   5.497   5.687   4.831
 6461TIP3   OH219388   4.715   0.980   0.035
 6461TIP3    H119389   4.805   0.988   0.003
 6461TIP3    H219390   4.717   0.904   0.093
 6462TIP3   OH219391   4.597   4.768   1.403
 6462TIP3    H119392   4.643   4.808   1.477
 6462TIP3    H219393   4.639   4.682   1.392
 6463TIP3   OH219394   2.406   5.653   3.400
 6463TIP3    H119395   2.405   5.563   3.434
 6463TIP3    H219396   2.318   5.686   3.419
 6464TIP3   OH219397   0.675   4.581   2.972
 6464TIP3    H119398   0.681   4.598   3.066
 6464TIP3    H219399   0.582   4.583   2.953
 6465TIP3   OH219400   5.956   0.868   4.850
 6465TIP3    H119401   6.018   0.797   4.865
 6465TIP3    H219402   5.950   0.914   4.934
 6466TIP3   OH219403   3.080   1.620   0.089
 6466TIP3    H119404   3.025   1.698   0.081
 6466TIP3    H219405   3.158   1.640   0.038
 6467TIP3   OH219406   2.496   2.994   0.854
 6467TIP3    H119407   2.450   2.965   0.933
 6467TIP3    H219408   2.576   3.035   0.887
 6468TIP3   OH219409   3.279   0.343   4.430
 6468TIP3    H119410   3.200   0.342   4.375
 6468TIP3    H219411   3.330   0.418   4.398
 6469TIP3   OH219412   0.518   2.960   1.325
 6469TIP3    H119413   0.532   3.051   1.351
 6469TIP3    H219414   0.457   2.926   1.390
 6470TIP3   OH219415   0.154   0.134   1.724
 6470TIP3    H119416   0.109   0.170   1.648
 6470TIP3    H219417   0.230   0.088   1.687
 6471TIP3   OH219418   2.299   1.122   3.692
 6471TIP3    H119419   2.212   1.153   3.717
 6471TIP3    H219420   2.284   1.034   3.657
 6472TIP3   OH219421   1.953   4.670   1.450
 6472TIP3    H119422   2.027   4.613   1.426
 6472TIP3    H219423   1.973   4.698   1.539
 6473TIP3   OH219424   0.827   2.637   1.826
 6473TIP3    H119425   0.903   2.598   1.782
 6473TIP3    H219426   0.853   2.645   1.917
 6474TIP3   OH219427   1.666   2.809   5.140
 6474TIP3    H119428   1.733   2.833   5.203
 6474TIP3    H219429   1.697   2.845   5.057
 6475TIP3   OH219430   5.437   3.584   3.423
 6475TIP3    H119431   5.368   3.647   3.404
 6475TIP3    H219432   5.427   3.517   3.355
 6476TIP3   OH219433   2.797   4.561   2.613
 6476TIP3    H119434   2.864   4.496   2.635
 6476TIP3    H219435   2.840   4.621   2.553
 6477TIP3   OH219436   1.361   4.201   3.465
 6477TIP3    H119437   1.316   4.119   3.442
 6477TIP3    H219438   1.325   4.225   3.550
 6478TIP3   OH219439   1.723   3.641   3.220
 6478TIP3    H119440   1.731   3.606   3.309
 6478TIP3    H219441   1.731   3.736   3.230
 6479TIP3   OH219442   2.711   2.536   1.129
 6479TIP3    H119443   2.766   2.591   1.186
 6479TIP3    H219444   2.686   2.594   1.057
 6480TIP3   OH219445   3.989   4.267   4.195
 6480TIP3    H119446   4.063   4.312   4.154
 6480TIP3    H219447   3.916   4.328   4.188
 6481TIP3   OH219448   0.741   4.047   3.216
 6481TIP3    H119449   0.771   4.072   3.129
 6481TIP3    H219450   0.675   4.112   3.238
 6482TIP3   OH219451   3.272   1.603   3.185
 6482TIP3    H119452   3.193   1.575   3.230
 6482TIP3    H219453   3.271   1.554   3.102
 6483TIP3   OH219454   5.225   1.035   2.585
 6483TIP3    H119455   5.259   1.105   2.529
 6483TIP3    H219456   5.254   0.955   2.542
 6484TIP3   OH219457   1.595   5.026   3.903
 6484TIP3    H119458   1.501   5.036   3.914
 6484TIP3    H219459   1.608   5.011   3.809
 6485TIP3   OH219460   2.406   3.326   2.891
 6485TIP3    H119461   2.426   3.297   2.802
 6485TIP3    H219462   2.398   3.421   2.884
 6486TIP3   OH219463   3.983   4.653   5.061
 6486TIP3    H119464   4.059   4.595   5.066
 6486TIP3    H219465   3.937   4.640   5.143
 6487TIP3   OH219466   6.202   1.732   3.177
 6487TIP3    H119467   6.149   1.671   3.228
 6487TIP3    H219468   6.289   1.728   3.218
 6488TIP3   OH219469   1.745   0.129   1.156
 6488TIP3    H119470   1.827   0.177   1.146
 6488TIP3    H219471   1.771   0.041   1.182
 6489TIP3   OH219472   1.300   4.956   3.893
 6489TIP3    H119473   1.242   4.931   3.820
 6489TIP3    H219474   1.253   5.027   3.937
 6490TIP3   OH219475   0.982   5.751   2.452
 6490TIP3    H119476   0.975   5.666   2.495
 6490TIP3    H219477   0.936   5.812   2.510
 6491TIP3   OH219478   2.226   4.211   3.213
 6491TIP3    H119479   2.151   4.156   3.193
 6491TIP3    H219480   2.301   4.165   3.176
 6492TIP3   OH219481   5.918   3.097   0.514
 6492TIP3    H119482   5.976   3.032   0.476
 6492TIP3    H219483   5.834   3.082   0.472
 6493TIP3   OH219484   2.664   2.920   5.098
 6493TIP3    H119485   2.607   2.948   5.027
 6493TIP3    H219486   2.651   2.985   5.167
 6494TIP3   OH219487   3.931   2.861   2.304
 6494TIP3    H119488   3.876   2.859   2.226
 6494TIP3    H219489   4.007   2.808   2.281
 6495TIP3   OH219490   1.621   0.133   5.100
 6495TIP3    H119491   1.567   0.092   5.032
 6495TIP3    H219492   1.572   0.120   5.181
 6496TIP3   OH219493   2.488   4.415   3.536
 6496TIP3    H119494   2.413   4.424   3.595
 6496TIP3    H219495   2.509   4.505   3.510
 6497TIP3   OH219496   4.044   2.001   0.270
 6497TIP3    H119497   3.996   2.002   0.353
 6497TIP3    H219498   3.975   1.993   0.203
 6498TIP3   OH219499   6.261   1.157   1.005
 6498TIP3    H119500   6.185   1.102   1.024
 6498TIP3    H219501   6.313   1.153   1.086
 6499TIP3   OH219502   4.686   5.306   4.341
 6499TIP3    H119503   4.723   5.226   4.304
 6499TIP3    H219504   4.698   5.296   4.436
 6500TIP3   OH219505   5.762   4.458   0.694
 6500TIP3    H119506   5.840   4.403   0.690
 6500TIP3    H219507   5.733   4.464   0.603
 6501TIP3   OH219508   2.085   5.221   2.910
 6501TIP3    H119509   2.169   5.201   2.952
 6501TIP3    H219510   2.019   5.195   2.975
 6502TIP3   OH219511   5.378   5.669   3.065
 6502TIP3    H119512   5.359   5.622   2.983
 6502TIP3    H219513   5.294   5.705   3.092
 6503TIP3   OH219514   1.555   1.532   4.560
 6503TIP3    H119515   1.504   1.611   4.545
 6503TIP3    H219516   1.642   1.563   4.583
 6504TIP3   OH219517   1.212   4.233   1.647
 6504TIP3    H119518   1.242   4.314   1.604
 6504TIP3    H219519   1.290   4.202   1.693
 6505TIP3   OH219520   2.648   5.823   3.056
 6505TIP3    H119521   2.634   5.894   3.119
 6505TIP3    H219522   2.698   5.865   2.985
 6506TIP3   OH219523   1.406   1.487   1.814
 6506TIP3    H119524   1.473   1.547   1.847
 6506TIP3    H219525   1.358   1.537   1.749
 6507TIP3   OH219526   5.618   5.899   2.050
 6507TIP3    H119527   5.529   5.927   2.030
 6507TIP3    H219528   5.648   5.960   2.118
 6508TIP3   OH219529   5.537   3.347   1.969
 6508TIP3    H119530   5.622   3.322   1.935
 6508TIP3    H219531   5.557   3.393   2.051
 6509TIP3   OH219532   6.199   3.473   3.279
 6509TIP3    H119533   6.150   3.543   3.323
 6509TIP3    H219534   6.175   3.482   3.187
 6510TIP3   OH219535   1.070   3.492   2.278
 6510TIP3    H119536   1.151   3.487   2.330
 6510TIP3    H219537   1.005   3.525   2.339
 6511TIP3   OH219538   5.739   4.936   0.891
 6511TIP3    H119539   5.811   4.998   0.896
 6511TIP3    H219540   5.773   4.864   0.838
 6512TIP3   OH219541   3.279   1.979   2.837
 6512TIP3    H119542   3.207   1.927   2.802
 6512TIP3    H219543   3.277   2.061   2.788
 6513TIP3   OH219544   3.404   3.234   2.104
 6513TIP3    H119545   3.495   3.203   2.096
 6513TIP3    H219546   3.371   3.235   2.014
 6514TIP3   OH219547   4.861   2.976   4.837
 6514TIP3    H119548   4.839   3.050   4.780
 6514TIP3    H219549   4.939   3.004   4.885
 6515TIP3   OH219550   0.657   4.929   2.273
 6515TIP3    H119551   0.706   4.986   2.214
 6515TIP3    H219552   0.599   4.988   2.320
 6516TIP3   OH219553   3.448   0.839   4.452
 6516TIP3    H119554   3.422   0.860   4.363
 6516TIP3    H219555   3.396   0.897   4.507
 6517TIP3   OH219556   6.160   1.176   0.376
 6517TIP3    H119557   6.227   1.120   0.337
 6517TIP3    H219558   6.203   1.217   0.451
 6518TIP3   OH219559   5.995   1.223   2.320
 6518TIP3    H119560   5.976   1.229   2.413
 6518TIP3    H219561   6.018   1.312   2.294
 6519TIP3   OH219562   2.041   4.923   4.438
 6519TIP3    H119563   2.069   4.831   4.433
 6519TIP3    H219564   2.122   4.973   4.433
 6520TIP3   OH219565   1.327   2.537   3.419
 6520TIP3    H119566   1.292   2.551   3.331
 6520TIP3    H219567   1.256   2.492   3.465
 6521TIP3   OH219568   4.608   3.807   4.235
 6521TIP3    H119569   4.550   3.789   4.161
 6521TIP3    H219570   4.556   3.861   4.294
 6522TIP3   OH219571   2.196   1.643   4.402
 6522TIP3    H119572   2.159   1.664   4.316
 6522TIP3    H219573   2.204   1.727   4.446
 6523TIP3   OH219574   6.195   1.729   1.678
 6523TIP3    H119575   6.225   1.644   1.711
 6523TIP3    H219576   6.269   1.763   1.627
 6524TIP3   OH219577   4.670   5.581   4.289
 6524TIP3    H119578   4.689   5.487   4.286
 6524TIP3    H219579   4.635   5.595   4.377
 6525TIP3   OH219580   0.629   5.029   4.156
 6525TIP3    H119581   0.553   4.994   4.203
 6525TIP3    H219582   0.704   4.992   4.202
 6526TIP3   OH219583   4.170   1.274   2.602
 6526TIP3    H119584   4.116   1.327   2.661
 6526TIP3    H219585   4.250   1.257   2.651
 6527TIP3   OH219586   2.490   0.128   0.199
 6527TIP3    H119587   2.449   0.092   0.120
 6527TIP3    H219588   2.456   0.075   0.271
 6528TIP3   OH219589   0.913   2.700   0.833
 6528TIP3    H119590   0.956   2.693   0.918
 6528TIP3    H219591   0.891   2.609   0.810
 6529TIP3   OH219592   1.374   4.008   4.594
 6529TIP3    H119593   1.381   3.964   4.678
 6529TIP3    H219594   1.373   4.102   4.615
 6530TIP3   OH219595   4.980   0.199   2.264
 6530TIP3    H119596   4.993   0.294   2.273
 6530TIP3    H219597   4.890   0.191   2.232
 6531TIP3   OH219598   6.213   0.541   3.736
 6531TIP3    H119599   6.299   0.540   3.779
 6531TIP3    H219600   6.150   0.546   3.808
 6532TIP3   OH219601   3.100   0.166   0.756
 6532TIP3    H119602   3.086   0.218   0.835
 6532TIP3    H219603   3.108   0.231   0.685
 6533TIP3   OH219604   0.283   1.734   1.872
 6533TIP3    H119605   0.326   1.650   1.887
 6533TIP3    H219606   0.324   1.793   1.935
 6534TIP3   OH219607   1.425   3.732   4.053
 6534TIP3    H119608   1.460   3.673   4.119
 6534TIP3    H219609   1.413   3.815   4.100
 6535TIP3   OH219610   0.752   4.724   2.432
 6535TIP3    H119611   0.736   4.792   2.366
 6535TIP3    H219612   0.844   4.701   2.420
 6536TIP3   OH219613   2.072   5.981   0.860
 6536TIP3    H119614   2.146   6.039   0.841
 6536TIP3    H219615   2.009   6.037   0.905
 6537TIP3   OH219616   6.131   2.172   1.204
 6537TIP3    H119617   6.178   2.097   1.167
 6537TIP3    H219618   6.111   2.146   1.294
 6538TIP3   OH219619   5.839   5.656   0.132
 6538TIP3    H119620   5.767   5.684   0.189
 6538TIP3    H219621   5.910   5.636   0.192
 6539TIP3   OH219622   5.063   2.033   2.163
 6539TIP3    H119623   5.114   1.958   2.133
 6539TIP3    H219624   4.991   2.040   2.101
 6540TIP3   OH219625   5.847   0.730   0.603
 6540TIP3    H119626   5.786   0.765   0.537
 6540TIP3    H219627   5.889   0.807   0.639
 6541TIP3   OH219628   0.167   3.623   3.300
 6541TIP3    H119629   0.188   3.637   3.208
 6541TIP3    H219630   0.095   3.684   3.318
 6542TIP3   OH219631   3.832   0.771   2.570
 6542TIP3    H119632   3.793   0.733   2.492
 6542TIP3    H219633   3.796   0.859   2.575
 6543TIP3   OH219634   0.290   4.502   3.036
 6543TIP3    H119635   0.359   4.443   3.004
 6543TIP3    H219636   0.222   4.498   2.969
 6544TIP3   OH219637   5.812   1.473   4.657
 6544TIP3    H119638   5.866   1.459   4.735
 6544TIP3    H219639   5.797   1.385   4.622
 6545TIP3   OH219640   4.859   5.630   1.811
 6545TIP3    H119641   4.922   5.602   1.745
 6545TIP3    H219642   4.782   5.576   1.795
 6546TIP3   OH219643   3.008   2.628   2.951
 6546TIP3    H119644   3.056   2.645   3.032
 6546TIP3    H219645   2.918   2.609   2.979
 6547TIP3   OH219646   0.151   4.808   1.450
 6547TIP3    H119647   0.186   4.789   1.536
 6547TIP3    H219648   0.069   4.759   1.444
 6548TIP3   OH219649   4.151   5.642   4.425
 6548TIP3    H119650   4.071   5.598   4.397
 6548TIP3    H219651   4.174   5.599   4.507
 6549TIP3   OH219652   0.028   2.516   3.181
 6549TIP3    H119653   0.062   2.581   3.120
 6549TIP3    H219654   0.091   2.444   3.178
 6550TIP3   OH219655   0.959   5.071   3.117
 6550TIP3    H119656   0.982   5.161   3.140
 6550TIP3    H219657   0.929   5.077   3.026
 6551TIP3   OH219658   3.661   0.582   0.662
 6551TIP3    H119659   3.695   0.529   0.590
 6551TIP3    H219660   3.628   0.662   0.620
 6552TIP3   OH219661   1.865   4.838   4.648
 6552TIP3    H119662   1.906   4.883   4.574
 6552TIP3    H219663   1.800   4.779   4.609
 6553TIP3   OH219664   3.842   5.859   4.900
 6553TIP3    H119665   3.812   5.944   4.868
 6553TIP3    H219666   3.765   5.802   4.895
 6554TIP3   OH219667   3.585   2.376   4.172
 6554TIP3    H119668   3.500   2.373   4.216
 6554TIP3    H219669   3.643   2.417   4.236
 6555TIP3   OH219670   4.288   5.033   1.441
 6555TIP3    H119671   4.339   5.004   1.366
 6555TIP3    H219672   4.211   5.075   1.403
 6556TIP3   OH219673   0.064   3.326   1.809
 6556TIP3    H119674   0.051   3.233   1.829
 6556TIP3    H219675   0.069   3.369   1.894
 6557TIP3   OH219676   5.785   1.887   3.247
 6557TIP3    H119677   5.756   1.828   3.316
 6557TIP3    H219678   5.726   1.870   3.174
 6558TIP3   OH219679   2.009   3.878   0.688
 6558TIP3    H119680   1.959   3.904   0.765
 6558TIP3    H219681   1.949   3.896   0.615
 6559TIP3   OH219682   5.265   1.838   0.863
 6559TIP3    H119683   5.175   1.824   0.832
 6559TIP3    H219684   5.311   1.873   0.787
 6560TIP3   OH219685   5.444   5.873   0.824
 6560TIP3    H119686   5.443   5.945   0.761
 6560TIP3    H219687   5.387   5.902   0.895
 6561TIP3   OH219688   2.043   1.732   3.363
 6561TIP3    H119689   1.970   1.694   3.411
 6561TIP3    H219690   2.047   1.683   3.281
 6562TIP3   OH219691   2.526   3.549   4.915
 6562TIP3    H119692   2.563   3.491   4.982
 6562TIP3    H219693   2.599   3.605   4.888
 6563TIP3   OH219694   5.071   2.361   5.134
 6563TIP3    H119695   5.073   2.438   5.077
 6563TIP3    H219696   5.161   2.328   5.132
 6564TIP3   OH219697   3.678   3.859   2.955
 6564TIP3    H119698   3.647   3.946   2.932
 6564TIP3    H219699   3.722   3.870   3.039
 6565TIP3   OH219700   3.175   4.618   3.649
 6565TIP3    H119701   3.151   4.554   3.583
 6565TIP3    H219702   3.199   4.696   3.600
 6566TIP3   OH219703   0.553   2.423   0.223
 6566TIP3    H119704   0.482   2.390   0.278
 6566TIP3    H219705   0.617   2.457   0.285
 6567TIP3   OH219706   1.531   5.458   4.166
 6567TIP3    H119707   1.513   5.533   4.109
 6567TIP3    H219708   1.579   5.495   4.240
 6568TIP3   OH219709   0.318   3.477   2.147
 6568TIP3    H119710   0.298   3.390   2.111
 6568TIP3    H219711   0.239   3.529   2.129
 6569TIP3   OH219712   6.068   4.060   1.848
 6569TIP3    H119713   6.089   4.012   1.769
 6569TIP3    H219714   6.024   3.997   1.905
 6570TIP3   OH219715   3.471   3.522   4.036
 6570TIP3    H119716   3.383   3.555   4.054
 6570TIP3    H219717   3.512   3.589   3.982
 6571TIP3   OH219718   3.808   2.600   0.367
 6571TIP3    H119719   3.736   2.630   0.423
 6571TIP3    H219720   3.824   2.672   0.308
 6572TIP3   OH219721   3.278   4.044   1.430
 6572TIP3    H119722   3.267   4.097   1.509
 6572TIP3    H219723   3.190   4.010   1.412
 6573TIP3   OH219724   1.674   4.194   1.520
 6573TIP3    H119725   1.719   4.112   1.542
 6573TIP3    H219726   1.719   4.227   1.442
 6574TIP3   OH219727   2.302   0.011   1.031
 6574TIP3    H119728   2.363   0.050   1.093
 6574TIP3    H219729   2.216   0.023   1.070
 6575TIP3   OH219730   1.933   0.362   0.870
 6575TIP3    H119731   1.914   0.426   0.939
 6575TIP3    H219732   2.020   0.329   0.892
 6576TIP3   OH219733   5.819   0.157   4.342
 6576TIP3    H119734   5.803   0.066   4.367
 6576TIP3    H219735   5.737   0.186   4.302
 6577TIP3   OH219736   0.801   5.355   4.765
 6577TIP3    H119737   0.723   5.336   4.816
 6577TIP3    H219738   0.812   5.278   4.709
 6578TIP3   OH219739   3.656   3.103   4.326
 6578TIP3    H119740   3.621   3.022   4.289
 6578TIP3    H219741   3.617   3.172   4.273
 6579TIP3   OH219742   1.299   2.633   0.908
 6579TIP3    H119743   1.322   2.701   0.845
 6579TIP3    H219744   1.271   2.681   0.986
 6580TIP3   OH219745   2.263   5.261   1.915
 6580TIP3    H119746   2.351   5.283   1.885
 6580TIP3    H219747   2.275   5.237   2.007
 6581TIP3   OH219748   0.928   2.938   1.113
 6581TIP3    H119749   0.933   2.863   1.172
 6581TIP3    H219750   0.962   3.012   1.164
 6582TIP3   OH219751   5.702   1.865   2.041
 6582TIP3    H119752   5.720   1.959   2.045
 6582TIP3    H219753   5.758   1.833   1.971
 6583TIP3   OH219754   2.534   4.595   1.027
 6583TIP3    H119755   2.448   4.623   1.061
 6583TIP3    H219756   2.516   4.512   0.984
 6584TIP3   OH219757   5.930   4.793   4.156
 6584TIP3    H119758   5.890   4.877   4.180
 6584TIP3    H219759   5.880   4.728   4.204
 6585TIP3   OH219760   5.348   4.868   1.212
 6585TIP3    H119761   5.398   4.887   1.132
 6585TIP3    H219762   5.318   4.953   1.243
 6586TIP3   OH219763   4.311   0.802   3.930
 6586TIP3    H119764   4.354   0.763   4.006
 6586TIP3    H219765   4.220   0.816   3.958
 6587TIP3   OH219766   2.972   3.728   4.718
 6587TIP3    H119767   2.895   3.779   4.742
 6587TIP3    H219768   3.043   3.764   4.772
 6588TIP3   OH219769   2.675   1.292   3.194
 6588TIP3    H119770   2.726   1.373   3.200
 6588TIP3    H219771   2.740   1.223   3.187
 6589TIP3   OH219772   1.049   5.552   3.888
 6589TIP3    H119773   1.032   5.484   3.822
 6589TIP3    H219774   1.136   5.585   3.866
 6590TIP3   OH219775   0.182   3.745   4.399
 6590TIP3    H119776   0.210   3.654   4.398
 6590TIP3    H219777   0.263   3.795   4.397
 6591TIP3   OH219778   6.224   5.739   1.127
 6591TIP3    H119779   6.271   5.656   1.132
 6591TIP3    H219780   6.209   5.764   1.218
 6592TIP3   OH219781   2.865   4.183   3.022
 6592TIP3    H119782   2.836   4.178   2.931
 6592TIP3    H219783   2.936   4.247   3.021
 6593TIP3   OH219784   5.666   2.437   0.763
 6593TIP3    H119785   5.712   2.505   0.715
 6593TIP3    H219786   5.734   2.376   0.791
 6594TIP3   OH219787   2.350   5.325   0.189
 6594TIP3    H119788   2.403   5.403   0.203
 6594TIP3    H219789   2.300   5.344   0.109
 6595TIP3   OH219790   0.017   3.354   2.837
 6595TIP3    H119791  -0.017   3.265   2.841
 6595TIP3    H219792   0.112   3.342   2.825
 6596TIP3   OH219793   3.953   1.820   4.041
 6596TIP3    H119794   3.998   1.904   4.028
 6596TIP3    H219795   3.925   1.821   4.132
 6597TIP3   OH219796   0.084   1.851   1.303
 6597TIP3    H119797   0.083   1.759   1.276
 6597TIP3    H219798   0.077   1.848   1.399
 6598TIP3   OH219799   5.277   4.697   0.586
 6598TIP3    H119800   5.244   4.783   0.558
 6598TIP3    H219801   5.351   4.680   0.528
 6599TIP3   OH219802   1.179   0.759   4.306
 6599TIP3    H119803   1.137   0.680   4.271
 6599TIP3    H219804   1.106   0.815   4.332
 6600TIP3   OH219805   3.693   5.077   4.711
 6600TIP3    H119806   3.719   4.990   4.743
 6600TIP3    H219807   3.686   5.066   4.616
 6601TIP3   OH219808   3.112   2.997   5.033
 6601TIP3    H119809   3.108   2.967   4.942
 6601TIP3    H219810   3.165   3.077   5.030
 6602TIP3   OH219811   4.864   3.472   2.505
 6602TIP3    H119812   4.779   3.427   2.496
 6602TIP3    H219813   4.841   3.565   2.510
 6603TIP3   OH219814   2.698   2.408   4.718
 6603TIP3    H119815   2.674   2.366   4.801
 6603TIP3    H219816   2.729   2.495   4.744
 6604TIP3   OH219817   1.598   1.150   2.701
 6604TIP3    H119818   1.606   1.161   2.796
 6604TIP3    H219819   1.619   1.236   2.665
 6605TIP3   OH219820   5.753   4.854   4.914
 6605TIP3    H119821   5.714   4.830   4.830
 6605TIP3    H219822   5.691   4.822   4.980
 6606TIP3   OH219823   5.692   2.053   1.619
 6606TIP3    H119824   5.655   2.071   1.705
 6606TIP3    H219825   5.628   2.089   1.557
 6607TIP3   OH219826   3.589   2.935   1.238
 6607TIP3    H119827   3.639   2.858   1.209
 6607TIP3    H219828   3.643   2.972   1.308
 6608TIP3   OH219829   2.763   5.872   3.522
 6608TIP3    H119830   2.771   5.779   3.500
 6608TIP3    H219831   2.831   5.915   3.471
 6609TIP3   OH219832   1.224   2.587   3.164
 6609TIP3    H119833   1.277   2.657   3.125
 6609TIP3    H219834   1.135   2.622   3.166
 6610TIP3   OH219835   3.504   5.046   0.223
 6610TIP3    H119836   3.553   5.128   0.226
 6610TIP3    H219837   3.426   5.063   0.277
 6611TIP3   OH219838   0.316   3.277   3.278
 6611TIP3    H119839   0.375   3.316   3.213
 6611TIP3    H219840   0.236   3.330   3.273
 6612TIP3   OH219841   0.889   5.936   2.630
 6612TIP3    H119842   0.794   5.924   2.629
 6612TIP3    H219843   0.902   6.027   2.655
 6613TIP3   OH219844   1.419   1.762   4.520
 6613TIP3    H119845   1.454   1.848   4.546
 6613TIP3    H219846   1.347   1.782   4.461
 6614TIP3   OH219847   5.528   2.053   2.895
 6614TIP3    H119848   5.583   1.983   2.931
 6614TIP3    H219849   5.498   2.019   2.811
 6615TIP3   OH219850   1.052   5.460   1.201
 6615TIP3    H119851   1.007   5.439   1.119
 6615TIP3    H219852   1.128   5.511   1.174
 6616TIP3   OH219853   2.946   1.780   3.219
 6616TIP3    H119854   2.887   1.850   3.248
 6616TIP3    H219855   3.001   1.764   3.295
 6617TIP3   OH219856   0.562   0.143   2.482
 6617TIP3    H119857   0.654   0.169   2.494
 6617TIP3    H219858   0.534   0.191   2.404
 6618TIP3   OH219859   0.044   2.915   1.834
 6618TIP3    H119860   0.048   2.987   1.772
 6618TIP3    H219861   0.134   2.883   1.841
 6619TIP3   OH219862   4.075   5.887   4.359
 6619TIP3    H119863   3.997   5.911   4.410
 6619TIP3    H219864   4.096   5.798   4.388
 6620TIP3   OH219865   5.683   4.437   0.449
 6620TIP3    H119866   5.641   4.518   0.420
 6620TIP3    H219867   5.749   4.419   0.382
 6621TIP3   OH219868   6.236   0.135   0.983
 6621TIP3    H119869   6.283   0.204   1.030
 6621TIP3    H219870   6.144   0.153   0.998
 6622TIP3   OH219871   0.421   0.464   2.486
 6622TIP3    H119872   0.441   0.436   2.397
 6622TIP3    H219873   0.366   0.542   2.474
 6623TIP3   OH219874   5.397   5.613   0.718
 6623TIP3    H119875   5.434   5.697   0.747
 6623TIP3    H219876   5.469   5.571   0.671
 6624TIP3   OH219877   1.893   2.661   4.742
 6624TIP3    H119878   1.817   2.711   4.771
 6624TIP3    H219879   1.963   2.687   4.802
 6625TIP3   OH219880   0.798   3.859   2.615
 6625TIP3    H119881   0.808   3.819   2.701
 6625TIP3    H219882   0.776   3.785   2.557
 6626TIP3   OH219883   1.221   1.384   0.217
 6626TIP3    H119884   1.132   1.404   0.244
 6626TIP3    H219885   1.239   1.297   0.254
 6627TIP3   OH219886   5.196   0.808   4.831
 6627TIP3    H119887   5.143   0.788   4.753
 6627TIP3    H219888   5.154   0.885   4.869
 6628TIP3   OH219889   5.477   4.353   0.744
 6628TIP3    H119890   5.569   4.365   0.719
 6628TIP3    H219891   5.451   4.438   0.780
 6629TIP3   OH219892   1.222   4.255   2.422
 6629TIP3    H119893   1.251   4.220   2.338
 6629TIP3    H219894   1.195   4.345   2.403
 6630TIP3   OH219895   4.514   0.573   2.621
 6630TIP3    H119896   4.596   0.533   2.651
 6630TIP3    H219897   4.515   0.661   2.658
 6631TIP3   OH219898   1.440   4.480   1.273
 6631TIP3    H119899   1.445   4.569   1.239
 6631TIP3    H219900   1.510   4.433   1.228
 6632TIP3   OH219901   3.165   4.250   2.060
 6632TIP3    H119902   3.070   4.250   2.044
 6632TIP3    H219903   3.203   4.285   1.979
 6633TIP3   OH219904   6.309   3.628   2.368
 6633TIP3    H119905   6.214   3.642   2.377
 6633TIP3    H219906   6.327   3.554   2.427
 6634TIP3   OH219907   5.365   1.809   0.085
 6634TIP3    H119908   5.452   1.776   0.063
 6634TIP3    H219909   5.324   1.739   0.136
 6635TIP3   OH219910   5.731   4.533   1.753
 6635TIP3    H119911   5.733   4.573   1.840
 6635TIP3    H219912   5.721   4.439   1.770
 6636TIP3   OH219913   5.461   0.053  -0.008
 6636TIP3    H119914   5.525   0.026   0.059
 6636TIP3    H219915   5.515   0.070  -0.086
 6637TIP3   OH219916   0.634   3.980   1.692
 6637TIP3    H119917   0.628   3.944   1.780
 6637TIP3    H219918   0.591   4.065   1.698
 6638TIP3   OH219919   0.914   5.956   2.212
 6638TIP3    H119920   0.962   6.027   2.255
 6638TIP3    H219921   0.924   5.881   2.271
 6639TIP3   OH219922   3.121   1.560   2.702
 6639TIP3    H119923   3.190   1.506   2.663
 6639TIP3    H219924   3.145   1.565   2.795
 6640TIP3   OH219925   0.408   0.068   0.715
 6640TIP3    H119926   0.360  -0.012   0.693
 6640TIP3    H219927   0.339   0.132   0.733
 6641TIP3   OH219928   1.717   5.071   0.386
 6641TIP3    H119929   1.808   5.056   0.412
 6641TIP3    H219930   1.670   5.083   0.469
 6642TIP3   OH219931   3.355   4.234   4.206
 6642TIP3    H119932   3.297   4.161   4.226
 6642TIP3    H219933   3.381   4.221   4.115
 6643TIP3   OH219934   1.423   0.111   0.892
 6643TIP3    H119935   1.376   0.075   0.967
 6643TIP3    H219936   1.468   0.188   0.927
 6644TIP3   OH219937   4.511   1.255   1.331
 6644TIP3    H119938   4.429   1.249   1.281
 6644TIP3    H219939   4.508   1.181   1.392
 6645TIP3   OH219940   2.107   3.903   4.254
 6645TIP3    H119941   2.201   3.886   4.265
 6645TIP3    H219942   2.067   3.863   4.331
   6.35541   5.99194   5.18917   0.00000   0.00000  -2.11848   0.00000  -2.11848  -2.99597
