* SET NIONTYPES = 1
* SET NPOSTOT = 68
* SET NNEGTOT = 65
* SET NIONTOT = 133
*  DATE:     6/13/26     13:31:32      CREATED BY USER: charmm-gui
*
       133  EXT
         1         1  SOD       SOD            14.6666458328      -18.5650042890       37.5265434236  IONS      1               1.0000000000
         2         2  SOD       SOD             7.5038019155      -38.1272152944      -34.7240460802  IONS      2               1.0000000000
         3         3  SOD       SOD            19.8343865143      -34.4265630916       47.1649937271  IONS      3               1.0000000000
         4         4  SOD       SOD           -43.9051013676       -6.1233687071      -33.5856328813  IONS      4               1.0000000000
         5         5  SOD       SOD            -5.3932352388      -47.2422253857       12.6104464152  IONS      5               1.0000000000
         6         6  SOD       SOD           -29.5997012963       26.6970412579       -2.3805289916  IONS      6               1.0000000000
         7         7  SOD       SOD           -17.9901935980        3.8153117055        0.7818897401  IONS      7               1.0000000000
         8         8  SOD       SOD           -16.5575925291      -33.8664532873      -34.3953838484  IONS      8               1.0000000000
         9         9  SOD       SOD             5.5205130916      -23.3024242378        9.7269545379  IONS      9               1.0000000000
        10        10  SOD       SOD            36.3815088387       26.1161242777        9.1798454758  IONS      10              1.0000000000
        11        11  SOD       SOD           -21.1781113846       -9.7825064697      -14.1213425686  IONS      11              1.0000000000
        12        12  SOD       SOD           -14.1817585934       35.2366717321      -42.2370757338  IONS      12              1.0000000000
        13        13  SOD       SOD             8.4209549780       24.3788107633        0.6525930023  IONS      13              1.0000000000
        14        14  SOD       SOD            39.5051773334       -5.7561142532        8.1851697368  IONS      14              1.0000000000
        15        15  SOD       SOD           -28.4239036483      -33.9433839448       34.9200795157  IONS      15              1.0000000000
        16        16  SOD       SOD            35.0948530841       31.4038941982      -17.5356144751  IONS      16              1.0000000000
        17        17  SOD       SOD            28.5123637929      -13.3841937127        6.4965263973  IONS      17              1.0000000000
        18        18  SOD       SOD           -35.8104232100       33.9957316391      -31.2388409795  IONS      18              1.0000000000
        19        19  SOD       SOD             9.6375879299        5.9373364686        1.3183177631  IONS      19              1.0000000000
        20        20  SOD       SOD            -0.0014379419       36.1072617469       47.6996732159  IONS      20              1.0000000000
        21        21  SOD       SOD            -0.4700852180      -49.1237124303        6.3945262199  IONS      21              1.0000000000
        22        22  SOD       SOD           -34.4439199129      -17.5180832942      -27.0357538862  IONS      22              1.0000000000
        23        23  SOD       SOD            17.5655484588       45.7529379304        1.6276974928  IONS      23              1.0000000000
        24        24  SOD       SOD            18.1419561708       -9.3452908541       28.9488090149  IONS      24              1.0000000000
        25        25  SOD       SOD            16.0002317443      -27.2804899874      -27.5853233381  IONS      25              1.0000000000
        26        26  SOD       SOD            -6.8541855053       -6.8829992240       45.8407279146  IONS      26              1.0000000000
        27        27  SOD       SOD            45.4624768389        7.7132302926        8.6503767683  IONS      27              1.0000000000
        28        28  SOD       SOD            33.7441046340      -34.6111502469      -32.2942584324  IONS      28              1.0000000000
        29        29  SOD       SOD            13.0964653550       -4.7051540620        3.3136278954  IONS      29              1.0000000000
        30        30  SOD       SOD           -33.4078667479       38.6043362057        7.6695160813  IONS      30              1.0000000000
        31        31  SOD       SOD           -27.6360757742       15.2760332499       34.3234791019  IONS      31              1.0000000000
        32        32  SOD       SOD            39.7827857177       24.8540893820      -12.9851796326  IONS      32              1.0000000000
        33        33  SOD       SOD           -33.9332195081       32.2942170211       23.5388621011  IONS      33              1.0000000000
        34        34  SOD       SOD             4.1317399091       13.5049353879      -24.3104392388  IONS      34              1.0000000000
        35        35  SOD       SOD            -9.3632258935       11.2077025674      -36.5834420998  IONS      35              1.0000000000
        36        36  SOD       SOD           -14.8484419125       13.9267727607      -14.6419119089  IONS      36              1.0000000000
        37        37  SOD       SOD            37.2285396716       14.2588762585        4.1624306949  IONS      37              1.0000000000
        38        38  SOD       SOD            -0.4595035721       -4.3885477161      -33.5899855478  IONS      38              1.0000000000
        39        39  SOD       SOD           -15.2180696994      -47.8271081554       24.6877159862  IONS      39              1.0000000000
        40        40  SOD       SOD           -44.8374216161        0.4069461004      -22.5043482007  IONS      40              1.0000000000
        41        41  SOD       SOD           -32.7462079399        9.7415434522      -45.7931150744  IONS      41              1.0000000000
        42        42  SOD       SOD           -18.3377609690        3.2688004722        5.7505041995  IONS      42              1.0000000000
        43        43  SOD       SOD            49.9839633223       -8.5496119757        9.5488931972  IONS      43              1.0000000000
        44        44  SOD       SOD            15.5402082053      -31.0701541698      -36.3486332796  IONS      44              1.0000000000
        45        45  SOD       SOD            21.9952327918      -31.2923976525      -25.1372639807  IONS      45              1.0000000000
        46        46  SOD       SOD           -14.6660656407      -23.2980537971       30.1479030966  IONS      46              1.0000000000
        47        47  SOD       SOD            19.2351379055      -13.8027516942      -27.0945204525  IONS      47              1.0000000000
        48        48  SOD       SOD           -27.7253562149       15.2444898120       26.0346758377  IONS      48              1.0000000000
        49        49  SOD       SOD           -46.0360536260      -14.7477502951       -2.8459548964  IONS      49              1.0000000000
        50        50  SOD       SOD            -9.7598457335      -16.9338692979      -28.3188380675  IONS      50              1.0000000000
        51        51  SOD       SOD           -28.7502754720       22.7534773716      -34.1698657459  IONS      51              1.0000000000
        52        52  SOD       SOD            14.5916907475      -46.5416715882      -11.7909176776  IONS      52              1.0000000000
        53        53  SOD       SOD            -0.2810115519       47.4219938796       32.6843690149  IONS      53              1.0000000000
        54        54  SOD       SOD            17.1722182734       14.7965377749       15.1711294441  IONS      54              1.0000000000
        55        55  SOD       SOD            11.0197103739       18.8000690582       50.3027212025  IONS      55              1.0000000000
        56        56  SOD       SOD           -21.5049630576      -17.3778795772      -24.2252127461  IONS      56              1.0000000000
        57        57  SOD       SOD            33.6646654298      -19.6422030213       10.7345353892  IONS      57              1.0000000000
        58        58  SOD       SOD            19.4880838896      -46.0005704911      -16.8860242803  IONS      58              1.0000000000
        59        59  SOD       SOD            23.9080614102      -31.4610674071       -6.5272832053  IONS      59              1.0000000000
        60        60  SOD       SOD            18.9678742158      -20.5807025675       -8.5969888338  IONS      60              1.0000000000
        61        61  SOD       SOD            12.0000667797       10.4657356890       24.2368641257  IONS      61              1.0000000000
        62        62  SOD       SOD            -7.2508347751      -28.7837477980       40.0078408974  IONS      62              1.0000000000
        63        63  SOD       SOD            -5.9133578049       21.8196316943       42.8133150987  IONS      63              1.0000000000
        64        64  SOD       SOD           -13.5335382100      -17.4757571219      -36.4858907791  IONS      64              1.0000000000
        65        65  SOD       SOD           -27.6049693214       29.1220938714       35.2822196496  IONS      65              1.0000000000
        66        66  SOD       SOD            -6.3660601182       21.2507409487       31.7210740049  IONS      66              1.0000000000
        67        67  SOD       SOD            46.8564081586       31.6186037270        1.5243659928  IONS      67              1.0000000000
        68        68  SOD       SOD            18.5145427876        8.6343109975       33.9398739699  IONS      68              1.0000000000
        69        69  CLA       CLA            46.0275302995       10.7621437296       10.0568841441  IONS      69             -1.0000000000
        70        70  CLA       CLA            30.0183944594       12.4817862291       23.1807869867  IONS      70             -1.0000000000
        71        71  CLA       CLA            25.5081698973       20.4194291267      -12.1565089516  IONS      71             -1.0000000000
        72        72  CLA       CLA           -29.6726939450       35.9111109165       -1.2050107340  IONS      72             -1.0000000000
        73        73  CLA       CLA           -19.9793213902       19.8219236559       21.6665843050  IONS      73             -1.0000000000
        74        74  CLA       CLA            15.8649442351      -43.5521481011       -0.9681280749  IONS      74             -1.0000000000
        75        75  CLA       CLA             0.7257267397      -43.9076282214      -39.9597501982  IONS      75             -1.0000000000
        76        76  CLA       CLA           -16.4231574904      -14.0711760279      -29.4394553542  IONS      76             -1.0000000000
        77        77  CLA       CLA            -9.0733555757       20.2368541598      -46.7337113919  IONS      77             -1.0000000000
        78        78  CLA       CLA           -39.9234613675      -18.7352379771       -5.0709816198  IONS      78             -1.0000000000
        79        79  CLA       CLA            31.0034429290      -37.7228552066      -24.7991670876  IONS      79             -1.0000000000
        80        80  CLA       CLA            -6.7941945684       33.6658313188      -42.4370992222  IONS      80             -1.0000000000
        81        81  CLA       CLA           -37.5847263381      -43.9957980338       -0.8672521774  IONS      81             -1.0000000000
        82        82  CLA       CLA            40.8267016143      -24.5571333075       19.4962945456  IONS      82             -1.0000000000
        83        83  CLA       CLA           -28.8544935056       -1.0409934409       26.3759621698  IONS      83             -1.0000000000
        84        84  CLA       CLA             6.8900537082       16.9154523779       51.1445781628  IONS      84             -1.0000000000
        85        85  CLA       CLA           -31.7486254400       41.5036245785       25.8999090269  IONS      85             -1.0000000000
        86        86  CLA       CLA             0.8877991444       -6.4356084569      -28.1932740317  IONS      86             -1.0000000000
        87        87  CLA       CLA            12.8998067463      -33.7668493791      -29.8085090829  IONS      87             -1.0000000000
        88        88  CLA       CLA            19.8766838045       17.1029431974       18.5434778734  IONS      88             -1.0000000000
        89        89  CLA       CLA           -20.9183788739       21.0910226296       45.3322283677  IONS      89             -1.0000000000
        90        90  CLA       CLA           -37.9000526248       11.2761084328       -2.8358536757  IONS      90             -1.0000000000
        91        91  CLA       CLA             1.6209168112       26.8353302848       47.6631693784  IONS      91             -1.0000000000
        92        92  CLA       CLA           -15.6188906979       -4.9383606290      -47.7741935217  IONS      92             -1.0000000000
        93        93  CLA       CLA             6.8382249633      -27.3790008467      -44.6104847344  IONS      93             -1.0000000000
        94        94  CLA       CLA           -26.5577190890        7.4226596264      -48.5543701201  IONS      94             -1.0000000000
        95        95  CLA       CLA            35.4745329507       -9.5933762980       12.9073910931  IONS      95             -1.0000000000
        96        96  CLA       CLA            38.3360763329       13.9170976171       32.2621206311  IONS      96             -1.0000000000
        97        97  CLA       CLA            -1.2981779631       25.1011046530       26.0562311397  IONS      97             -1.0000000000
        98        98  CLA       CLA           -14.4379461743      -36.8394967303      -15.0962769602  IONS      98             -1.0000000000
        99        99  CLA       CLA           -30.2266067729       22.3470788893       -0.4838323430  IONS      99             -1.0000000000
       100       100  CLA       CLA           -21.4459966783       16.0063947003       33.6953249704  IONS      100            -1.0000000000
       101       101  CLA       CLA           -53.7402248607      -25.1077993204        6.2892307596  IONS      101            -1.0000000000
       102       102  CLA       CLA           -29.1416757138      -24.9670978032        6.8633592320  IONS      102            -1.0000000000
       103       103  CLA       CLA           -26.4410078840       11.0295694952       -3.3393417055  IONS      103            -1.0000000000
       104       104  CLA       CLA            -0.9752293370       18.1631988651      -11.8850088009  IONS      104            -1.0000000000
       105       105  CLA       CLA             9.8357897754       13.4905551957        9.3580872625  IONS      105            -1.0000000000
       106       106  CLA       CLA           -33.4156896561       14.2996217104      -36.4295140310  IONS      106            -1.0000000000
       107       107  CLA       CLA            42.5477396444       -3.3300437355       31.9313416172  IONS      107            -1.0000000000
       108       108  CLA       CLA           -43.7595520020       24.9028718255      -22.8792992450  IONS      108            -1.0000000000
       109       109  CLA       CLA           -38.8733077101       28.1291470042      -25.3139506705  IONS      109            -1.0000000000
       110       110  CLA       CLA            28.3265925430       14.6003492557      -23.0853938844  IONS      110            -1.0000000000
       111       111  CLA       CLA           -28.6278318215       36.1158651419      -32.9430361003  IONS      111            -1.0000000000
       112       112  CLA       CLA            34.7785975767       16.3914405865       -3.2994432565  IONS      112            -1.0000000000
       113       113  CLA       CLA           -19.8724174726      -23.1832820892      -22.1106324604  IONS      113            -1.0000000000
       114       114  CLA       CLA           -37.5292735700       23.8183305198       23.4828033841  IONS      114            -1.0000000000
       115       115  CLA       CLA            31.5195133909       -1.2302255501       24.4173089581  IONS      115            -1.0000000000
       116       116  CLA       CLA            48.3828241890       28.4308885017        6.0427623009  IONS      116            -1.0000000000
       117       117  CLA       CLA            19.8358779718       36.0639936982       -0.7234458235  IONS      117            -1.0000000000
       118       118  CLA       CLA           -35.5836469738       -7.8599159795       15.4963847550  IONS      118            -1.0000000000
       119       119  CLA       CLA            22.7859993743        8.1715248602       35.5073446149  IONS      119            -1.0000000000
       120       120  CLA       CLA           -11.1805193914       12.3682488701      -28.6213770151  IONS      120            -1.0000000000
       121       121  CLA       CLA             9.8896656932      -41.0891296031      -27.4517193214  IONS      121            -1.0000000000
       122       122  CLA       CLA            32.7943074007       22.7502658999      -21.4190686207  IONS      122            -1.0000000000
       123       123  CLA       CLA           -23.2636079158       19.3892876603        9.1608085519  IONS      123            -1.0000000000
       124       124  CLA       CLA             7.4722340456       25.6223385678        7.1385009997  IONS      124            -1.0000000000
       125       125  CLA       CLA            40.5685469544       -7.2581899340       33.1064630720  IONS      125            -1.0000000000
       126       126  CLA       CLA           -12.8628585036      -18.4661404480      -31.6808513906  IONS      126            -1.0000000000
       127       127  CLA       CLA           -41.4522088020       33.2522473984        7.1421804406  IONS      127            -1.0000000000
       128       128  CLA       CLA            23.5697479598      -46.9693419528      -15.6956820075  IONS      128            -1.0000000000
       129       129  CLA       CLA             4.5837704481      -17.4459009718       31.5198668863  IONS      129            -1.0000000000
       130       130  CLA       CLA            38.5010798097       24.5612269289      -21.8475125985  IONS      130            -1.0000000000
       131       131  CLA       CLA            27.0207836048       -4.2905446720       53.3028574663  IONS      131            -1.0000000000
       132       132  CLA       CLA           -15.7078786112       29.8883721549      -44.4496633782  IONS      132            -1.0000000000
       133       133  CLA       CLA            32.9455651454      -36.2059815426       -8.3912569486  IONS      133            -1.0000000000
