;;
;; Generated by CHARMM-GUI FF-Converter
;;
;; Correspondance:
;; jul316@lehigh.edu or wonpil@lehigh.edu
;;
;; GROMACS topology file for PROA
;;


[ moleculetype ]
; name	nrexcl
PROA	     3

[ atoms ]
; nr	type	resnr	residu	atom	cgnr	charge	mass
     1        NH3      1      GLY      N      1    -0.300000    14.0070   ; qtot -0.300
     2         HC      1      GLY    HT1      2     0.330000     1.0080   ; qtot  0.030
     3         HC      1      GLY    HT2      3     0.330000     1.0080   ; qtot  0.360
     4         HC      1      GLY    HT3      4     0.330000     1.0080   ; qtot  0.690
     5        CT2      1      GLY     CA      5     0.130000    12.0110   ; qtot  0.820
     6        HB2      1      GLY    HA1      6     0.090000     1.0080   ; qtot  0.910
     7        HB2      1      GLY    HA2      7     0.090000     1.0080   ; qtot  1.000
     8          C      1      GLY      C      8     0.510000    12.0110   ; qtot  1.510
     9          O      1      GLY      O      9    -0.510000    15.9994   ; qtot  1.000
    10          N      2      PRO      N     10    -0.290000    14.0070   ; qtot  0.710
    11        CP3      2      PRO     CD     11     0.000000    12.0110   ; qtot  0.710
    12        HA2      2      PRO    HD1     12     0.090000     1.0080   ; qtot  0.800
    13        HA2      2      PRO    HD2     13     0.090000     1.0080   ; qtot  0.890
    14        CP1      2      PRO     CA     14     0.020000    12.0110   ; qtot  0.910
    15        HB1      2      PRO     HA     15     0.090000     1.0080   ; qtot  1.000
    16        CP2      2      PRO     CB     16    -0.180000    12.0110   ; qtot  0.820
    17        HA2      2      PRO    HB1     17     0.090000     1.0080   ; qtot  0.910
    18        HA2      2      PRO    HB2     18     0.090000     1.0080   ; qtot  1.000
    19        CP2      2      PRO     CG     19    -0.180000    12.0110   ; qtot  0.820
    20        HA2      2      PRO    HG1     20     0.090000     1.0080   ; qtot  0.910
    21        HA2      2      PRO    HG2     21     0.090000     1.0080   ; qtot  1.000
    22          C      2      PRO      C     22     0.510000    12.0110   ; qtot  1.510
    23          O      2      PRO      O     23    -0.510000    15.9994   ; qtot  1.000
    24        NH1      3      GLY      N     24    -0.470000    14.0070   ; qtot  0.530
    25          H      3      GLY     HN     25     0.310000     1.0080   ; qtot  0.840
    26        CT2      3      GLY     CA     26    -0.020000    12.0110   ; qtot  0.820
    27        HB2      3      GLY    HA1     27     0.090000     1.0080   ; qtot  0.910
    28        HB2      3      GLY    HA2     28     0.090000     1.0080   ; qtot  1.000
    29          C      3      GLY      C     29     0.510000    12.0110   ; qtot  1.510
    30          O      3      GLY      O     30    -0.510000    15.9994   ; qtot  1.000
    31        NH1      4      ASN      N     31    -0.470000    14.0070   ; qtot  0.530
    32          H      4      ASN     HN     32     0.310000     1.0080   ; qtot  0.840
    33        CT1      4      ASN     CA     33     0.070000    12.0110   ; qtot  0.910
    34        HB1      4      ASN     HA     34     0.090000     1.0080   ; qtot  1.000
    35        CT2      4      ASN     CB     35    -0.180000    12.0110   ; qtot  0.820
    36        HA2      4      ASN    HB1     36     0.090000     1.0080   ; qtot  0.910
    37        HA2      4      ASN    HB2     37     0.090000     1.0080   ; qtot  1.000
    38         CC      4      ASN     CG     38     0.550000    12.0110   ; qtot  1.550
    39          O      4      ASN    OD1     39    -0.550000    15.9994   ; qtot  1.000
    40        NH2      4      ASN    ND2     40    -0.620000    14.0070   ; qtot  0.380
    41          H      4      ASN   HD21     41     0.320000     1.0080   ; qtot  0.700
    42          H      4      ASN   HD22     42     0.300000     1.0080   ; qtot  1.000
    43          C      4      ASN      C     43     0.510000    12.0110   ; qtot  1.510
    44          O      4      ASN      O     44    -0.510000    15.9994   ; qtot  1.000
    45          N      5      PRO      N     45    -0.290000    14.0070   ; qtot  0.710
    46        CP3      5      PRO     CD     46     0.000000    12.0110   ; qtot  0.710
    47        HA2      5      PRO    HD1     47     0.090000     1.0080   ; qtot  0.800
    48        HA2      5      PRO    HD2     48     0.090000     1.0080   ; qtot  0.890
    49        CP1      5      PRO     CA     49     0.020000    12.0110   ; qtot  0.910
    50        HB1      5      PRO     HA     50     0.090000     1.0080   ; qtot  1.000
    51        CP2      5      PRO     CB     51    -0.180000    12.0110   ; qtot  0.820
    52        HA2      5      PRO    HB1     52     0.090000     1.0080   ; qtot  0.910
    53        HA2      5      PRO    HB2     53     0.090000     1.0080   ; qtot  1.000
    54        CP2      5      PRO     CG     54    -0.180000    12.0110   ; qtot  0.820
    55        HA2      5      PRO    HG1     55     0.090000     1.0080   ; qtot  0.910
    56        HA2      5      PRO    HG2     56     0.090000     1.0080   ; qtot  1.000
    57          C      5      PRO      C     57     0.510000    12.0110   ; qtot  1.510
    58          O      5      PRO      O     58    -0.510000    15.9994   ; qtot  1.000
    59        NH1      6      GLY      N     59    -0.470000    14.0070   ; qtot  0.530
    60          H      6      GLY     HN     60     0.310000     1.0080   ; qtot  0.840
    61        CT2      6      GLY     CA     61    -0.020000    12.0110   ; qtot  0.820
    62        HB2      6      GLY    HA1     62     0.090000     1.0080   ; qtot  0.910
    63        HB2      6      GLY    HA2     63     0.090000     1.0080   ; qtot  1.000
    64          C      6      GLY      C     64     0.510000    12.0110   ; qtot  1.510
    65          O      6      GLY      O     65    -0.510000    15.9994   ; qtot  1.000
    66          N      7      PRO      N     66    -0.290000    14.0070   ; qtot  0.710
    67        CP3      7      PRO     CD     67     0.000000    12.0110   ; qtot  0.710
    68        HA2      7      PRO    HD1     68     0.090000     1.0080   ; qtot  0.800
    69        HA2      7      PRO    HD2     69     0.090000     1.0080   ; qtot  0.890
    70        CP1      7      PRO     CA     70     0.020000    12.0110   ; qtot  0.910
    71        HB1      7      PRO     HA     71     0.090000     1.0080   ; qtot  1.000
    72        CP2      7      PRO     CB     72    -0.180000    12.0110   ; qtot  0.820
    73        HA2      7      PRO    HB1     73     0.090000     1.0080   ; qtot  0.910
    74        HA2      7      PRO    HB2     74     0.090000     1.0080   ; qtot  1.000
    75        CP2      7      PRO     CG     75    -0.180000    12.0110   ; qtot  0.820
    76        HA2      7      PRO    HG1     76     0.090000     1.0080   ; qtot  0.910
    77        HA2      7      PRO    HG2     77     0.090000     1.0080   ; qtot  1.000
    78          C      7      PRO      C     78     0.510000    12.0110   ; qtot  1.510
    79          O      7      PRO      O     79    -0.510000    15.9994   ; qtot  1.000
    80        NH1      8      GLY      N     80    -0.470000    14.0070   ; qtot  0.530
    81          H      8      GLY     HN     81     0.310000     1.0080   ; qtot  0.840
    82        CT2      8      GLY     CA     82    -0.020000    12.0110   ; qtot  0.820
    83        HB2      8      GLY    HA1     83     0.090000     1.0080   ; qtot  0.910
    84        HB2      8      GLY    HA2     84     0.090000     1.0080   ; qtot  1.000
    85          C      8      GLY      C     85     0.510000    12.0110   ; qtot  1.510
    86          O      8      GLY      O     86    -0.510000    15.9994   ; qtot  1.000
    87        NH1      9      ASN      N     87    -0.470000    14.0070   ; qtot  0.530
    88          H      9      ASN     HN     88     0.310000     1.0080   ; qtot  0.840
    89        CT1      9      ASN     CA     89     0.070000    12.0110   ; qtot  0.910
    90        HB1      9      ASN     HA     90     0.090000     1.0080   ; qtot  1.000
    91        CT2      9      ASN     CB     91    -0.180000    12.0110   ; qtot  0.820
    92        HA2      9      ASN    HB1     92     0.090000     1.0080   ; qtot  0.910
    93        HA2      9      ASN    HB2     93     0.090000     1.0080   ; qtot  1.000
    94         CC      9      ASN     CG     94     0.550000    12.0110   ; qtot  1.550
    95          O      9      ASN    OD1     95    -0.550000    15.9994   ; qtot  1.000
    96        NH2      9      ASN    ND2     96    -0.620000    14.0070   ; qtot  0.380
    97          H      9      ASN   HD21     97     0.320000     1.0080   ; qtot  0.700
    98          H      9      ASN   HD22     98     0.300000     1.0080   ; qtot  1.000
    99          C      9      ASN      C     99     0.510000    12.0110   ; qtot  1.510
   100          O      9      ASN      O    100    -0.510000    15.9994   ; qtot  1.000
   101          N     10      PRO      N    101    -0.290000    14.0070   ; qtot  0.710
   102        CP3     10      PRO     CD    102     0.000000    12.0110   ; qtot  0.710
   103        HA2     10      PRO    HD1    103     0.090000     1.0080   ; qtot  0.800
   104        HA2     10      PRO    HD2    104     0.090000     1.0080   ; qtot  0.890
   105        CP1     10      PRO     CA    105     0.020000    12.0110   ; qtot  0.910
   106        HB1     10      PRO     HA    106     0.090000     1.0080   ; qtot  1.000
   107        CP2     10      PRO     CB    107    -0.180000    12.0110   ; qtot  0.820
   108        HA2     10      PRO    HB1    108     0.090000     1.0080   ; qtot  0.910
   109        HA2     10      PRO    HB2    109     0.090000     1.0080   ; qtot  1.000
   110        CP2     10      PRO     CG    110    -0.180000    12.0110   ; qtot  0.820
   111        HA2     10      PRO    HG1    111     0.090000     1.0080   ; qtot  0.910
   112        HA2     10      PRO    HG2    112     0.090000     1.0080   ; qtot  1.000
   113          C     10      PRO      C    113     0.510000    12.0110   ; qtot  1.510
   114          O     10      PRO      O    114    -0.510000    15.9994   ; qtot  1.000
   115        NH1     11      GLY      N    115    -0.470000    14.0070   ; qtot  0.530
   116          H     11      GLY     HN    116     0.310000     1.0080   ; qtot  0.840
   117        CT2     11      GLY     CA    117    -0.020000    12.0110   ; qtot  0.820
   118        HB2     11      GLY    HA1    118     0.090000     1.0080   ; qtot  0.910
   119        HB2     11      GLY    HA2    119     0.090000     1.0080   ; qtot  1.000
   120          C     11      GLY      C    120     0.510000    12.0110   ; qtot  1.510
   121          O     11      GLY      O    121    -0.510000    15.9994   ; qtot  1.000
   122          N     12      PRO      N    122    -0.290000    14.0070   ; qtot  0.710
   123        CP3     12      PRO     CD    123     0.000000    12.0110   ; qtot  0.710
   124        HA2     12      PRO    HD1    124     0.090000     1.0080   ; qtot  0.800
   125        HA2     12      PRO    HD2    125     0.090000     1.0080   ; qtot  0.890
   126        CP1     12      PRO     CA    126     0.020000    12.0110   ; qtot  0.910
   127        HB1     12      PRO     HA    127     0.090000     1.0080   ; qtot  1.000
   128        CP2     12      PRO     CB    128    -0.180000    12.0110   ; qtot  0.820
   129        HA2     12      PRO    HB1    129     0.090000     1.0080   ; qtot  0.910
   130        HA2     12      PRO    HB2    130     0.090000     1.0080   ; qtot  1.000
   131        CP2     12      PRO     CG    131    -0.180000    12.0110   ; qtot  0.820
   132        HA2     12      PRO    HG1    132     0.090000     1.0080   ; qtot  0.910
   133        HA2     12      PRO    HG2    133     0.090000     1.0080   ; qtot  1.000
   134          C     12      PRO      C    134     0.510000    12.0110   ; qtot  1.510
   135          O     12      PRO      O    135    -0.510000    15.9994   ; qtot  1.000
   136        NH1     13      GLY      N    136    -0.470000    14.0070   ; qtot  0.530
   137          H     13      GLY     HN    137     0.310000     1.0080   ; qtot  0.840
   138        CT2     13      GLY     CA    138    -0.020000    12.0110   ; qtot  0.820
   139        HB2     13      GLY    HA1    139     0.090000     1.0080   ; qtot  0.910
   140        HB2     13      GLY    HA2    140     0.090000     1.0080   ; qtot  1.000
   141          C     13      GLY      C    141     0.510000    12.0110   ; qtot  1.510
   142          O     13      GLY      O    142    -0.510000    15.9994   ; qtot  1.000
   143        NH1     14      ASN      N    143    -0.470000    14.0070   ; qtot  0.530
   144          H     14      ASN     HN    144     0.310000     1.0080   ; qtot  0.840
   145        CT1     14      ASN     CA    145     0.070000    12.0110   ; qtot  0.910
   146        HB1     14      ASN     HA    146     0.090000     1.0080   ; qtot  1.000
   147        CT2     14      ASN     CB    147    -0.180000    12.0110   ; qtot  0.820
   148        HA2     14      ASN    HB1    148     0.090000     1.0080   ; qtot  0.910
   149        HA2     14      ASN    HB2    149     0.090000     1.0080   ; qtot  1.000
   150         CC     14      ASN     CG    150     0.550000    12.0110   ; qtot  1.550
   151          O     14      ASN    OD1    151    -0.550000    15.9994   ; qtot  1.000
   152        NH2     14      ASN    ND2    152    -0.620000    14.0070   ; qtot  0.380
   153          H     14      ASN   HD21    153     0.320000     1.0080   ; qtot  0.700
   154          H     14      ASN   HD22    154     0.300000     1.0080   ; qtot  1.000
   155          C     14      ASN      C    155     0.510000    12.0110   ; qtot  1.510
   156          O     14      ASN      O    156    -0.510000    15.9994   ; qtot  1.000
   157          N     15      PRO      N    157    -0.290000    14.0070   ; qtot  0.710
   158        CP3     15      PRO     CD    158     0.000000    12.0110   ; qtot  0.710
   159        HA2     15      PRO    HD1    159     0.090000     1.0080   ; qtot  0.800
   160        HA2     15      PRO    HD2    160     0.090000     1.0080   ; qtot  0.890
   161        CP1     15      PRO     CA    161     0.020000    12.0110   ; qtot  0.910
   162        HB1     15      PRO     HA    162     0.090000     1.0080   ; qtot  1.000
   163        CP2     15      PRO     CB    163    -0.180000    12.0110   ; qtot  0.820
   164        HA2     15      PRO    HB1    164     0.090000     1.0080   ; qtot  0.910
   165        HA2     15      PRO    HB2    165     0.090000     1.0080   ; qtot  1.000
   166        CP2     15      PRO     CG    166    -0.180000    12.0110   ; qtot  0.820
   167        HA2     15      PRO    HG1    167     0.090000     1.0080   ; qtot  0.910
   168        HA2     15      PRO    HG2    168     0.090000     1.0080   ; qtot  1.000
   169         CC     15      PRO      C    169     0.340000    12.0110   ; qtot  1.340
   170         OC     15      PRO    OT1    170    -0.670000    15.9994   ; qtot  0.670
   171         OC     15      PRO    OT2    171    -0.670000    15.9994   ; qtot -0.000

[ bonds ]
; ai	aj	funct	b0	Kb
    2     1     1
    3     1     1
    4     1     1
    1     5     1
    5     6     1
    5     7     1
    8     5     1
    9     8     1
    8    10     1
   10    11     1
   10    14     1
   12    11     1
   13    11     1
   19    11     1
   15    14     1
   14    16     1
   22    14     1
   17    16     1
   18    16     1
   16    19     1
   20    19     1
   21    19     1
   23    22     1
   22    24     1
   24    25     1
   24    26     1
   26    27     1
   26    28     1
   29    26     1
   30    29     1
   29    31     1
   31    32     1
   31    33     1
   33    34     1
   35    33     1
   43    33     1
   35    36     1
   35    37     1
   38    35     1
   38    39     1
   40    38     1
   40    41     1
   40    42     1
   43    44     1
   43    45     1
   45    46     1
   45    49     1
   47    46     1
   48    46     1
   54    46     1
   50    49     1
   49    51     1
   57    49     1
   52    51     1
   53    51     1
   51    54     1
   55    54     1
   56    54     1
   58    57     1
   57    59     1
   59    60     1
   59    61     1
   61    62     1
   61    63     1
   64    61     1
   65    64     1
   64    66     1
   66    67     1
   66    70     1
   68    67     1
   69    67     1
   75    67     1
   71    70     1
   70    72     1
   78    70     1
   73    72     1
   74    72     1
   72    75     1
   76    75     1
   77    75     1
   79    78     1
   78    80     1
   80    81     1
   80    82     1
   82    83     1
   82    84     1
   85    82     1
   86    85     1
   85    87     1
   87    88     1
   87    89     1
   89    90     1
   91    89     1
   99    89     1
   91    92     1
   91    93     1
   94    91     1
   94    95     1
   96    94     1
   96    97     1
   96    98     1
   99   100     1
   99   101     1
  101   102     1
  101   105     1
  103   102     1
  104   102     1
  110   102     1
  106   105     1
  105   107     1
  113   105     1
  108   107     1
  109   107     1
  107   110     1
  111   110     1
  112   110     1
  114   113     1
  113   115     1
  115   116     1
  115   117     1
  117   118     1
  117   119     1
  120   117     1
  121   120     1
  120   122     1
  122   123     1
  122   126     1
  124   123     1
  125   123     1
  131   123     1
  127   126     1
  126   128     1
  134   126     1
  129   128     1
  130   128     1
  128   131     1
  132   131     1
  133   131     1
  135   134     1
  134   136     1
  136   137     1
  136   138     1
  138   139     1
  138   140     1
  141   138     1
  142   141     1
  141   143     1
  143   144     1
  143   145     1
  145   146     1
  147   145     1
  155   145     1
  147   148     1
  147   149     1
  150   147     1
  150   151     1
  152   150     1
  152   153     1
  152   154     1
  155   156     1
  155   157     1
  157   158     1
  157   161     1
  159   158     1
  160   158     1
  166   158     1
  162   161     1
  161   163     1
  169   161     1
  164   163     1
  165   163     1
  163   166     1
  167   166     1
  168   166     1
  169   170     1
  169   171     1

[ pairs ]
; ai	aj	funct	c6	c12 or
; ai	aj	funct	fudgeQQ	q1	q2	c6	c12
    1     9     1
    1    10     1
    2     6     1
    2     7     1
    2     8     1
    3     6     1
    3     7     1
    3     8     1
    4     6     1
    4     7     1
    4     8     1
    5    11     1
    5    14     1
    6     9     1
    6    10     1
    7     9     1
    7    10     1
    8    12     1
    8    13     1
    8    15     1
    8    16     1
    8    19     1
    8    22     1
    9    11     1
    9    14     1
   10    17     1
   10    18     1
   10    20     1
   10    21     1
   10    23     1
   10    24     1
   11    15     1
   11    17     1
   11    18     1
   11    22     1
   12    14     1
   12    16     1
   12    20     1
   12    21     1
   13    14     1
   13    16     1
   13    20     1
   13    21     1
   14    20     1
   14    21     1
   14    25     1
   14    26     1
   15    17     1
   15    18     1
   15    19     1
   15    23     1
   15    24     1
   16    23     1
   16    24     1
   17    20     1
   17    21     1
   17    22     1
   18    20     1
   18    21     1
   18    22     1
   19    22     1
   22    27     1
   22    28     1
   22    29     1
   23    25     1
   23    26     1
   24    30     1
   24    31     1
   25    27     1
   25    28     1
   25    29     1
   26    32     1
   26    33     1
   27    30     1
   27    31     1
   28    30     1
   28    31     1
   29    34     1
   29    35     1
   29    43     1
   30    32     1
   30    33     1
   31    36     1
   31    37     1
   31    38     1
   31    44     1
   31    45     1
   32    34     1
   32    35     1
   32    43     1
   33    39     1
   33    40     1
   33    46     1
   33    49     1
   34    36     1
   34    37     1
   34    38     1
   34    44     1
   34    45     1
   35    41     1
   35    42     1
   35    44     1
   35    45     1
   36    39     1
   36    40     1
   36    43     1
   37    39     1
   37    40     1
   37    43     1
   38    43     1
   39    41     1
   39    42     1
   43    47     1
   43    48     1
   43    50     1
   43    51     1
   43    54     1
   43    57     1
   44    46     1
   44    49     1
   45    52     1
   45    53     1
   45    55     1
   45    56     1
   45    58     1
   45    59     1
   46    50     1
   46    52     1
   46    53     1
   46    57     1
   47    49     1
   47    51     1
   47    55     1
   47    56     1
   48    49     1
   48    51     1
   48    55     1
   48    56     1
   49    55     1
   49    56     1
   49    60     1
   49    61     1
   50    52     1
   50    53     1
   50    54     1
   50    58     1
   50    59     1
   51    58     1
   51    59     1
   52    55     1
   52    56     1
   52    57     1
   53    55     1
   53    56     1
   53    57     1
   54    57     1
   57    62     1
   57    63     1
   57    64     1
   58    60     1
   58    61     1
   59    65     1
   59    66     1
   60    62     1
   60    63     1
   60    64     1
   61    67     1
   61    70     1
   62    65     1
   62    66     1
   63    65     1
   63    66     1
   64    68     1
   64    69     1
   64    71     1
   64    72     1
   64    75     1
   64    78     1
   65    67     1
   65    70     1
   66    73     1
   66    74     1
   66    76     1
   66    77     1
   66    79     1
   66    80     1
   67    71     1
   67    73     1
   67    74     1
   67    78     1
   68    70     1
   68    72     1
   68    76     1
   68    77     1
   69    70     1
   69    72     1
   69    76     1
   69    77     1
   70    76     1
   70    77     1
   70    81     1
   70    82     1
   71    73     1
   71    74     1
   71    75     1
   71    79     1
   71    80     1
   72    79     1
   72    80     1
   73    76     1
   73    77     1
   73    78     1
   74    76     1
   74    77     1
   74    78     1
   75    78     1
   78    83     1
   78    84     1
   78    85     1
   79    81     1
   79    82     1
   80    86     1
   80    87     1
   81    83     1
   81    84     1
   81    85     1
   82    88     1
   82    89     1
   83    86     1
   83    87     1
   84    86     1
   84    87     1
   85    90     1
   85    91     1
   85    99     1
   86    88     1
   86    89     1
   87    92     1
   87    93     1
   87    94     1
   87   100     1
   87   101     1
   88    90     1
   88    91     1
   88    99     1
   89    95     1
   89    96     1
   89   102     1
   89   105     1
   90    92     1
   90    93     1
   90    94     1
   90   100     1
   90   101     1
   91    97     1
   91    98     1
   91   100     1
   91   101     1
   92    95     1
   92    96     1
   92    99     1
   93    95     1
   93    96     1
   93    99     1
   94    99     1
   95    97     1
   95    98     1
   99   103     1
   99   104     1
   99   106     1
   99   107     1
   99   110     1
   99   113     1
  100   102     1
  100   105     1
  101   108     1
  101   109     1
  101   111     1
  101   112     1
  101   114     1
  101   115     1
  102   106     1
  102   108     1
  102   109     1
  102   113     1
  103   105     1
  103   107     1
  103   111     1
  103   112     1
  104   105     1
  104   107     1
  104   111     1
  104   112     1
  105   111     1
  105   112     1
  105   116     1
  105   117     1
  106   108     1
  106   109     1
  106   110     1
  106   114     1
  106   115     1
  107   114     1
  107   115     1
  108   111     1
  108   112     1
  108   113     1
  109   111     1
  109   112     1
  109   113     1
  110   113     1
  113   118     1
  113   119     1
  113   120     1
  114   116     1
  114   117     1
  115   121     1
  115   122     1
  116   118     1
  116   119     1
  116   120     1
  117   123     1
  117   126     1
  118   121     1
  118   122     1
  119   121     1
  119   122     1
  120   124     1
  120   125     1
  120   127     1
  120   128     1
  120   131     1
  120   134     1
  121   123     1
  121   126     1
  122   129     1
  122   130     1
  122   132     1
  122   133     1
  122   135     1
  122   136     1
  123   127     1
  123   129     1
  123   130     1
  123   134     1
  124   126     1
  124   128     1
  124   132     1
  124   133     1
  125   126     1
  125   128     1
  125   132     1
  125   133     1
  126   132     1
  126   133     1
  126   137     1
  126   138     1
  127   129     1
  127   130     1
  127   131     1
  127   135     1
  127   136     1
  128   135     1
  128   136     1
  129   132     1
  129   133     1
  129   134     1
  130   132     1
  130   133     1
  130   134     1
  131   134     1
  134   139     1
  134   140     1
  134   141     1
  135   137     1
  135   138     1
  136   142     1
  136   143     1
  137   139     1
  137   140     1
  137   141     1
  138   144     1
  138   145     1
  139   142     1
  139   143     1
  140   142     1
  140   143     1
  141   146     1
  141   147     1
  141   155     1
  142   144     1
  142   145     1
  143   148     1
  143   149     1
  143   150     1
  143   156     1
  143   157     1
  144   146     1
  144   147     1
  144   155     1
  145   151     1
  145   152     1
  145   158     1
  145   161     1
  146   148     1
  146   149     1
  146   150     1
  146   156     1
  146   157     1
  147   153     1
  147   154     1
  147   156     1
  147   157     1
  148   151     1
  148   152     1
  148   155     1
  149   151     1
  149   152     1
  149   155     1
  150   155     1
  151   153     1
  151   154     1
  155   159     1
  155   160     1
  155   162     1
  155   163     1
  155   166     1
  155   169     1
  156   158     1
  156   161     1
  157   164     1
  157   165     1
  157   167     1
  157   168     1
  157   170     1
  157   171     1
  158   162     1
  158   164     1
  158   165     1
  158   169     1
  159   161     1
  159   163     1
  159   167     1
  159   168     1
  160   161     1
  160   163     1
  160   167     1
  160   168     1
  161   167     1
  161   168     1
  162   164     1
  162   165     1
  162   166     1
  162   170     1
  162   171     1
  163   170     1
  163   171     1
  164   167     1
  164   168     1
  164   169     1
  165   167     1
  165   168     1
  165   169     1
  166   169     1

[ angles ] 
; ai	aj	ak	funct	th0	cth	S0	Kub
    2     1     3     5
    2     1     4     5
    2     1     5     5
    3     1     4     5
    3     1     5     5
    4     1     5     5
    1     5     6     5
    1     5     7     5
    1     5     8     5
    6     5     7     5
    6     5     8     5
    7     5     8     5
    5     8     9     5
    5     8    10     5
    9     8    10     5
    8    10    11     5
    8    10    14     5
   11    10    14     5
   10    11    12     5
   10    11    13     5
   10    11    19     5
   12    11    13     5
   12    11    19     5
   13    11    19     5
   10    14    15     5
   10    14    16     5
   10    14    22     5
   15    14    16     5
   15    14    22     5
   16    14    22     5
   14    16    17     5
   14    16    18     5
   14    16    19     5
   17    16    18     5
   17    16    19     5
   18    16    19     5
   11    19    16     5
   11    19    20     5
   11    19    21     5
   16    19    20     5
   16    19    21     5
   20    19    21     5
   14    22    23     5
   14    22    24     5
   23    22    24     5
   22    24    25     5
   22    24    26     5
   25    24    26     5
   24    26    27     5
   24    26    28     5
   24    26    29     5
   27    26    28     5
   27    26    29     5
   28    26    29     5
   26    29    30     5
   26    29    31     5
   30    29    31     5
   29    31    32     5
   29    31    33     5
   32    31    33     5
   31    33    34     5
   31    33    35     5
   31    33    43     5
   34    33    35     5
   34    33    43     5
   35    33    43     5
   33    35    36     5
   33    35    37     5
   33    35    38     5
   36    35    37     5
   36    35    38     5
   37    35    38     5
   35    38    39     5
   35    38    40     5
   39    38    40     5
   38    40    41     5
   38    40    42     5
   41    40    42     5
   33    43    44     5
   33    43    45     5
   44    43    45     5
   43    45    46     5
   43    45    49     5
   46    45    49     5
   45    46    47     5
   45    46    48     5
   45    46    54     5
   47    46    48     5
   47    46    54     5
   48    46    54     5
   45    49    50     5
   45    49    51     5
   45    49    57     5
   50    49    51     5
   50    49    57     5
   51    49    57     5
   49    51    52     5
   49    51    53     5
   49    51    54     5
   52    51    53     5
   52    51    54     5
   53    51    54     5
   46    54    51     5
   46    54    55     5
   46    54    56     5
   51    54    55     5
   51    54    56     5
   55    54    56     5
   49    57    58     5
   49    57    59     5
   58    57    59     5
   57    59    60     5
   57    59    61     5
   60    59    61     5
   59    61    62     5
   59    61    63     5
   59    61    64     5
   62    61    63     5
   62    61    64     5
   63    61    64     5
   61    64    65     5
   61    64    66     5
   65    64    66     5
   64    66    67     5
   64    66    70     5
   67    66    70     5
   66    67    68     5
   66    67    69     5
   66    67    75     5
   68    67    69     5
   68    67    75     5
   69    67    75     5
   66    70    71     5
   66    70    72     5
   66    70    78     5
   71    70    72     5
   71    70    78     5
   72    70    78     5
   70    72    73     5
   70    72    74     5
   70    72    75     5
   73    72    74     5
   73    72    75     5
   74    72    75     5
   67    75    72     5
   67    75    76     5
   67    75    77     5
   72    75    76     5
   72    75    77     5
   76    75    77     5
   70    78    79     5
   70    78    80     5
   79    78    80     5
   78    80    81     5
   78    80    82     5
   81    80    82     5
   80    82    83     5
   80    82    84     5
   80    82    85     5
   83    82    84     5
   83    82    85     5
   84    82    85     5
   82    85    86     5
   82    85    87     5
   86    85    87     5
   85    87    88     5
   85    87    89     5
   88    87    89     5
   87    89    90     5
   87    89    91     5
   87    89    99     5
   90    89    91     5
   90    89    99     5
   91    89    99     5
   89    91    92     5
   89    91    93     5
   89    91    94     5
   92    91    93     5
   92    91    94     5
   93    91    94     5
   91    94    95     5
   91    94    96     5
   95    94    96     5
   94    96    97     5
   94    96    98     5
   97    96    98     5
   89    99   100     5
   89    99   101     5
  100    99   101     5
   99   101   102     5
   99   101   105     5
  102   101   105     5
  101   102   103     5
  101   102   104     5
  101   102   110     5
  103   102   104     5
  103   102   110     5
  104   102   110     5
  101   105   106     5
  101   105   107     5
  101   105   113     5
  106   105   107     5
  106   105   113     5
  107   105   113     5
  105   107   108     5
  105   107   109     5
  105   107   110     5
  108   107   109     5
  108   107   110     5
  109   107   110     5
  102   110   107     5
  102   110   111     5
  102   110   112     5
  107   110   111     5
  107   110   112     5
  111   110   112     5
  105   113   114     5
  105   113   115     5
  114   113   115     5
  113   115   116     5
  113   115   117     5
  116   115   117     5
  115   117   118     5
  115   117   119     5
  115   117   120     5
  118   117   119     5
  118   117   120     5
  119   117   120     5
  117   120   121     5
  117   120   122     5
  121   120   122     5
  120   122   123     5
  120   122   126     5
  123   122   126     5
  122   123   124     5
  122   123   125     5
  122   123   131     5
  124   123   125     5
  124   123   131     5
  125   123   131     5
  122   126   127     5
  122   126   128     5
  122   126   134     5
  127   126   128     5
  127   126   134     5
  128   126   134     5
  126   128   129     5
  126   128   130     5
  126   128   131     5
  129   128   130     5
  129   128   131     5
  130   128   131     5
  123   131   128     5
  123   131   132     5
  123   131   133     5
  128   131   132     5
  128   131   133     5
  132   131   133     5
  126   134   135     5
  126   134   136     5
  135   134   136     5
  134   136   137     5
  134   136   138     5
  137   136   138     5
  136   138   139     5
  136   138   140     5
  136   138   141     5
  139   138   140     5
  139   138   141     5
  140   138   141     5
  138   141   142     5
  138   141   143     5
  142   141   143     5
  141   143   144     5
  141   143   145     5
  144   143   145     5
  143   145   146     5
  143   145   147     5
  143   145   155     5
  146   145   147     5
  146   145   155     5
  147   145   155     5
  145   147   148     5
  145   147   149     5
  145   147   150     5
  148   147   149     5
  148   147   150     5
  149   147   150     5
  147   150   151     5
  147   150   152     5
  151   150   152     5
  150   152   153     5
  150   152   154     5
  153   152   154     5
  145   155   156     5
  145   155   157     5
  156   155   157     5
  155   157   158     5
  155   157   161     5
  158   157   161     5
  157   158   159     5
  157   158   160     5
  157   158   166     5
  159   158   160     5
  159   158   166     5
  160   158   166     5
  157   161   162     5
  157   161   163     5
  157   161   169     5
  162   161   163     5
  162   161   169     5
  163   161   169     5
  161   163   164     5
  161   163   165     5
  161   163   166     5
  164   163   165     5
  164   163   166     5
  165   163   166     5
  158   166   163     5
  158   166   167     5
  158   166   168     5
  163   166   167     5
  163   166   168     5
  167   166   168     5
  161   169   170     5
  161   169   171     5
  170   169   171     5

[ dihedrals ]
; ai	aj	ak	al	funct	phi0	cp	mult
    2     1     5     6     9
    2     1     5     7     9
    2     1     5     8     9
    3     1     5     6     9
    3     1     5     7     9
    3     1     5     8     9
    4     1     5     6     9
    4     1     5     7     9
    4     1     5     8     9
    1     5     8     9     9
    1     5     8    10     9
    6     5     8     9     9
    6     5     8    10     9
    7     5     8     9     9
    7     5     8    10     9
    5     8    10    11     9
    5     8    10    14     9
    9     8    10    11     9
    9     8    10    14     9
    8    10    11    12     9
    8    10    11    13     9
    8    10    11    19     9
   14    10    11    19     9
    8    10    14    15     9
    8    10    14    16     9
    8    10    14    22     9
   11    10    14    15     9
   11    10    14    16     9
   11    10    14    22     9
   12    11    10    14     9
   13    11    10    14     9
   10    11    19    16     9
   10    11    19    20     9
   10    11    19    21     9
   12    11    19    16     9
   12    11    19    20     9
   12    11    19    21     9
   13    11    19    16     9
   13    11    19    20     9
   13    11    19    21     9
   10    14    16    17     9
   10    14    16    18     9
   10    14    16    19     9
   15    14    16    17     9
   15    14    16    18     9
   15    14    16    19     9
   10    14    22    23     9
   10    14    22    24     9
   15    14    22    23     9
   15    14    22    24     9
   16    14    22    23     9
   16    14    22    24     9
   17    16    14    22     9
   18    16    14    22     9
   19    16    14    22     9
   14    16    19    20     9
   14    16    19    21     9
   17    16    19    20     9
   17    16    19    21     9
   18    16    19    20     9
   18    16    19    21     9
   11    19    16    14     9
   11    19    16    17     9
   11    19    16    18     9
   14    22    24    25     9
   14    22    24    26     9
   23    22    24    25     9
   23    22    24    26     9
   22    24    26    27     9
   22    24    26    28     9
   22    24    26    29     9
   25    24    26    27     9
   25    24    26    28     9
   25    24    26    29     9
   24    26    29    30     9
   24    26    29    31     9
   27    26    29    30     9
   27    26    29    31     9
   28    26    29    30     9
   28    26    29    31     9
   26    29    31    32     9
   26    29    31    33     9
   30    29    31    32     9
   30    29    31    33     9
   29    31    33    34     9
   29    31    33    35     9
   29    31    33    43     9
   32    31    33    34     9
   32    31    33    35     9
   32    31    33    43     9
   31    33    35    36     9
   31    33    35    37     9
   31    33    35    38     9
   34    33    35    36     9
   34    33    35    37     9
   34    33    35    38     9
   31    33    43    44     9
   31    33    43    45     9
   34    33    43    44     9
   34    33    43    45     9
   35    33    43    44     9
   35    33    43    45     9
   36    35    33    43     9
   37    35    33    43     9
   38    35    33    43     9
   33    35    38    39     9
   33    35    38    40     9
   36    35    38    39     9
   36    35    38    40     9
   37    35    38    39     9
   37    35    38    40     9
   35    38    40    41     9
   35    38    40    42     9
   39    38    40    41     9
   39    38    40    42     9
   33    43    45    46     9
   33    43    45    49     9
   44    43    45    46     9
   44    43    45    49     9
   43    45    46    47     9
   43    45    46    48     9
   43    45    46    54     9
   49    45    46    54     9
   43    45    49    50     9
   43    45    49    51     9
   43    45    49    57     9
   46    45    49    50     9
   46    45    49    51     9
   46    45    49    57     9
   47    46    45    49     9
   48    46    45    49     9
   45    46    54    51     9
   45    46    54    55     9
   45    46    54    56     9
   47    46    54    51     9
   47    46    54    55     9
   47    46    54    56     9
   48    46    54    51     9
   48    46    54    55     9
   48    46    54    56     9
   45    49    51    52     9
   45    49    51    53     9
   45    49    51    54     9
   50    49    51    52     9
   50    49    51    53     9
   50    49    51    54     9
   45    49    57    58     9
   45    49    57    59     9
   50    49    57    58     9
   50    49    57    59     9
   51    49    57    58     9
   51    49    57    59     9
   52    51    49    57     9
   53    51    49    57     9
   54    51    49    57     9
   49    51    54    55     9
   49    51    54    56     9
   52    51    54    55     9
   52    51    54    56     9
   53    51    54    55     9
   53    51    54    56     9
   46    54    51    49     9
   46    54    51    52     9
   46    54    51    53     9
   49    57    59    60     9
   49    57    59    61     9
   58    57    59    60     9
   58    57    59    61     9
   57    59    61    62     9
   57    59    61    63     9
   57    59    61    64     9
   60    59    61    62     9
   60    59    61    63     9
   60    59    61    64     9
   59    61    64    65     9
   59    61    64    66     9
   62    61    64    65     9
   62    61    64    66     9
   63    61    64    65     9
   63    61    64    66     9
   61    64    66    67     9
   61    64    66    70     9
   65    64    66    67     9
   65    64    66    70     9
   64    66    67    68     9
   64    66    67    69     9
   64    66    67    75     9
   70    66    67    75     9
   64    66    70    71     9
   64    66    70    72     9
   64    66    70    78     9
   67    66    70    71     9
   67    66    70    72     9
   67    66    70    78     9
   68    67    66    70     9
   69    67    66    70     9
   66    67    75    72     9
   66    67    75    76     9
   66    67    75    77     9
   68    67    75    72     9
   68    67    75    76     9
   68    67    75    77     9
   69    67    75    72     9
   69    67    75    76     9
   69    67    75    77     9
   66    70    72    73     9
   66    70    72    74     9
   66    70    72    75     9
   71    70    72    73     9
   71    70    72    74     9
   71    70    72    75     9
   66    70    78    79     9
   66    70    78    80     9
   71    70    78    79     9
   71    70    78    80     9
   72    70    78    79     9
   72    70    78    80     9
   73    72    70    78     9
   74    72    70    78     9
   75    72    70    78     9
   70    72    75    76     9
   70    72    75    77     9
   73    72    75    76     9
   73    72    75    77     9
   74    72    75    76     9
   74    72    75    77     9
   67    75    72    70     9
   67    75    72    73     9
   67    75    72    74     9
   70    78    80    81     9
   70    78    80    82     9
   79    78    80    81     9
   79    78    80    82     9
   78    80    82    83     9
   78    80    82    84     9
   78    80    82    85     9
   81    80    82    83     9
   81    80    82    84     9
   81    80    82    85     9
   80    82    85    86     9
   80    82    85    87     9
   83    82    85    86     9
   83    82    85    87     9
   84    82    85    86     9
   84    82    85    87     9
   82    85    87    88     9
   82    85    87    89     9
   86    85    87    88     9
   86    85    87    89     9
   85    87    89    90     9
   85    87    89    91     9
   85    87    89    99     9
   88    87    89    90     9
   88    87    89    91     9
   88    87    89    99     9
   87    89    91    92     9
   87    89    91    93     9
   87    89    91    94     9
   90    89    91    92     9
   90    89    91    93     9
   90    89    91    94     9
   87    89    99   100     9
   87    89    99   101     9
   90    89    99   100     9
   90    89    99   101     9
   91    89    99   100     9
   91    89    99   101     9
   92    91    89    99     9
   93    91    89    99     9
   94    91    89    99     9
   89    91    94    95     9
   89    91    94    96     9
   92    91    94    95     9
   92    91    94    96     9
   93    91    94    95     9
   93    91    94    96     9
   91    94    96    97     9
   91    94    96    98     9
   95    94    96    97     9
   95    94    96    98     9
   89    99   101   102     9
   89    99   101   105     9
  100    99   101   102     9
  100    99   101   105     9
   99   101   102   103     9
   99   101   102   104     9
   99   101   102   110     9
  105   101   102   110     9
   99   101   105   106     9
   99   101   105   107     9
   99   101   105   113     9
  102   101   105   106     9
  102   101   105   107     9
  102   101   105   113     9
  103   102   101   105     9
  104   102   101   105     9
  101   102   110   107     9
  101   102   110   111     9
  101   102   110   112     9
  103   102   110   107     9
  103   102   110   111     9
  103   102   110   112     9
  104   102   110   107     9
  104   102   110   111     9
  104   102   110   112     9
  101   105   107   108     9
  101   105   107   109     9
  101   105   107   110     9
  106   105   107   108     9
  106   105   107   109     9
  106   105   107   110     9
  101   105   113   114     9
  101   105   113   115     9
  106   105   113   114     9
  106   105   113   115     9
  107   105   113   114     9
  107   105   113   115     9
  108   107   105   113     9
  109   107   105   113     9
  110   107   105   113     9
  105   107   110   111     9
  105   107   110   112     9
  108   107   110   111     9
  108   107   110   112     9
  109   107   110   111     9
  109   107   110   112     9
  102   110   107   105     9
  102   110   107   108     9
  102   110   107   109     9
  105   113   115   116     9
  105   113   115   117     9
  114   113   115   116     9
  114   113   115   117     9
  113   115   117   118     9
  113   115   117   119     9
  113   115   117   120     9
  116   115   117   118     9
  116   115   117   119     9
  116   115   117   120     9
  115   117   120   121     9
  115   117   120   122     9
  118   117   120   121     9
  118   117   120   122     9
  119   117   120   121     9
  119   117   120   122     9
  117   120   122   123     9
  117   120   122   126     9
  121   120   122   123     9
  121   120   122   126     9
  120   122   123   124     9
  120   122   123   125     9
  120   122   123   131     9
  126   122   123   131     9
  120   122   126   127     9
  120   122   126   128     9
  120   122   126   134     9
  123   122   126   127     9
  123   122   126   128     9
  123   122   126   134     9
  124   123   122   126     9
  125   123   122   126     9
  122   123   131   128     9
  122   123   131   132     9
  122   123   131   133     9
  124   123   131   128     9
  124   123   131   132     9
  124   123   131   133     9
  125   123   131   128     9
  125   123   131   132     9
  125   123   131   133     9
  122   126   128   129     9
  122   126   128   130     9
  122   126   128   131     9
  127   126   128   129     9
  127   126   128   130     9
  127   126   128   131     9
  122   126   134   135     9
  122   126   134   136     9
  127   126   134   135     9
  127   126   134   136     9
  128   126   134   135     9
  128   126   134   136     9
  129   128   126   134     9
  130   128   126   134     9
  131   128   126   134     9
  126   128   131   132     9
  126   128   131   133     9
  129   128   131   132     9
  129   128   131   133     9
  130   128   131   132     9
  130   128   131   133     9
  123   131   128   126     9
  123   131   128   129     9
  123   131   128   130     9
  126   134   136   137     9
  126   134   136   138     9
  135   134   136   137     9
  135   134   136   138     9
  134   136   138   139     9
  134   136   138   140     9
  134   136   138   141     9
  137   136   138   139     9
  137   136   138   140     9
  137   136   138   141     9
  136   138   141   142     9
  136   138   141   143     9
  139   138   141   142     9
  139   138   141   143     9
  140   138   141   142     9
  140   138   141   143     9
  138   141   143   144     9
  138   141   143   145     9
  142   141   143   144     9
  142   141   143   145     9
  141   143   145   146     9
  141   143   145   147     9
  141   143   145   155     9
  144   143   145   146     9
  144   143   145   147     9
  144   143   145   155     9
  143   145   147   148     9
  143   145   147   149     9
  143   145   147   150     9
  146   145   147   148     9
  146   145   147   149     9
  146   145   147   150     9
  143   145   155   156     9
  143   145   155   157     9
  146   145   155   156     9
  146   145   155   157     9
  147   145   155   156     9
  147   145   155   157     9
  148   147   145   155     9
  149   147   145   155     9
  150   147   145   155     9
  145   147   150   151     9
  145   147   150   152     9
  148   147   150   151     9
  148   147   150   152     9
  149   147   150   151     9
  149   147   150   152     9
  147   150   152   153     9
  147   150   152   154     9
  151   150   152   153     9
  151   150   152   154     9
  145   155   157   158     9
  145   155   157   161     9
  156   155   157   158     9
  156   155   157   161     9
  155   157   158   159     9
  155   157   158   160     9
  155   157   158   166     9
  161   157   158   166     9
  155   157   161   162     9
  155   157   161   163     9
  155   157   161   169     9
  158   157   161   162     9
  158   157   161   163     9
  158   157   161   169     9
  159   158   157   161     9
  160   158   157   161     9
  157   158   166   163     9
  157   158   166   167     9
  157   158   166   168     9
  159   158   166   163     9
  159   158   166   167     9
  159   158   166   168     9
  160   158   166   163     9
  160   158   166   167     9
  160   158   166   168     9
  157   161   163   164     9
  157   161   163   165     9
  157   161   163   166     9
  162   161   163   164     9
  162   161   163   165     9
  162   161   163   166     9
  157   161   169   170     9
  157   161   169   171     9
  162   161   169   170     9
  162   161   169   171     9
  163   161   169   170     9
  163   161   169   171     9
  164   163   161   169     9
  165   163   161   169     9
  166   163   161   169     9
  161   163   166   167     9
  161   163   166   168     9
  164   163   166   167     9
  164   163   166   168     9
  165   163   166   167     9
  165   163   166   168     9
  158   166   163   161     9
  158   166   163   164     9
  158   166   163   165     9

[ dihedrals ]
; ai	aj	ak	al	funct	q0	cq
    8     5    10     9     2
   10     8    14    11     2
   22    14    24    23     2
   24    22    26    25     2
   29    26    31    30     2
   31    29    33    32     2
   38    35    40    39     2
   38    40    35    39     2
   40    38    42    41     2
   40    38    41    42     2
   43    33    45    44     2
   45    43    49    46     2
   57    49    59    58     2
   59    57    61    60     2
   64    61    66    65     2
   66    64    70    67     2
   78    70    80    79     2
   80    78    82    81     2
   85    82    87    86     2
   87    85    89    88     2
   94    91    96    95     2
   94    96    91    95     2
   96    94    98    97     2
   96    94    97    98     2
   99    89   101   100     2
  101    99   105   102     2
  113   105   115   114     2
  115   113   117   116     2
  120   117   122   121     2
  122   120   126   123     2
  134   126   136   135     2
  136   134   138   137     2
  141   138   143   142     2
  143   141   145   144     2
  150   147   152   151     2
  150   152   147   151     2
  152   150   154   153     2
  152   150   153   154     2
  155   145   157   156     2
  157   155   161   158     2
  169   161   171   170     2

[ cmap ] 
; ai	aj	ak	al	am	funct
    8    10    14    22    24     1
   22    24    26    29    31     1
   29    31    33    43    45     1
   43    45    49    57    59     1
   57    59    61    64    66     1
   64    66    70    78    80     1
   78    80    82    85    87     1
   85    87    89    99   101     1
   99   101   105   113   115     1
  113   115   117   120   122     1
  120   122   126   134   136     1
  134   136   138   141   143     1
  141   143   145   155   157     1

#ifdef POSRES
[ position_restraints ]
    1     1    POSRES_FC_BB    POSRES_FC_BB    POSRES_FC_BB   
    5     1    POSRES_FC_BB    POSRES_FC_BB    POSRES_FC_BB   
    8     1    POSRES_FC_BB    POSRES_FC_BB    POSRES_FC_BB   
    9     1    POSRES_FC_BB    POSRES_FC_BB    POSRES_FC_BB   
   10     1    POSRES_FC_BB    POSRES_FC_BB    POSRES_FC_BB   
   11     1    POSRES_FC_SC    POSRES_FC_SC    POSRES_FC_SC   
   14     1    POSRES_FC_BB    POSRES_FC_BB    POSRES_FC_BB   
   16     1    POSRES_FC_SC    POSRES_FC_SC    POSRES_FC_SC   
   19     1    POSRES_FC_SC    POSRES_FC_SC    POSRES_FC_SC   
   22     1    POSRES_FC_BB    POSRES_FC_BB    POSRES_FC_BB   
   23     1    POSRES_FC_BB    POSRES_FC_BB    POSRES_FC_BB   
   24     1    POSRES_FC_BB    POSRES_FC_BB    POSRES_FC_BB   
   26     1    POSRES_FC_BB    POSRES_FC_BB    POSRES_FC_BB   
   29     1    POSRES_FC_BB    POSRES_FC_BB    POSRES_FC_BB   
   30     1    POSRES_FC_BB    POSRES_FC_BB    POSRES_FC_BB   
   31     1    POSRES_FC_BB    POSRES_FC_BB    POSRES_FC_BB   
   33     1    POSRES_FC_BB    POSRES_FC_BB    POSRES_FC_BB   
   35     1    POSRES_FC_SC    POSRES_FC_SC    POSRES_FC_SC   
   38     1    POSRES_FC_SC    POSRES_FC_SC    POSRES_FC_SC   
   39     1    POSRES_FC_SC    POSRES_FC_SC    POSRES_FC_SC   
   40     1    POSRES_FC_SC    POSRES_FC_SC    POSRES_FC_SC   
   43     1    POSRES_FC_BB    POSRES_FC_BB    POSRES_FC_BB   
   44     1    POSRES_FC_BB    POSRES_FC_BB    POSRES_FC_BB   
   45     1    POSRES_FC_BB    POSRES_FC_BB    POSRES_FC_BB   
   46     1    POSRES_FC_SC    POSRES_FC_SC    POSRES_FC_SC   
   49     1    POSRES_FC_BB    POSRES_FC_BB    POSRES_FC_BB   
   51     1    POSRES_FC_SC    POSRES_FC_SC    POSRES_FC_SC   
   54     1    POSRES_FC_SC    POSRES_FC_SC    POSRES_FC_SC   
   57     1    POSRES_FC_BB    POSRES_FC_BB    POSRES_FC_BB   
   58     1    POSRES_FC_BB    POSRES_FC_BB    POSRES_FC_BB   
   59     1    POSRES_FC_BB    POSRES_FC_BB    POSRES_FC_BB   
   61     1    POSRES_FC_BB    POSRES_FC_BB    POSRES_FC_BB   
   64     1    POSRES_FC_BB    POSRES_FC_BB    POSRES_FC_BB   
   65     1    POSRES_FC_BB    POSRES_FC_BB    POSRES_FC_BB   
   66     1    POSRES_FC_BB    POSRES_FC_BB    POSRES_FC_BB   
   67     1    POSRES_FC_SC    POSRES_FC_SC    POSRES_FC_SC   
   70     1    POSRES_FC_BB    POSRES_FC_BB    POSRES_FC_BB   
   72     1    POSRES_FC_SC    POSRES_FC_SC    POSRES_FC_SC   
   75     1    POSRES_FC_SC    POSRES_FC_SC    POSRES_FC_SC   
   78     1    POSRES_FC_BB    POSRES_FC_BB    POSRES_FC_BB   
   79     1    POSRES_FC_BB    POSRES_FC_BB    POSRES_FC_BB   
   80     1    POSRES_FC_BB    POSRES_FC_BB    POSRES_FC_BB   
   82     1    POSRES_FC_BB    POSRES_FC_BB    POSRES_FC_BB   
   85     1    POSRES_FC_BB    POSRES_FC_BB    POSRES_FC_BB   
   86     1    POSRES_FC_BB    POSRES_FC_BB    POSRES_FC_BB   
   87     1    POSRES_FC_BB    POSRES_FC_BB    POSRES_FC_BB   
   89     1    POSRES_FC_BB    POSRES_FC_BB    POSRES_FC_BB   
   91     1    POSRES_FC_SC    POSRES_FC_SC    POSRES_FC_SC   
   94     1    POSRES_FC_SC    POSRES_FC_SC    POSRES_FC_SC   
   95     1    POSRES_FC_SC    POSRES_FC_SC    POSRES_FC_SC   
   96     1    POSRES_FC_SC    POSRES_FC_SC    POSRES_FC_SC   
   99     1    POSRES_FC_BB    POSRES_FC_BB    POSRES_FC_BB   
  100     1    POSRES_FC_BB    POSRES_FC_BB    POSRES_FC_BB   
  101     1    POSRES_FC_BB    POSRES_FC_BB    POSRES_FC_BB   
  102     1    POSRES_FC_SC    POSRES_FC_SC    POSRES_FC_SC   
  105     1    POSRES_FC_BB    POSRES_FC_BB    POSRES_FC_BB   
  107     1    POSRES_FC_SC    POSRES_FC_SC    POSRES_FC_SC   
  110     1    POSRES_FC_SC    POSRES_FC_SC    POSRES_FC_SC   
  113     1    POSRES_FC_BB    POSRES_FC_BB    POSRES_FC_BB   
  114     1    POSRES_FC_BB    POSRES_FC_BB    POSRES_FC_BB   
  115     1    POSRES_FC_BB    POSRES_FC_BB    POSRES_FC_BB   
  117     1    POSRES_FC_BB    POSRES_FC_BB    POSRES_FC_BB   
  120     1    POSRES_FC_BB    POSRES_FC_BB    POSRES_FC_BB   
  121     1    POSRES_FC_BB    POSRES_FC_BB    POSRES_FC_BB   
  122     1    POSRES_FC_BB    POSRES_FC_BB    POSRES_FC_BB   
  123     1    POSRES_FC_SC    POSRES_FC_SC    POSRES_FC_SC   
  126     1    POSRES_FC_BB    POSRES_FC_BB    POSRES_FC_BB   
  128     1    POSRES_FC_SC    POSRES_FC_SC    POSRES_FC_SC   
  131     1    POSRES_FC_SC    POSRES_FC_SC    POSRES_FC_SC   
  134     1    POSRES_FC_BB    POSRES_FC_BB    POSRES_FC_BB   
  135     1    POSRES_FC_BB    POSRES_FC_BB    POSRES_FC_BB   
  136     1    POSRES_FC_BB    POSRES_FC_BB    POSRES_FC_BB   
  138     1    POSRES_FC_BB    POSRES_FC_BB    POSRES_FC_BB   
  141     1    POSRES_FC_BB    POSRES_FC_BB    POSRES_FC_BB   
  142     1    POSRES_FC_BB    POSRES_FC_BB    POSRES_FC_BB   
  143     1    POSRES_FC_BB    POSRES_FC_BB    POSRES_FC_BB   
  145     1    POSRES_FC_BB    POSRES_FC_BB    POSRES_FC_BB   
  147     1    POSRES_FC_SC    POSRES_FC_SC    POSRES_FC_SC   
  150     1    POSRES_FC_SC    POSRES_FC_SC    POSRES_FC_SC   
  151     1    POSRES_FC_SC    POSRES_FC_SC    POSRES_FC_SC   
  152     1    POSRES_FC_SC    POSRES_FC_SC    POSRES_FC_SC   
  155     1    POSRES_FC_BB    POSRES_FC_BB    POSRES_FC_BB   
  156     1    POSRES_FC_BB    POSRES_FC_BB    POSRES_FC_BB   
  157     1    POSRES_FC_BB    POSRES_FC_BB    POSRES_FC_BB   
  158     1    POSRES_FC_SC    POSRES_FC_SC    POSRES_FC_SC   
  161     1    POSRES_FC_BB    POSRES_FC_BB    POSRES_FC_BB   
  163     1    POSRES_FC_SC    POSRES_FC_SC    POSRES_FC_SC   
  166     1    POSRES_FC_SC    POSRES_FC_SC    POSRES_FC_SC   
  169     1    POSRES_FC_BB    POSRES_FC_BB    POSRES_FC_BB   
  170     1    POSRES_FC_SC    POSRES_FC_SC    POSRES_FC_SC   
  171     1    POSRES_FC_SC    POSRES_FC_SC    POSRES_FC_SC   
#endif
