Title
44418
    1ASP      N    1   6.262   4.833   3.732
    1ASP    HT1    2   6.267   4.925   3.780
    1ASP    HT2    3   6.313   4.839   3.642
    1ASP    HT3    4   6.309   4.758   3.787
    1ASP     CA    5   6.125   4.794   3.686
    1ASP     HA    6   6.081   4.881   3.639
    1ASP     CB    7   6.135   4.680   3.580
    1ASP    HB1    8   6.034   4.657   3.539
    1ASP    HB2    9   6.176   4.587   3.624
    1ASP     CG   10   6.223   4.718   3.462
    1ASP    OD1   11   6.300   4.817   3.476
    1ASP    OD2   12   6.222   4.646   3.360
    1ASP      C   13   6.034   4.755   3.802
    1ASP      O   14   6.080   4.697   3.901
    2SER      N   15   5.902   4.786   3.796
    2SER     HN   16   5.861   4.830   3.716
    2SER     CA   17   5.807   4.741   3.896
    2SER     HA   18   5.857   4.728   3.991
    2SER     CB   19   5.687   4.838   3.919
    2SER    HB1   20   5.728   4.935   3.955
    2SER    HB2   21   5.620   4.799   3.998
    2SER     OG   22   5.612   4.862   3.800
    2SER    HG1   23   5.576   4.777   3.773
    2SER      C   24   5.752   4.606   3.855
    2SER      O   25   5.730   4.583   3.736
    3GLY      N   26   5.729   4.515   3.951
    3GLY     HN   27   5.745   4.538   4.047
    3GLY     CA   28   5.662   4.387   3.924
    3GLY    HA1   29   5.659   4.332   4.017
    3GLY    HA2   30   5.716   4.336   3.846
    3GLY      C   31   5.519   4.401   3.879
    3GLY      O   32   5.461   4.508   3.882
    4ASP      N   33   5.458   4.286   3.841
    4ASP     HN   34   5.511   4.203   3.826
    4ASP     CA   35   5.318   4.273   3.805
    4ASP     HA   36   5.305   4.326   3.711
    4ASP     CB   37   5.277   4.124   3.786
    4ASP    HB1   38   5.172   4.116   3.750
    4ASP    HB2   39   5.284   4.071   3.884
    4ASP     CG   40   5.364   4.047   3.688
    4ASP    OD1   41   5.440   4.110   3.611
    4ASP    OD2   42   5.354   3.921   3.687
    4ASP      C   43   5.222   4.335   3.907
    4ASP      O   44   5.246   4.338   4.029
    5SER      N   45   5.107   4.385   3.860
    5SER     HN   46   5.088   4.386   3.762
    5SER     CA   47   4.996   4.416   3.949
    5SER     HA   48   5.032   4.483   4.026
    5SER     CB   49   4.875   4.480   3.876
    5SER    HB1   50   4.793   4.502   3.948
    5SER    HB2   51   4.836   4.407   3.802
    5SER     OG   52   4.912   4.598   3.806
    5SER    HG1   53   4.927   4.667   3.872
    5SER      C   54   4.947   4.289   4.015
    5SER      O   55   4.921   4.190   3.947
    6GLY      N   56   4.933   4.288   4.150
    6GLY     HN   57   4.953   4.369   4.203
    6GLY     CA   58   4.877   4.174   4.222
    6GLY    HA1   59   4.872   4.200   4.327
    6GLY    HA2   60   4.940   4.089   4.200
    6GLY      C   61   4.736   4.141   4.177
    6GLY      O   62   4.673   4.226   4.114
    7PRO      N   63   4.681   4.024   4.207
    7PRO     CD   64   4.741   3.927   4.299
    7PRO    HD1   65   4.726   3.963   4.403
    7PRO    HD2   66   4.849   3.910   4.279
    7PRO     CA   67   4.543   3.990   4.175
    7PRO     HA   68   4.536   3.986   4.068
    7PRO     CB   69   4.521   3.853   4.242
    7PRO    HB1   70   4.468   3.783   4.174
    7PRO    HB2   71   4.464   3.863   4.337
    7PRO     CG   72   4.661   3.800   4.275
    7PRO    HG1   73   4.662   3.731   4.361
    7PRO    HG2   74   4.702   3.747   4.186
    7PRO      C   75   4.441   4.093   4.221
    7PRO      O   76   4.460   4.153   4.327
    8GLY      N   77   4.333   4.117   4.142
    8GLY     HN   78   4.325   4.075   4.053
    8GLY     CA   79   4.223   4.204   4.182
    8GLY    HA1   80   4.148   4.196   4.105
    8GLY    HA2   81   4.262   4.304   4.191
    8GLY      C   82   4.155   4.170   4.313
    8GLY      O   83   4.163   4.058   4.364
    9ASP      N   84   4.081   4.267   4.369
    9ASP     HN   85   4.087   4.361   4.335
    9ASP     CA   86   3.991   4.246   4.481
    9ASP     HA   87   4.052   4.207   4.561
    9ASP     CB   88   3.924   4.379   4.527
    9ASP    HB1   89   3.844   4.360   4.601
    9ASP    HB2   90   3.880   4.429   4.438
    9ASP     CG   91   4.021   4.477   4.592
    9ASP    OD1   92   4.137   4.440   4.620
    9ASP    OD2   93   3.978   4.592   4.618
    9ASP      C   94   3.880   4.145   4.448
    9ASP      O   95   3.831   4.143   4.334
   10PRO      N   96   3.834   4.058   4.540
   10PRO     CD   97   3.894   4.038   4.671
   10PRO    HD1   98   3.864   4.122   4.738
   10PRO    HD2   99   4.005   4.031   4.666
   10PRO     CA  100   3.712   3.981   4.524
   10PRO     HA  101   3.728   3.912   4.442
   10PRO     CB  102   3.693   3.909   4.659
   10PRO    HB1  103   3.650   3.807   4.646
   10PRO    HB2  104   3.628   3.967   4.727
   10PRO     CG  105   3.834   3.906   4.718
   10PRO    HG1  106   3.835   3.895   4.828
   10PRO    HG2  107   3.891   3.823   4.671
   10PRO      C  108   3.589   4.062   4.488
   10PRO      O  109   3.563   4.165   4.551
   11GLY      N  110   3.509   4.016   4.389
   11GLY     HN  111   3.536   3.934   4.340
   11GLY     CA  112   3.381   4.078   4.354
   11GLY    HA1  113   3.333   4.012   4.283
   11GLY    HA2  114   3.404   4.175   4.312
   11GLY      C  115   3.285   4.098   4.468
   11GLY      O  116   3.284   4.025   4.568
   12ASP      N  117   3.197   4.200   4.457
   12ASP     HN  118   3.202   4.266   4.382
   12ASP     CA  119   3.092   4.226   4.553
   12ASP     HA  120   3.141   4.240   4.649
   12ASP     CB  121   3.013   4.354   4.514
   12ASP    HB1  122   2.941   4.380   4.595
   12ASP    HB2  123   2.956   4.335   4.421
   12ASP     CG  124   3.103   4.475   4.493
   12ASP    OD1  125   3.187   4.504   4.582
   12ASP    OD2  126   3.084   4.545   4.390
   12ASP      C  127   2.994   4.110   4.569
   12ASP      O  128   2.944   4.053   4.472
   13SER      N  129   2.964   4.071   4.695
   13SER     HN  130   3.006   4.114   4.774
   13SER     CA  131   2.863   3.971   4.726
   13SER     HA  132   2.880   3.885   4.663
   13SER     CB  133   2.870   3.926   4.874
   13SER    HB1  134   2.966   3.871   4.889
   13SER    HB2  135   2.788   3.856   4.899
   13SER     OG  136   2.869   4.038   4.963
   13SER    HG1  137   2.785   4.081   4.946
   13SER      C  138   2.723   4.023   4.696
   13SER      O  139   2.683   4.126   4.750
   14GLY      N  140   2.648   3.953   4.607
   14GLY     HN  141   2.687   3.871   4.565
   14GLY     CA  142   2.514   3.987   4.562
   14GLY    HA1  143   2.473   3.899   4.514
   14GLY    HA2  144   2.525   4.070   4.493
   14GLY      C  145   2.413   4.029   4.666
   14GLY      O  146   2.412   3.982   4.779
   15SER      N  147   2.323   4.121   4.627
   15SER     HN  148   2.325   4.160   4.535
   15SER     CA  149   2.223   4.180   4.714
   15SER     HA  150   2.255   4.172   4.817
   15SER     CB  151   2.205   4.330   4.678
   15SER    HB1  152   2.302   4.381   4.688
   15SER    HB2  153   2.133   4.378   4.748
   15SER     OG  154   2.158   4.344   4.544
   15SER    HG1  155   2.093   4.274   4.536
   15SER      C  156   2.084   4.113   4.700
   15SER    OT1  157   2.038   4.095   4.584
   15SER    OT2  158   2.019   4.087   4.805
   16LIT    LIT  159   2.527   4.367   6.194
   17LIT    LIT  160   5.401   5.756   1.462
   18LIT    LIT  161   6.300   6.290   5.140
   19LIT    LIT  162   2.753   1.094   3.736
   20LIT    LIT  163   4.052   0.244   1.966
   21LIT    LIT  164   0.318   5.744   4.645
   22LIT    LIT  165   6.028   4.090   4.331
   23LIT    LIT  166   0.932   2.515   4.404
   24LIT    LIT  167   6.862   7.556   1.334
   25LIT    LIT  168   0.017   3.227   4.600
   26LIT    LIT  169   4.382   7.863   3.576
   27LIT    LIT  170   1.677   2.359   1.779
   28LIT    LIT  171   7.022   3.043   1.680
   29LIT    LIT  172   7.213   0.679   3.264
   30LIT    LIT  173   3.122   1.326   0.593
   31LIT    LIT  174   3.393   5.094   4.382
   32LIT    LIT  175   1.102   4.263   2.058
   33LIT    LIT  176   2.212   3.049   3.401
   34LIT    LIT  177   4.228   6.723   5.194
   35LIT    LIT  178   2.740   5.643   2.971
   36LIT    LIT  179   2.049   7.119   2.678
   37LIT    LIT  180   6.870   3.317   3.566
   38LIT    LIT  181   0.695   2.150   1.644
   39LIT    LIT  182   3.078   6.939   4.326
   40LIT    LIT  183   1.412   7.439   4.801
   41LIT    LIT  184   5.245   5.221   5.775
   42LIT    LIT  185   0.422   4.894   6.009
   43LIT    LIT  186   2.084   7.818   3.109
   44LIT    LIT  187   2.929   2.701   0.815
   45LIT    LIT  188   4.277   0.819   1.134
   46LIT    LIT  189   7.636   1.935   6.503
   47LIT    LIT  190   5.765   0.786   1.604
   48LIT    LIT  191   4.604   7.997   5.427
   49LIT    LIT  192   6.615   2.359   1.005
   50LIT    LIT  193   1.575   0.767   5.615
   51LIT    LIT  194   3.234   1.873   3.319
   52LIT    LIT  195   1.518   4.401   4.453
   53LIT    LIT  196   1.856   0.311   0.618
   54LIT    LIT  197   1.302   4.680   6.540
   55LIT    LIT  198   3.672   0.635   0.562
   56LIT    LIT  199   5.075   1.776   0.199
   57LIT    LIT  200   6.512   1.371   4.137
   58LIT    LIT  201   8.155   4.754   2.897
   59LIT    LIT  202   2.653   1.916   2.023
   60LIT    LIT  203   7.257   0.837   5.216
   61LIT    LIT  204   5.395   0.598   6.218
   62CLA    CLA  205   7.122   0.751   5.385
   63CLA    CLA  206   2.304   0.199   6.159
   64CLA    CLA  207   2.439   5.396   6.009
   65CLA    CLA  208   2.898   1.064   6.743
   66CLA    CLA  209   4.499   7.525   3.570
   67CLA    CLA  210   4.349   1.396   0.715
   68CLA    CLA  211   1.829   7.063   2.454
   69CLA    CLA  212   7.911   2.325   4.152
   70CLA    CLA  213   4.173   6.864   5.034
   71CLA    CLA  214   0.386   6.109   5.203
   72CLA    CLA  215   5.022   7.690   5.754
   73CLA    CLA  216   0.536   7.913   4.502
   74CLA    CLA  217   5.922   6.697   1.309
   75CLA    CLA  218   5.461   0.571   5.852
   76CLA    CLA  219   4.228   3.991   6.664
   77CLA    CLA  220   7.185   5.497   1.453
   78CLA    CLA  221   2.700   5.247   2.854
   79CLA    CLA  222   2.581   1.143   1.264
   80CLA    CLA  223   0.868   3.403   4.309
   81CLA    CLA  224   3.060   7.298   0.389
   82CLA    CLA  225   5.381   5.295   5.617
   83CLA    CLA  226   4.818   2.451   2.159
   84CLA    CLA  227   0.401   3.020   2.364
   85CLA    CLA  228   1.767   5.069   6.332
   86CLA    CLA  229   3.620   1.640   0.840
   87CLA    CLA  230   7.152   7.789   1.083
   88CLA    CLA  231   3.338   3.958   0.676
   89CLA    CLA  232   0.727   7.135   4.599
   90CLA    CLA  233   1.909   7.279   5.450
   91CLA    CLA  234   5.395   0.785   2.078
   92CLA    CLA  235   8.342   3.647   4.601
   93CLA    CLA  236   4.209   0.673   1.857
   94CLA    CLA  237   7.771   2.124   6.485
   95CLA    CLA  238   3.676   1.128   3.846
   96CLA    CLA  239   2.976   1.566   2.938
   97CLA    CLA  240   6.110   6.313   5.255
   98CLA    CLA  241   3.526   3.142   3.890
   99CLA    CLA  242   4.347   2.034   5.645
  100CLA    CLA  243   2.084   6.941   1.274
  101CLA    CLA  244   4.797   5.047   0.756
  102CLA    CLA  245   1.026   1.555   1.596
  103CLA    CLA  246   0.544   0.588   3.004
  104TIP3   OH2  247   3.264   0.361   2.229
  104TIP3    H1  248   3.267   0.265   2.235
  104TIP3    H2  249   3.194   0.386   2.289
  105TIP3   OH2  250   2.995   0.721   2.359
  105TIP3    H1  251   2.987   0.740   2.265
  105TIP3    H2  252   3.072   0.769   2.387
  106TIP3   OH2  253   3.302   0.082   2.228
  106TIP3    H1  254   3.217   0.052   2.261
  106TIP3    H2  255   3.326   0.017   2.162
  107TIP3   OH2  256   2.694   0.308   2.579
  107TIP3    H1  257   2.712   0.228   2.629
  107TIP3    H2  258   2.776   0.357   2.584
  108TIP3   OH2  259   3.091   0.490   2.034
  108TIP3    H1  260   3.115   0.455   1.948
  108TIP3    H2  261   3.152   0.448   2.095
  109TIP3   OH2  262   3.169   0.183   2.565
  109TIP3    H1  263   3.098   0.186   2.629
  109TIP3    H2  264   3.215   0.266   2.577
  110TIP3   OH2  265   0.385   7.852   2.381
  110TIP3    H1  266   0.407   7.764   2.410
  110TIP3    H2  267   0.440   7.867   2.304
  111TIP3   OH2  268   0.509   7.632   2.477
  111TIP3    H1  269   0.539   7.542   2.472
  111TIP3    H2  270   0.585   7.681   2.508
  112TIP3   OH2  271   2.572   0.659   2.297
  112TIP3    H1  272   2.580   0.565   2.308
  112TIP3    H2  273   2.629   0.696   2.364
  113TIP3   OH2  274   3.038   0.448   2.359
  113TIP3    H1  275   2.955   0.416   2.323
  113TIP3    H2  276   3.027   0.543   2.364
  114TIP3   OH2  277   1.424   7.855   1.540
  114TIP3    H1  278   1.493   7.864   1.606
  114TIP3    H2  279   1.461   7.798   1.473
  115TIP3   OH2  280   4.548   0.085   1.214
  115TIP3    H1  281   4.454   0.090   1.233
  115TIP3    H2  282   4.587   0.056   1.297
  116TIP3   OH2  283   4.133   0.087   1.590
  116TIP3    H1  284   4.147   0.005   1.541
  116TIP3    H2  285   4.220   0.110   1.623
  117TIP3   OH2  286   4.016   0.112   1.830
  117TIP3    H1  287   3.922   0.094   1.827
  117TIP3    H2  288   4.046   0.101   1.739
  118TIP3   OH2  289   3.756   0.191   1.852
  118TIP3    H1  290   3.730   0.283   1.857
  118TIP3    H2  291   3.687   0.144   1.900
  119TIP3   OH2  292   4.619   0.433   1.310
  119TIP3    H1  293   4.564   0.380   1.367
  119TIP3    H2  294   4.578   0.519   1.310
  120TIP3   OH2  295   4.306   0.452   1.123
  120TIP3    H1  296   4.380   0.401   1.091
  120TIP3    H2  297   4.296   0.522   1.058
  121TIP3   OH2  298   4.819   0.313   1.709
  121TIP3    H1  299   4.808   0.246   1.641
  121TIP3    H2  300   4.799   0.396   1.664
  122TIP3   OH2  301   1.897   7.847   1.837
  122TIP3    H1  302   1.857   7.926   1.873
  122TIP3    H2  303   1.830   7.808   1.782
  123TIP3   OH2  304   3.840   0.196   1.349
  123TIP3    H1  305   3.749   0.176   1.369
  123TIP3    H2  306   3.885   0.111   1.351
  124TIP3   OH2  307   4.434   0.345   1.492
  124TIP3    H1  308   4.436   0.433   1.530
  124TIP3    H2  309   4.343   0.332   1.467
  125TIP3   OH2  310   0.911   7.885   2.102
  125TIP3    H1  311   0.923   7.973   2.138
  125TIP3    H2  312   0.856   7.840   2.166
  126TIP3   OH2  313   4.044   0.279   0.868
  126TIP3    H1  314   4.083   0.237   0.945
  126TIP3    H2  315   3.998   0.355   0.903
  127TIP3   OH2  316   3.778   0.411   2.136
  127TIP3    H1  317   3.755   0.431   2.046
  127TIP3    H2  318   3.694   0.404   2.181
  128TIP3   OH2  319   5.093   0.655   1.741
  128TIP3    H1  320   5.100   0.560   1.745
  128TIP3    H2  321   5.010   0.675   1.785
  129TIP3   OH2  322   4.189   0.518   0.783
  129TIP3    H1  323   4.110   0.514   0.837
  129TIP3    H2  324   4.242   0.444   0.812
  130TIP3   OH2  325   2.122   7.750   1.956
  130TIP3    H1  326   2.053   7.807   1.922
  130TIP3    H2  327   2.101   7.664   1.920
  131TIP3   OH2  328   3.557   0.164   2.055
  131TIP3    H1  329   3.632   0.160   2.115
  131TIP3    H2  330   3.480   0.155   2.111
  132TIP3   OH2  331   2.014   7.514   1.884
  132TIP3    H1  332   1.933   7.508   1.935
  132TIP3    H2  333   1.985   7.516   1.793
  133TIP3   OH2  334   1.599   7.817   2.098
  133TIP3    H1  335   1.579   7.741   2.152
  133TIP3    H2  336   1.694   7.826   2.104
  134TIP3   OH2  337   1.637   7.805   1.709
  134TIP3    H1  338   1.679   7.720   1.693
  134TIP3    H2  339   1.589   7.793   1.791
  135TIP3   OH2  340   4.779   0.961   1.811
  135TIP3    H1  341   4.768   0.997   1.723
  135TIP3    H2  342   4.851   1.012   1.849
  136TIP3   OH2  343   3.750   0.110   2.243
  136TIP3    H1  344   3.829   0.142   2.286
  136TIP3    H2  345   3.685   0.107   2.314
  137TIP3   OH2  346   1.304   7.412   1.912
  137TIP3    H1  347   1.246   7.355   1.861
  137TIP3    H2  348   1.314   7.490   1.857
  138TIP3   OH2  349   4.783   0.132   1.514
  138TIP3    H1  350   4.837   0.139   1.436
  138TIP3    H2  351   4.715   0.068   1.491
  139TIP3   OH2  352   1.352   7.899   2.194
  139TIP3    H1  353   1.289   7.834   2.164
  139TIP3    H2  354   1.432   7.879   2.146
  140TIP3   OH2  355   4.439   0.452   1.857
  140TIP3    H1  356   4.367   0.513   1.839
  140TIP3    H2  357   4.479   0.487   1.937
  141TIP3   OH2  358   5.082   0.375   1.751
  141TIP3    H1  359   4.988   0.360   1.760
  141TIP3    H2  360   5.104   0.337   1.666
  142TIP3   OH2  361   1.728   7.977   1.461
  142TIP3    H1  362   1.637   8.006   1.453
  142TIP3    H2  363   1.724   7.905   1.524
  143TIP3   OH2  364   4.020   0.430   1.836
  143TIP3    H1  365   4.011   0.424   1.741
  143TIP3    H2  366   4.070   0.510   1.850
  144TIP3   OH2  367   4.387   0.130   1.667
  144TIP3    H1  368   4.451   0.133   1.738
  144TIP3    H2  369   4.420   0.191   1.602
  145TIP3   OH2  370   3.449   0.309   1.841
  145TIP3    H1  371   3.488   0.281   1.923
  145TIP3    H2  372   3.434   0.403   1.851
  146TIP3   OH2  373   1.526   7.629   1.908
  146TIP3    H1  374   1.518   7.701   1.970
  146TIP3    H2  375   1.592   7.572   1.946
  147TIP3   OH2  376   3.414   0.692   2.233
  147TIP3    H1  377   3.491   0.695   2.289
  147TIP3    H2  378   3.402   0.599   2.213
  148TIP3   OH2  379   3.871   0.618   2.295
  148TIP3    H1  380   3.964   0.636   2.282
  148TIP3    H2  381   3.854   0.541   2.240
  149TIP3   OH2  382   3.526   0.083   2.409
  149TIP3    H1  383   3.556  -0.008   2.409
  149TIP3    H2  384   3.441   0.081   2.366
  150TIP3   OH2  385   4.077   0.131   2.122
  150TIP3    H1  386   4.038   0.150   2.208
  150TIP3    H2  387   4.123   0.048   2.134
  151TIP3   OH2  388   4.589   0.222   1.833
  151TIP3    H1  389   4.668   0.257   1.791
  151TIP3    H2  390   4.531   0.298   1.842
  152TIP3   OH2  391   0.826   7.848   2.369
  152TIP3    H1  392   0.920   7.831   2.372
  152TIP3    H2  393   0.789   7.799   2.442
  153TIP3   OH2  394   1.147   7.741   2.075
  153TIP3    H1  395   1.064   7.787   2.078
  153TIP3    H2  396   1.193   7.778   2.000
  154TIP3   OH2  397   4.503   0.106   2.189
  154TIP3    H1  398   4.561   0.071   2.121
  154TIP3    H2  399   4.504   0.040   2.258
  155TIP3   OH2  400   1.279   7.515   2.160
  155TIP3    H1  401   1.284   7.463   2.080
  155TIP3    H2  402   1.229   7.592   2.136
  156TIP3   OH2  403   1.298   7.849   1.880
  156TIP3    H1  404   1.308   7.785   1.810
  156TIP3    H2  405   1.282   7.932   1.834
  157TIP3   OH2  406   1.860   7.765   2.173
  157TIP3    H1  407   1.843   7.749   2.266
  157TIP3    H2  408   1.922   7.838   2.172
  158TIP3   OH2  409   4.727   0.063   2.005
  158TIP3    H1  410   4.674   0.123   1.952
  158TIP3    H2  411   4.813   0.064   1.963
  159TIP3   OH2  412   1.126   7.691   2.402
  159TIP3    H1  413   1.073   7.657   2.474
  159TIP3    H2  414   1.199   7.629   2.394
  160TIP3   OH2  415   1.537   7.591   2.221
  160TIP3    H1  416   1.561   7.557   2.308
  160TIP3    H2  417   1.451   7.553   2.204
  161TIP3   OH2  418   4.877   0.733   1.258
  161TIP3    H1  419   4.894   0.735   1.352
  161TIP3    H2  420   4.896   0.822   1.228
  162TIP3   OH2  421   4.923   0.736   1.529
  162TIP3    H1  422   4.861   0.666   1.547
  162TIP3    H2  423   4.997   0.718   1.588
  163TIP3   OH2  424   4.942   0.429   2.102
  163TIP3    H1  425   4.864   0.446   2.155
  163TIP3    H2  426   4.980   0.515   2.088
  164TIP3   OH2  427   4.966   0.208   1.312
  164TIP3    H1  428   4.958   0.172   1.223
  164TIP3    H2  429   4.972   0.302   1.299
  165TIP3   OH2  430   4.744   0.524   1.545
  165TIP3    H1  431   4.659   0.557   1.574
  165TIP3    H2  432   4.726   0.483   1.461
  166TIP3   OH2  433   4.989   0.071   1.889
  166TIP3    H1  434   5.055   0.004   1.874
  166TIP3    H2  435   4.991   0.125   1.810
  167TIP3   OH2  436   2.347   7.881   1.870
  167TIP3    H1  437   2.280   7.818   1.898
  167TIP3    H2  438   2.430   7.842   1.897
  168TIP3   OH2  439   0.624   7.390   2.511
  168TIP3    H1  440   0.663   7.315   2.467
  168TIP3    H2  441   0.675   7.400   2.592
  169TIP3   OH2  442   4.526   0.603   0.965
  169TIP3    H1  443   4.552   0.511   0.962
  169TIP3    H2  444   4.596   0.649   0.917
  170TIP3   OH2  445   3.533   0.404   2.268
  170TIP3    H1  446   3.440   0.386   2.251
  170TIP3    H2  447   3.542   0.397   2.363
  171TIP3   OH2  448   3.743   0.466   1.870
  171TIP3    H1  449   3.711   0.551   1.838
  171TIP3    H2  450   3.838   0.470   1.857
  172TIP3   OH2  451   3.423   0.755   1.854
  172TIP3    H1  452   3.329   0.769   1.861
  172TIP3    H2  453   3.460   0.809   1.924
  173TIP3   OH2  454   3.665   0.700   1.741
  173TIP3    H1  455   3.575   0.716   1.771
  173TIP3    H2  456   3.655   0.639   1.668
  174TIP3   OH2  457   4.153   0.621   1.563
  174TIP3    H1  458   4.066   0.657   1.546
  174TIP3    H2  459   4.168   0.636   1.656
  175TIP3   OH2  460   4.428   0.621   1.521
  175TIP3    H1  461   4.337   0.616   1.548
  175TIP3    H2  462   4.459   0.705   1.556
  176TIP3   OH2  463   4.585   0.862   1.415
  176TIP3    H1  464   4.551   0.947   1.388
  176TIP3    H2  465   4.605   0.817   1.333
  177TIP3   OH2  466   3.419   0.398   1.497
  177TIP3    H1  467   3.399   0.449   1.575
  177TIP3    H2  468   3.341   0.344   1.484
  178TIP3   OH2  469   3.886   0.461   1.367
  178TIP3    H1  470   3.883   0.365   1.370
  178TIP3    H2  471   3.841   0.488   1.447
  179TIP3   OH2  472   4.837   0.696   1.838
  179TIP3    H1  473   4.798   0.674   1.922
  179TIP3    H2  474   4.810   0.786   1.822
  180TIP3   OH2  475   5.579   0.513   1.348
  180TIP3    H1  476   5.563   0.509   1.254
  180TIP3    H2  477   5.501   0.473   1.388
  181TIP3   OH2  478   5.608   0.688   1.556
  181TIP3    H1  479   5.597   0.626   1.484
  181TIP3    H2  480   5.531   0.674   1.611
  182TIP3   OH2  481   5.155   0.251   1.516
  182TIP3    H1  482   5.094   0.222   1.449
  182TIP3    H2  483   5.186   0.171   1.557
  183TIP3   OH2  484   4.983   0.480   1.253
  183TIP3    H1  485   5.070   0.512   1.276
  183TIP3    H2  486   4.929   0.559   1.249
  184TIP3   OH2  487   5.355   0.443   1.492
  184TIP3    H1  488   5.412   0.429   1.568
  184TIP3    H2  489   5.288   0.375   1.499
  185TIP3   OH2  490   6.531   1.209   1.382
  185TIP3    H1  491   6.558   1.179   1.295
  185TIP3    H2  492   6.598   1.272   1.407
  186TIP3   OH2  493   5.522   0.401   1.713
  186TIP3    H1  494   5.604   0.385   1.760
  186TIP3    H2  495   5.455   0.405   1.781
  187TIP3   OH2  496   5.243   0.049   1.675
  187TIP3    H1  497   5.310   0.085   1.733
  187TIP3    H2  498   5.213  -0.030   1.719
  188TIP3   OH2  499   5.215   0.626   1.319
  188TIP3    H1  500   5.266   0.572   1.379
  188TIP3    H2  501   5.226   0.715   1.352
  189TIP3   OH2  502   5.201   0.951   1.715
  189TIP3    H1  503   5.285   0.953   1.762
  189TIP3    H2  504   5.173   0.860   1.722
  190TIP3   OH2  505   5.688   0.885   1.753
  190TIP3    H1  506   5.728   0.911   1.836
  190TIP3    H2  507   5.595   0.878   1.772
  191TIP3   OH2  508   6.296   0.834   1.525
  191TIP3    H1  509   6.289   0.758   1.582
  191TIP3    H2  510   6.382   0.870   1.544
  192TIP3   OH2  511   5.314   0.360   1.892
  192TIP3    H1  512   5.338   0.267   1.887
  192TIP3    H2  513   5.229   0.365   1.850
  193TIP3   OH2  514   5.951   0.411   1.675
  193TIP3    H1  515   5.875   0.391   1.621
  193TIP3    H2  516   6.006   0.333   1.670
  194TIP3   OH2  517   5.409   0.100   1.893
  194TIP3    H1  518   5.446   0.012   1.887
  194TIP3    H2  519   5.440   0.134   1.977
  195TIP3   OH2  520   4.737   0.738   0.844
  195TIP3    H1  521   4.786   0.743   0.763
  195TIP3    H2  522   4.797   0.697   0.906
  196TIP3   OH2  523   4.928   0.568   0.951
  196TIP3    H1  524   4.926   0.481   0.991
  196TIP3    H2  525   4.992   0.617   1.003
  197TIP3   OH2  526   5.385   0.700   1.748
  197TIP3    H1  527   5.296   0.668   1.735
  197TIP3    H2  528   5.393   0.712   1.843
  198TIP3   OH2  529   5.881   0.888   1.479
  198TIP3    H1  530   5.956   0.909   1.536
  198TIP3    H2  531   5.915   0.897   1.390
  199TIP3   OH2  532   6.096   1.066   1.324
  199TIP3    H1  533   6.166   1.010   1.292
  199TIP3    H2  534   6.139   1.129   1.382
  200TIP3   OH2  535   5.206   0.933   1.326
  200TIP3    H1  536   5.117   0.952   1.296
  200TIP3    H2  537   5.225   1.002   1.389
  201TIP3   OH2  538   5.452   0.946   1.187
  201TIP3    H1  539   5.371   0.931   1.236
  201TIP3    H2  540   5.423   0.969   1.099
  202TIP3   OH2  541   5.862   0.993   0.916
  202TIP3    H1  542   5.771   0.974   0.936
  202TIP3    H2  543   5.891   1.050   0.987
  203TIP3   OH2  544   5.142   0.716   1.055
  203TIP3    H1  545   5.150   0.708   1.150
  203TIP3    H2  546   5.223   0.679   1.020
  204TIP3   OH2  547   0.813   2.283   2.499
  204TIP3    H1  548   0.814   2.317   2.409
  204TIP3    H2  549   0.900   2.305   2.533
  205TIP3   OH2  550   1.017   1.699   2.773
  205TIP3    H1  551   0.939   1.697   2.828
  205TIP3    H2  552   1.046   1.790   2.776
  206TIP3   OH2  553   2.379   1.602   1.447
  206TIP3    H1  554   2.284   1.612   1.452
  206TIP3    H2  555   2.413   1.674   1.500
  207TIP3   OH2  556   2.027   2.049   1.371
  207TIP3    H1  557   2.059   2.022   1.285
  207TIP3    H2  558   1.993   1.969   1.410
  208TIP3   OH2  559   2.969   0.944   1.764
  208TIP3    H1  560   2.993   1.029   1.799
  208TIP3    H2  561   3.013   0.939   1.679
  209TIP3   OH2  562   3.060   1.179   1.878
  209TIP3    H1  563   2.972   1.215   1.867
  209TIP3    H2  564   3.093   1.219   1.958
  210TIP3   OH2  565   2.451   1.829   1.576
  210TIP3    H1  566   2.369   1.872   1.601
  210TIP3    H2  567   2.503   1.899   1.537
  211TIP3   OH2  568   2.771   1.898   1.875
  211TIP3    H1  569   2.756   1.824   1.816
  211TIP3    H2  570   2.763   1.975   1.818
  212TIP3   OH2  571   2.875   1.477   1.718
  212TIP3    H1  572   2.804   1.541   1.718
  212TIP3    H2  573   2.900   1.469   1.626
  213TIP3   OH2  574   2.572   1.344   2.004
  213TIP3    H1  575   2.559   1.427   2.050
  213TIP3    H2  576   2.489   1.330   1.958
  214TIP3   OH2  577   2.228   1.963   1.658
  214TIP3    H1  578   2.207   2.041   1.709
  214TIP3    H2  579   2.208   1.890   1.717
  215TIP3   OH2  580   1.798   1.833   2.164
  215TIP3    H1  581   1.748   1.905   2.202
  215TIP3    H2  582   1.732   1.770   2.136
  216TIP3   OH2  583   1.611   2.031   2.231
  216TIP3    H1  584   1.582   2.023   2.140
  216TIP3    H2  585   1.534   2.010   2.284
  217TIP3   OH2  586   2.024   1.960   2.057
  217TIP3    H1  587   2.004   2.054   2.057
  217TIP3    H2  588   1.942   1.918   2.083
  218TIP3   OH2  589   2.794   1.278   2.156
  218TIP3    H1  590   2.714   1.294   2.106
  218TIP3    H2  591   2.812   1.185   2.143
  219TIP3   OH2  592   2.545   1.056   2.034
  219TIP3    H1  593   2.506   1.036   2.119
  219TIP3    H2  594   2.528   1.149   2.020
  220TIP3   OH2  595   2.297   1.319   2.319
  220TIP3    H1  596   2.270   1.249   2.378
  220TIP3    H2  597   2.391   1.326   2.330
  221TIP3   OH2  598   2.336   1.272   1.897
  221TIP3    H1  599   2.299   1.269   1.809
  221TIP3    H2  600   2.270   1.232   1.953
  222TIP3   OH2  601   2.608   2.558   1.996
  222TIP3    H1  602   2.611   2.554   1.901
  222TIP3    H2  603   2.697   2.581   2.022
  223TIP3   OH2  604   1.554   1.728   2.413
  223TIP3    H1  605   1.637   1.709   2.456
  223TIP3    H2  606   1.488   1.681   2.465
  224TIP3   OH2  607   2.689   1.687   1.727
  224TIP3    H1  608   2.711   1.726   1.642
  224TIP3    H2  609   2.625   1.619   1.707
  225TIP3   OH2  610   2.168   1.719   2.092
  225TIP3    H1  611   2.200   1.703   2.180
  225TIP3    H2  612   2.120   1.802   2.099
  226TIP3   OH2  613   2.060   1.466   2.326
  226TIP3    H1  614   2.008   1.417   2.262
  226TIP3    H2  615   2.149   1.433   2.315
  227TIP3   OH2  616   2.286   2.006   1.963
  227TIP3    H1  617   2.195   1.977   1.972
  227TIP3    H2  618   2.304   2.052   2.045
  228TIP3   OH2  619   2.549   1.479   1.637
  228TIP3    H1  620   2.474   1.495   1.580
  228TIP3    H2  621   2.568   1.386   1.627
  229TIP3   OH2  622   2.203   1.740   1.820
  229TIP3    H1  623   2.188   1.726   1.913
  229TIP3    H2  624   2.196   1.653   1.781
  230TIP3   OH2  625   2.438   2.225   1.843
  230TIP3    H1  626   2.359   2.174   1.859
  230TIP3    H2  627   2.407   2.305   1.800
  231TIP3   OH2  628   2.203   1.161   2.112
  231TIP3    H1  629   2.235   1.223   2.177
  231TIP3    H2  630   2.245   1.078   2.135
  232TIP3   OH2  631   2.819   1.019   2.044
  232TIP3    H1  632   2.724   1.009   2.049
  232TIP3    H2  633   2.834   1.048   1.954
  233TIP3   OH2  634   2.471   2.253   1.504
  233TIP3    H1  635   2.457   2.319   1.436
  233TIP3    H2  636   2.561   2.224   1.490
  234TIP3   OH2  637   1.268   2.237   2.380
  234TIP3    H1  638   1.340   2.251   2.442
  234TIP3    H2  639   1.272   2.144   2.359
  235TIP3   OH2  640   1.723   2.186   2.429
  235TIP3    H1  641   1.811   2.152   2.447
  235TIP3    H2  642   1.690   2.130   2.359
  236TIP3   OH2  643   2.353   2.112   2.205
  236TIP3    H1  644   2.367   2.041   2.269
  236TIP3    H2  645   2.427   2.171   2.219
  237TIP3   OH2  646   1.351   1.633   2.584
  237TIP3    H1  647   1.389   1.545   2.586
  237TIP3    H2  648   1.256   1.618   2.584
  238TIP3   OH2  649   1.975   1.735   2.356
  238TIP3    H1  650   1.925   1.754   2.277
  238TIP3    H2  651   2.014   1.649   2.341
  239TIP3   OH2  652   2.495   1.825   1.955
  239TIP3    H1  653   2.492   1.775   1.873
  239TIP3    H2  654   2.412   1.872   1.958
  240TIP3   OH2  655   1.500   1.401   2.599
  240TIP3    H1  656   1.582   1.371   2.560
  240TIP3    H2  657   1.523   1.423   2.690
  241TIP3   OH2  658   2.327   1.648   2.333
  241TIP3    H1  659   2.398   1.610   2.281
  241TIP3    H2  660   2.325   1.595   2.412
  242TIP3   OH2  661   2.565   1.324   2.417
  242TIP3    H1  662   2.597   1.234   2.414
  242TIP3    H2  663   2.643   1.378   2.415
  243TIP3   OH2  664   2.576   1.602   2.126
  243TIP3    H1  665   2.525   1.662   2.071
  243TIP3    H2  666   2.666   1.610   2.093
  244TIP3   OH2  667   1.808   1.121   2.637
  244TIP3    H1  668   1.777   1.075   2.715
  244TIP3    H2  669   1.751   1.089   2.567
  245TIP3   OH2  670   2.240   1.102   2.477
  245TIP3    H1  671   2.296   1.095   2.554
  245TIP3    H2  672   2.153   1.076   2.508
  246TIP3   OH2  673   2.444   1.042   2.291
  246TIP3    H1  674   2.372   1.048   2.354
  246TIP3    H2  675   2.520   1.018   2.344
  247TIP3   OH2  676   2.667   1.020   2.470
  247TIP3    H1  677   2.688   0.927   2.474
  247TIP3    H2  678   2.666   1.048   2.561
  248TIP3   OH2  679   2.233   0.803   2.645
  248TIP3    H1  680   2.220   0.757   2.562
  248TIP3    H2  681   2.164   0.869   2.647
  249TIP3   OH2  682   2.711   2.296   1.360
  249TIP3    H1  683   2.719   2.382   1.401
  249TIP3    H2  684   2.790   2.289   1.305
  250TIP3   OH2  685   2.783   2.334   1.673
  250TIP3    H1  686   2.746   2.254   1.711
  250TIP3    H2  687   2.858   2.304   1.622
  251TIP3   OH2  688   2.739   2.001   2.171
  251TIP3    H1  689   2.702   1.997   2.259
  251TIP3    H2  690   2.803   2.072   2.175
  252TIP3   OH2  691   2.805   1.789   1.502
  252TIP3    H1  692   2.794   1.720   1.436
  252TIP3    H2  693   2.856   1.856   1.457
  253TIP3   OH2  694   2.656   2.103   1.745
  253TIP3    H1  695   2.578   2.145   1.781
  253TIP3    H2  696   2.631   2.076   1.657
  254TIP3   OH2  697   2.833   1.654   2.035
  254TIP3    H1  698   2.891   1.578   2.047
  254TIP3    H2  699   2.856   1.688   1.948
  255TIP3   OH2  700   2.996   1.437   2.065
  255TIP3    H1  701   2.927   1.380   2.098
  255TIP3    H2  702   3.077   1.394   2.092
  256TIP3   OH2  703   2.752   0.967   1.563
  256TIP3    H1  704   2.812   1.036   1.589
  256TIP3    H2  705   2.687   0.964   1.633
  257TIP3   OH2  706   2.796   1.252   1.851
  257TIP3    H1  707   2.713   1.276   1.890
  257TIP3    H2  708   2.820   1.327   1.797
  258TIP3   OH2  709   3.239   0.863   2.357
  258TIP3    H1  710   3.300   0.805   2.311
  258TIP3    H2  711   3.199   0.916   2.288
  259TIP3   OH2  712   3.082   1.006   2.180
  259TIP3    H1  713   3.023   1.042   2.247
  259TIP3    H2  714   3.025   0.958   2.121
  260TIP3   OH2  715   2.281   2.080   1.058
  260TIP3    H1  716   2.204   2.136   1.068
  260TIP3    H2  717   2.352   2.130   1.099
  261TIP3   OH2  718   1.399   1.959   2.399
  261TIP3    H1  719   1.441   1.874   2.387
  261TIP3    H2  720   1.378   1.962   2.493
  262TIP3   OH2  721   1.538   1.990   1.970
  262TIP3    H1  722   1.455   1.952   1.939
  262TIP3    H2  723   1.583   2.017   1.890
  263TIP3   OH2  724   1.996   2.240   2.087
  263TIP3    H1  725   2.034   2.230   2.174
  263TIP3    H2  726   2.056   2.298   2.041
  264TIP3   OH2  727   2.159   2.422   1.967
  264TIP3    H1  728   2.205   2.379   1.895
  264TIP3    H2  729   2.228   2.468   2.015
  265TIP3   OH2  730   2.981   0.736   2.083
  265TIP3    H1  731   2.893   0.746   2.047
  265TIP3    H2  732   3.004   0.645   2.066
  266TIP3   OH2  733   1.310   2.273   1.998
  266TIP3    H1  734   1.231   2.219   2.004
  266TIP3    H2  735   1.298   2.342   2.063
  267TIP3   OH2  736   1.505   2.273   1.812
  267TIP3    H1  737   1.449   2.264   1.889
  267TIP3    H2  738   1.445   2.292   1.740
  268TIP3   OH2  739   2.162   2.237   1.741
  268TIP3    H1  740   2.078   2.215   1.700
  268TIP3    H2  741   2.210   2.285   1.672
  269TIP3   OH2  742   2.370   2.441   1.675
  269TIP3    H1  743   2.324   2.509   1.625
  269TIP3    H2  744   2.400   2.379   1.609
  270TIP3   OH2  745   2.752   0.755   2.489
  270TIP3    H1  746   2.762   0.720   2.577
  270TIP3    H2  747   2.837   0.742   2.448
  271TIP3   OH2  748   3.915   1.657   0.762
  271TIP3    H1  749   3.917   1.737   0.709
  271TIP3    H2  750   3.827   1.656   0.800
  272TIP3   OH2  751   3.933   1.652   1.157
  272TIP3    H1  752   3.978   1.639   1.240
  272TIP3    H2  753   3.843   1.624   1.174
  273TIP3   OH2  754   3.278   1.630   1.571
  273TIP3    H1  755   3.246   1.540   1.562
  273TIP3    H2  756   3.336   1.642   1.496
  274TIP3   OH2  757   4.196   1.943   0.837
  274TIP3    H1  758   4.184   1.884   0.911
  274TIP3    H2  759   4.216   2.028   0.877
  275TIP3   OH2  760   3.168   1.979   1.264
  275TIP3    H1  761   3.105   1.926   1.312
  275TIP3    H2  762   3.252   1.935   1.279
  276TIP3   OH2  763   2.952   1.407   1.177
  276TIP3    H1  764   3.000   1.330   1.207
  276TIP3    H2  765   3.019   1.462   1.136
  277TIP3   OH2  766   3.835   2.398   0.856
  277TIP3    H1  767   3.889   2.339   0.804
  277TIP3    H2  768   3.833   2.358   0.943
  278TIP3   OH2  769   3.731   1.889   1.165
  278TIP3    H1  770   3.754   1.822   1.100
  278TIP3    H2  771   3.815   1.919   1.199
  279TIP3   OH2  772   4.764   1.200   1.172
  279TIP3    H1  773   4.787   1.274   1.229
  279TIP3    H2  774   4.774   1.234   1.083
  280TIP3   OH2  775   4.131   1.367   1.189
  280TIP3    H1  776   4.178   1.284   1.201
  280TIP3    H2  777   4.175   1.408   1.114
  281TIP3   OH2  778   3.521   1.067   1.121
  281TIP3    H1  779   3.544   1.141   1.064
  281TIP3    H2  780   3.429   1.049   1.100
  282TIP3   OH2  781   3.099   1.194   1.267
  282TIP3    H1  782   3.194   1.196   1.277
  282TIP3    H2  783   3.083   1.123   1.204
  283TIP3   OH2  784   3.682   1.524   1.154
  283TIP3    H1  785   3.732   1.443   1.159
  283TIP3    H2  786   3.660   1.533   1.061
  284TIP3   OH2  787   4.828   1.409   1.342
  284TIP3    H1  788   4.740   1.447   1.339
  284TIP3    H2  789   4.865   1.441   1.424
  285TIP3   OH2  790   3.480   0.984   1.652
  285TIP3    H1  791   3.428   0.909   1.625
  285TIP3    H2  792   3.426   1.028   1.717
  286TIP3   OH2  793   3.829   1.865   0.607
  286TIP3    H1  794   3.869   1.852   0.520
  286TIP3    H2  795   3.852   1.955   0.630
  287TIP3   OH2  796   3.605   1.821   1.407
  287TIP3    H1  797   3.527   1.875   1.422
  287TIP3    H2  798   3.641   1.853   1.324
  288TIP3   OH2  799   4.370   1.146   0.984
  288TIP3    H1  800   4.340   1.158   1.074
  288TIP3    H2  801   4.431   1.219   0.969
  289TIP3   OH2  802   3.357   0.999   1.361
  289TIP3    H1  803   3.320   1.059   1.425
  289TIP3    H2  804   3.446   1.030   1.347
  290TIP3   OH2  805   3.407   2.006   1.490
  290TIP3    H1  806   3.398   2.097   1.463
  290TIP3    H2  807   3.330   1.989   1.544
  291TIP3   OH2  808   4.228   2.198   0.957
  291TIP3    H1  809   4.141   2.189   0.996
  291TIP3    H2  810   4.225   2.281   0.911
  292TIP3   OH2  811   4.536   1.112   1.312
  292TIP3    H1  812   4.453   1.133   1.271
  292TIP3    H2  813   4.602   1.139   1.248
  293TIP3   OH2  814   3.839   0.696   1.236
  293TIP3    H1  815   3.860   0.609   1.271
  293TIP3    H2  816   3.750   0.713   1.268
  294TIP3   OH2  817   3.985   2.253   0.680
  294TIP3    H1  818   4.021   2.167   0.660
  294TIP3    H2  819   4.041   2.314   0.632
  295TIP3   OH2  820   4.085   2.015   0.596
  295TIP3    H1  821   4.144   1.993   0.523
  295TIP3    H2  822   4.129   1.979   0.673
  296TIP3   OH2  823   4.465   2.093   1.301
  296TIP3    H1  824   4.451   2.017   1.244
  296TIP3    H2  825   4.450   2.169   1.244
  297TIP3   OH2  826   3.724   1.513   0.542
  297TIP3    H1  827   3.751   1.573   0.612
  297TIP3    H2  828   3.798   1.512   0.481
  298TIP3   OH2  829   4.653   1.754   1.178
  298TIP3    H1  830   4.568   1.798   1.174
  298TIP3    H2  831   4.687   1.761   1.088
  299TIP3   OH2  832   4.191   1.658   0.661
  299TIP3    H1  833   4.168   1.697   0.745
  299TIP3    H2  834   4.250   1.585   0.684
  300TIP3   OH2  835   4.348   1.606   1.484
  300TIP3    H1  836   4.348   1.689   1.530
  300TIP3    H2  837   4.265   1.606   1.435
  301TIP3   OH2  838   3.291   1.505   0.846
  301TIP3    H1  839   3.322   1.592   0.819
  301TIP3    H2  840   3.346   1.482   0.920
  302TIP3   OH2  841   3.510   2.011   1.057
  302TIP3    H1  842   3.458   1.931   1.053
  302TIP3    H2  843   3.591   1.985   1.100
  303TIP3   OH2  844   3.511   1.559   1.372
  303TIP3    H1  845   3.565   1.538   1.295
  303TIP3    H2  846   3.519   1.654   1.382
  304TIP3   OH2  847   3.992   2.179   1.092
  304TIP3    H1  848   3.983   2.262   1.139
  304TIP3    H2  849   3.978   2.112   1.159
  305TIP3   OH2  850   3.622   2.095   1.641
  305TIP3    H1  851   3.563   2.154   1.687
  305TIP3    H2  852   3.565   2.041   1.587
  306TIP3   OH2  853   3.918   1.496   0.352
  306TIP3    H1  854   3.995   1.538   0.313
  306TIP3    H2  855   3.919   1.407   0.317
  307TIP3   OH2  856   3.403   1.655   1.811
  307TIP3    H1  857   3.397   1.747   1.836
  307TIP3    H2  858   3.351   1.649   1.731
  308TIP3   OH2  859   3.753   2.141   0.591
  308TIP3    H1  860   3.823   2.197   0.624
  308TIP3    H2  861   3.692   2.132   0.664
  309TIP3   OH2  862   3.413   2.266   1.716
  309TIP3    H1  863   3.401   2.279   1.622
  309TIP3    H2  864   3.325   2.267   1.753
  310TIP3   OH2  865   7.142   6.079   6.921
  310TIP3    H1  866   7.146   6.170   6.892
  310TIP3    H2  867   7.232   6.049   6.921
  311TIP3   OH2  868   3.017   1.825   1.684
  311TIP3    H1  869   2.946   1.793   1.628
  311TIP3    H2  870   3.041   1.750   1.737
  312TIP3   OH2  871   2.900   2.011   1.372
  312TIP3    H1  872   2.909   2.021   1.278
  312TIP3    H2  873   2.955   2.080   1.409
  313TIP3   OH2  874   4.699   2.444   1.366
  313TIP3    H1  875   4.708   2.352   1.391
  313TIP3    H2  876   4.622   2.474   1.414
  314TIP3   OH2  877   3.812   2.234   1.501
  314TIP3    H1  878   3.806   2.324   1.533
  314TIP3    H2  879   3.747   2.186   1.552
  315TIP3   OH2  880   3.674   2.426   0.492
  315TIP3    H1  881   3.627   2.361   0.440
  315TIP3    H2  882   3.608   2.491   0.515
  316TIP3   OH2  883   2.961   2.262   0.792
  316TIP3    H1  884   2.998   2.203   0.858
  316TIP3    H2  885   2.873   2.227   0.777
  317TIP3   OH2  886   3.780   2.292   0.125
  317TIP3    H1  887   3.821   2.213   0.089
  317TIP3    H2  888   3.818   2.302   0.212
  318TIP3   OH2  889   3.900   2.345   0.365
  318TIP3    H1  890   3.828   2.361   0.426
  318TIP3    H2  891   3.978   2.345   0.421
  319TIP3   OH2  892   4.596   1.557   1.642
  319TIP3    H1  893   4.511   1.570   1.602
  319TIP3    H2  894   4.614   1.463   1.631
  320TIP3   OH2  895   3.198   2.022   1.683
  320TIP3    H1  896   3.262   1.986   1.745
  320TIP3    H2  897   3.131   1.954   1.677
  321TIP3   OH2  898   3.666   0.832   1.489
  321TIP3    H1  899   3.588   0.793   1.449
  321TIP3    H2  900   3.641   0.848   1.580
  322TIP3   OH2  901   4.131   0.928   1.684
  322TIP3    H1  902   4.181   0.871   1.742
  322TIP3    H2  903   4.039   0.914   1.709
  323TIP3   OH2  904   4.336   1.336   1.559
  323TIP3    H1  905   4.311   1.334   1.651
  323TIP3    H2  906   4.332   1.429   1.535
  324TIP3   OH2  907   4.082   1.519   0.128
  324TIP3    H1  908   4.002   1.475   0.100
  324TIP3    H2  909   4.095   1.588   0.064
  325TIP3   OH2  910   3.579   1.368   1.555
  325TIP3    H1  911   3.505   1.365   1.616
  325TIP3    H2  912   3.555   1.437   1.493
  326TIP3   OH2  913   3.379   1.200   0.919
  326TIP3    H1  914   3.392   1.110   0.890
  326TIP3    H2  915   3.442   1.251   0.868
  327TIP3   OH2  916   3.796   1.313   0.716
  327TIP3    H1  917   3.754   1.375   0.657
  327TIP3    H2  918   3.888   1.341   0.720
  328TIP3   OH2  919   4.084   1.565   1.808
  328TIP3    H1  920   4.056   1.495   1.866
  328TIP3    H2  921   4.177   1.577   1.828
  329TIP3   OH2  922   4.100   1.249   0.895
  329TIP3    H1  923   4.049   1.325   0.923
  329TIP3    H2  924   4.184   1.286   0.867
  330TIP3   OH2  925   3.358   1.356   1.724
  330TIP3    H1  926   3.368   1.430   1.783
  330TIP3    H2  927   3.360   1.279   1.782
  331TIP3   OH2  928   4.089   1.564   1.371
  331TIP3    H1  929   4.107   1.495   1.307
  331TIP3    H2  930   4.059   1.517   1.449
  332TIP3   OH2  931   3.783   0.999   1.138
  332TIP3    H1  932   3.699   1.038   1.161
  332TIP3    H2  933   3.839   1.016   1.213
  333TIP3   OH2  934   4.241   1.118   1.236
  333TIP3    H1  935   4.223   1.116   1.330
  333TIP3    H2  936   4.180   1.055   1.198
  334TIP3   OH2  937   4.413   2.796   1.464
  334TIP3    H1  938   4.412   2.814   1.370
  334TIP3    H2  939   4.491   2.840   1.496
  335TIP3   OH2  940   3.354   1.920   1.891
  335TIP3    H1  941   3.436   1.937   1.939
  335TIP3    H2  942   3.289   1.909   1.960
  336TIP3   OH2  943   3.858   1.317   1.201
  336TIP3    H1  944   3.952   1.331   1.186
  336TIP3    H2  945   3.851   1.299   1.295
  337TIP3   OH2  946   3.821   1.286   1.472
  337TIP3    H1  947   3.741   1.331   1.499
  337TIP3    H2  948   3.892   1.336   1.513
  338TIP3   OH2  949   3.454   1.608   0.520
  338TIP3    H1  950   3.451   1.527   0.469
  338TIP3    H2  951   3.496   1.583   0.602
  339TIP3   OH2  952   4.416   1.885   1.126
  339TIP3    H1  953   4.451   1.933   1.050
  339TIP3    H2  954   4.334   1.847   1.094
  340TIP3   OH2  955   3.937   1.960   1.547
  340TIP3    H1  956   3.991   1.947   1.625
  340TIP3    H2  957   3.902   2.048   1.557
  341TIP3   OH2  958   3.963   1.147   0.546
  341TIP3    H1  959   3.964   1.240   0.568
  341TIP3    H2  960   4.046   1.132   0.501
  342TIP3   OH2  961   3.170   1.574   1.121
  342TIP3    H1  962   3.165   1.657   1.074
  342TIP3    H2  963   3.253   1.535   1.093
  343TIP3   OH2  964   3.658   1.676   0.300
  343TIP3    H1  965   3.605   1.755   0.304
  343TIP3    H2  966   3.635   1.628   0.379
  344TIP3   OH2  967   3.071   1.623   1.856
  344TIP3    H1  968   3.121   1.591   1.931
  344TIP3    H2  969   3.021   1.547   1.826
  345TIP3   OH2  970   3.860   1.728   1.836
  345TIP3    H1  971   3.792   1.666   1.812
  345TIP3    H2  972   3.942   1.685   1.812
  346TIP3   OH2  973   4.078   2.248   1.416
  346TIP3    H1  974   3.983   2.236   1.426
  346TIP3    H2  975   4.105   2.290   1.498
  347TIP3   OH2  976   4.455   1.357   0.298
  347TIP3    H1  977   4.446   1.280   0.241
  347TIP3    H2  978   4.473   1.429   0.237
  348TIP3   OH2  979   4.712   2.153   1.399
  348TIP3    H1  980   4.617   2.149   1.390
  348TIP3    H2  981   4.746   2.131   1.312
  349TIP3   OH2  982   4.169   2.133   0.205
  349TIP3    H1  983   4.182   2.068   0.274
  349TIP3    H2  984   4.221   2.101   0.131
  350TIP3   OH2  985   4.178   1.753   1.041
  350TIP3    H1  986   4.089   1.735   1.073
  350TIP3    H2  987   4.216   1.666   1.027
  351TIP3   OH2  988   3.283   2.016   0.827
  351TIP3    H1  989   3.284   2.102   0.786
  351TIP3    H2  990   3.212   2.021   0.892
  352TIP3   OH2  991   3.347   1.762   0.766
  352TIP3    H1  992   3.336   1.857   0.779
  352TIP3    H2  993   3.442   1.749   0.768
  353TIP3   OH2  994   3.634   2.305   1.297
  353TIP3    H1  995   3.671   2.383   1.255
  353TIP3    H2  996   3.706   2.272   1.351
  354TIP3   OH2  997   3.243   2.277   0.745
  354TIP3    H1  998   3.150   2.289   0.731
  354TIP3    H2  999   3.282   2.361   0.721
  355TIP3   OH2 1000   3.976   1.960   1.273
  355TIP3    H1 1001   3.959   1.958   1.367
  355TIP3    H2 1002   4.066   1.929   1.264
  356TIP3   OH2 1003   4.040   1.841   0.097
  356TIP3    H1 1004   4.048   1.847   0.193
  356TIP3    H2 1005   3.947   1.852   0.080
  357TIP3   OH2 1006   4.226   2.468   1.304
  357TIP3    H1 1007   4.156   2.404   1.317
  357TIP3    H2 1008   4.195   2.522   1.231
  358TIP3   OH2 1009   7.130   6.347   6.884
  358TIP3    H1 1010   7.187   6.423   6.869
  358TIP3    H2 1011   7.045   6.385   6.907
  359TIP3   OH2 1012   3.325   1.105   1.845
  359TIP3    H1 1013   3.230   1.118   1.852
  359TIP3    H2 1014   3.348   1.055   1.924
  360TIP3   OH2 1015   4.235   1.927   0.374
  360TIP3    H1 1016   4.185   1.845   0.379
  360TIP3    H2 1017   4.325   1.898   0.360
  361TIP3   OH2 1018   3.036   2.221   1.510
  361TIP3    H1 1019   3.095   2.167   1.563
  361TIP3    H2 1020   3.067   2.311   1.523
  362TIP3   OH2 1021   3.274   1.780   0.389
  362TIP3    H1 1022   3.320   1.713   0.440
  362TIP3    H2 1023   3.344   1.825   0.341
  363TIP3   OH2 1024   4.151   1.142   1.506
  363TIP3    H1 1025   4.224   1.201   1.522
  363TIP3    H2 1026   4.152   1.081   1.580
  364TIP3   OH2 1027   4.078   0.876   0.589
  364TIP3    H1 1028   3.985   0.894   0.571
  364TIP3    H2 1029   4.112   0.960   0.622
  365TIP3   OH2 1030   3.566   2.211   0.347
  365TIP3    H1 1031   3.530   2.171   0.426
  365TIP3    H2 1032   3.648   2.165   0.332
  366TIP3   OH2 1033   3.664   1.076   0.675
  366TIP3    H1 1034   3.715   1.156   0.689
  366TIP3    H2 1035   3.668   1.030   0.759
  367TIP3   OH2 1036   4.033   1.410   1.590
  367TIP3    H1 1037   4.045   1.468   1.665
  367TIP3    H2 1038   4.083   1.331   1.612
  368TIP3   OH2 1039   3.956   0.776   0.823
  368TIP3    H1 1040   3.928   0.865   0.843
  368TIP3    H2 1041   4.007   0.785   0.743
  369TIP3   OH2 1042   3.185   2.133   0.415
  369TIP3    H1 1043   3.204   2.187   0.338
  369TIP3    H2 1044   3.268   2.126   0.461
  370TIP3   OH2 1045   4.604   1.287   1.542
  370TIP3    H1 1046   4.509   1.291   1.553
  370TIP3    H2 1047   4.617   1.230   1.467
  371TIP3   OH2 1048   4.285   1.500   0.997
  371TIP3    H1 1049   4.297   1.479   0.905
  371TIP3    H2 1050   4.362   1.465   1.041
  372TIP3   OH2 1051   4.249   2.462   0.868
  372TIP3    H1 1052   4.208   2.515   0.800
  372TIP3    H2 1053   4.343   2.477   0.856
  373TIP3   OH2 1054   3.127   0.638   1.538
  373TIP3    H1 1055   3.088   0.650   1.451
  373TIP3    H2 1056   3.145   0.727   1.569
  374TIP3   OH2 1057   2.925   1.906   0.840
  374TIP3    H1 1058   2.885   1.827   0.805
  374TIP3    H2 1059   2.964   1.948   0.763
  375TIP3   OH2 1060   3.072   2.508   1.873
  375TIP3    H1 1061   3.147   2.526   1.929
  375TIP3    H2 1062   3.080   2.415   1.852
  376TIP3   OH2 1063   3.518   2.417   1.922
  376TIP3    H1 1064   3.609   2.390   1.935
  376TIP3    H2 1065   3.489   2.366   1.846
  377TIP3   OH2 1066   6.328   5.919   6.948
  377TIP3    H1 1067   6.315   5.827   6.970
  377TIP3    H2 1068   6.311   5.923   6.854
  378TIP3   OH2 1069   4.134   2.358   1.659
  378TIP3    H1 1070   4.133   2.287   1.723
  378TIP3    H2 1071   4.212   2.409   1.680
  379TIP3   OH2 1072   6.764   6.104   6.947
  379TIP3    H1 1073   6.846   6.100   6.996
  379TIP3    H2 1074   6.790   6.135   6.860
  380TIP3   OH2 1075   3.144   1.870   2.067
  380TIP3    H1 1076   3.179   1.786   2.093
  380TIP3    H2 1077   3.073   1.849   2.006
  381TIP3   OH2 1078   3.772   1.991   1.848
  381TIP3    H1 1079   3.732   2.010   1.763
  381TIP3    H2 1080   3.815   1.906   1.836
  382TIP3   OH2 1081   3.529   1.647   0.055
  382TIP3    H1 1082   3.562   1.643   0.145
  382TIP3    H2 1083   3.596   1.605   0.002
  383TIP3   OH2 1084   4.240   2.020   1.442
  383TIP3    H1 1085   4.320   2.052   1.401
  383TIP3    H2 1086   4.178   2.093   1.434
  384TIP3   OH2 1087   3.276   1.622   2.066
  384TIP3    H1 1088   3.344   1.616   1.999
  384TIP3    H2 1089   3.323   1.644   2.147
  385TIP3   OH2 1090   3.660   1.556   1.764
  385TIP3    H1 1091   3.573   1.595   1.776
  385TIP3    H2 1092   3.681   1.573   1.672
  386TIP3   OH2 1093   4.126   1.902   1.808
  386TIP3    H1 1094   4.203   1.868   1.762
  386TIP3    H2 1095   4.122   1.850   1.889
  387TIP3   OH2 1096   7.210   5.663   6.879
  387TIP3    H1 1097   7.232   5.587   6.825
  387TIP3    H2 1098   7.115   5.670   6.872
  388TIP3   OH2 1099   3.738   1.311   1.860
  388TIP3    H1 1100   3.732   1.239   1.797
  388TIP3    H2 1101   3.713   1.389   1.810
  389TIP3   OH2 1102   3.729   1.104   1.674
  389TIP3    H1 1103   3.752   1.157   1.597
  389TIP3    H2 1104   3.640   1.075   1.657
  390TIP3   OH2 1105   3.773   1.640   1.527
  390TIP3    H1 1106   3.859   1.681   1.520
  390TIP3    H2 1107   3.714   1.702   1.485
  391TIP3   OH2 1108   4.348   1.597   1.896
  391TIP3    H1 1109   4.407   1.522   1.900
  391TIP3    H2 1110   4.406   1.673   1.890
  392TIP3   OH2 1111   4.369   1.852   1.614
  392TIP3    H1 1112   4.313   1.910   1.563
  392TIP3    H2 1113   4.458   1.870   1.582
  393TIP3   OH2 1114   3.610   1.398   2.089
  393TIP3    H1 1115   3.544   1.331   2.108
  393TIP3    H2 1116   3.644   1.374   2.003
  394TIP3   OH2 1117   3.867   0.887   1.768
  394TIP3    H1 1118   3.822   0.968   1.745
  394TIP3    H2 1119   3.800   0.819   1.762
  395TIP3   OH2 1120   4.003   1.343   1.945
  395TIP3    H1 1121   4.005   1.330   2.040
  395TIP3    H2 1122   3.912   1.323   1.920
  396TIP3   OH2 1123   4.246   1.297   1.810
  396TIP3    H1 1124   4.169   1.298   1.867
  396TIP3    H2 1125   4.317   1.267   1.867
  397TIP3   OH2 1126   4.480   1.240   1.969
  397TIP3    H1 1127   4.494   1.149   1.996
  397TIP3    H2 1128   4.470   1.288   2.051
  398TIP3   OH2 1129   3.455   1.175   2.155
  398TIP3    H1 1130   3.464   1.086   2.120
  398TIP3    H2 1131   3.493   1.170   2.242
  399TIP3   OH2 1132   3.967   0.833   2.017
  399TIP3    H1 1133   4.047   0.783   2.002
  399TIP3    H2 1134   3.933   0.851   1.930
  400TIP3   OH2 1135   4.029   1.066   2.149
  400TIP3    H1 1136   4.008   0.989   2.097
  400TIP3    H2 1137   3.950   1.120   2.144
  401TIP3   OH2 1138   3.256   2.331   0.232
  401TIP3    H1 1139   3.306   2.300   0.157
  401TIP3    H2 1140   3.169   2.350   0.197
  402TIP3   OH2 1141   2.501   2.288   0.820
  402TIP3    H1 1142   2.435   2.222   0.837
  402TIP3    H2 1143   2.571   2.269   0.883
  403TIP3   OH2 1144   2.766   2.273   1.055
  403TIP3    H1 1145   2.762   2.178   1.039
  403TIP3    H2 1146   2.844   2.284   1.110
  404TIP3   OH2 1147   4.521   2.517   0.868
  404TIP3    H1 1148   4.537   2.538   0.960
  404TIP3    H2 1149   4.565   2.586   0.819
  405TIP3   OH2 1150   4.542   2.545   1.146
  405TIP3    H1 1151   4.494   2.463   1.144
  405TIP3    H2 1152   4.612   2.532   1.210
  406TIP3   OH2 1153   4.588   2.242   1.723
  406TIP3    H1 1154   4.520   2.253   1.790
  406TIP3    H2 1155   4.635   2.325   1.722
  407TIP3   OH2 1156   4.460   1.762   0.347
  407TIP3    H1 1157   4.532   1.824   0.333
  407TIP3    H2 1158   4.483   1.714   0.426
  408TIP3   OH2 1159   4.535   1.601   0.557
  408TIP3    H1 1160   4.479   1.540   0.604
  408TIP3    H2 1161   4.594   1.636   0.625
  409TIP3   OH2 1162   4.594   2.022   0.961
  409TIP3    H1 1163   4.647   1.957   0.916
  409TIP3    H2 1164   4.596   2.099   0.903
  410TIP3   OH2 1165   4.397   2.310   1.149
  410TIP3    H1 1166   4.332   2.354   1.203
  410TIP3    H2 1167   4.346   2.269   1.079
  411TIP3   OH2 1168   4.525   1.582   0.151
  411TIP3    H1 1169   4.475   1.611   0.074
  411TIP3    H2 1170   4.498   1.641   0.221
  412TIP3   OH2 1171   4.213   1.139   0.120
  412TIP3    H1 1172   4.239   1.226   0.090
  412TIP3    H2 1173   4.132   1.153   0.168
  413TIP3   OH2 1174   3.076   1.736   1.384
  413TIP3    H1 1175   3.013   1.665   1.371
  413TIP3    H2 1176   3.125   1.711   1.463
  414TIP3   OH2 1177   4.626   1.901   1.522
  414TIP3    H1 1178   4.693   1.835   1.508
  414TIP3    H2 1179   4.655   1.976   1.470
  415TIP3   OH2 1180   4.803   1.691   1.521
  415TIP3    H1 1181   4.730   1.647   1.564
  415TIP3    H2 1182   4.879   1.637   1.541
  416TIP3   OH2 1183   4.500   1.374   1.107
  416TIP3    H1 1184   4.579   1.387   1.054
  416TIP3    H2 1185   4.521   1.415   1.191
  417TIP3   OH2 1186   4.575   1.531   1.320
  417TIP3    H1 1187   4.501   1.559   1.374
  417TIP3    H2 1188   4.604   1.611   1.276
  418TIP3   OH2 1189   3.194   1.251   2.116
  418TIP3    H1 1190   3.288   1.241   2.129
  418TIP3    H2 1191   3.156   1.169   2.149
  419TIP3   OH2 1192   5.009   1.112   1.839
  419TIP3    H1 1193   5.086   1.063   1.810
  419TIP3    H2 1194   4.985   1.165   1.763
  420TIP3   OH2 1195   4.463   0.973   0.616
  420TIP3    H1 1196   4.502   0.994   0.701
  420TIP3    H2 1197   4.396   0.908   0.636
  421TIP3   OH2 1198   3.145   0.916   1.558
  421TIP3    H1 1199   3.130   0.896   1.466
  421TIP3    H2 1200   3.182   1.005   1.557
  422TIP3   OH2 1201   2.953   1.175   1.518
  422TIP3    H1 1202   2.956   1.148   1.426
  422TIP3    H2 1203   2.926   1.266   1.515
  423TIP3   OH2 1204   4.881   1.243   1.635
  423TIP3    H1 1205   4.805   1.274   1.684
  423TIP3    H2 1206   4.848   1.170   1.583
  424TIP3   OH2 1207   4.125   2.413   0.512
  424TIP3    H1 1208   4.175   2.420   0.431
  424TIP3    H2 1209   4.144   2.495   0.559
  425TIP3   OH2 1210   3.161   0.790   1.880
  425TIP3    H1 1211   3.115   0.769   1.961
  425TIP3    H2 1212   3.097   0.840   1.829
  426TIP3   OH2 1213   3.159   2.242   1.846
  426TIP3    H1 1214   3.157   2.159   1.799
  426TIP3    H2 1215   3.174   2.218   1.937
  427TIP3   OH2 1216   3.400   2.276   1.439
  427TIP3    H1 1217   3.353   2.354   1.409
  427TIP3    H2 1218   3.485   2.281   1.396
  428TIP3   OH2 1219   3.794   2.501   1.577
  428TIP3    H1 1220   3.831   2.492   1.665
  428TIP3    H2 1221   3.858   2.553   1.529
  429TIP3   OH2 1222   3.990   2.651   1.453
  429TIP3    H1 1223   4.057   2.595   1.413
  429TIP3    H2 1224   4.040   2.712   1.508
  430TIP3   OH2 1225   4.807   0.990   1.525
  430TIP3    H1 1226   4.721   0.957   1.498
  430TIP3    H2 1227   4.859   0.910   1.540
  431TIP3   OH2 1228   3.047   2.506   1.492
  431TIP3    H1 1229   2.955   2.522   1.470
  431TIP3    H2 1230   3.070   2.576   1.552
  432TIP3   OH2 1231   3.290   2.511   1.352
  432TIP3    H1 1232   3.203   2.514   1.392
  432TIP3    H2 1233   3.276   2.542   1.262
  433TIP3   OH2 1234   3.708   2.519   1.138
  433TIP3    H1 1235   3.643   2.536   1.069
  433TIP3    H2 1236   3.722   2.604   1.179
  434TIP3   OH2 1237   3.967   2.442   1.170
  434TIP3    H1 1238   3.876   2.469   1.160
  434TIP3    H2 1239   4.018   2.511   1.129
  435TIP3   OH2 1240   4.160   2.620   1.076
  435TIP3    H1 1241   4.161   2.708   1.040
  435TIP3    H2 1242   4.190   2.564   1.004
  436TIP3   OH2 1243   2.969   2.301   1.251
  436TIP3    H1 1244   2.980   2.283   1.344
  436TIP3    H2 1245   3.057   2.295   1.215
  437TIP3   OH2 1246   3.225   2.241   1.191
  437TIP3    H1 1247   3.239   2.160   1.239
  437TIP3    H2 1248   3.311   2.266   1.159
  438TIP3   OH2 1249   3.471   2.283   1.077
  438TIP3    H1 1250   3.481   2.193   1.048
  438TIP3    H2 1251   3.532   2.292   1.151
  439TIP3   OH2 1252   4.092   0.888   1.184
  439TIP3    H1 1253   4.093   0.885   1.280
  439TIP3    H2 1254   4.000   0.870   1.161
  440TIP3   OH2 1255   4.602   0.987   0.852
  440TIP3    H1 1256   4.668   0.917   0.846
  440TIP3    H2 1257   4.653   1.068   0.842
  441TIP3   OH2 1258   3.714   0.662   0.985
  441TIP3    H1 1259   3.627   0.630   1.009
  441TIP3    H2 1260   3.756   0.682   1.069
  442TIP3   OH2 1261   4.303   0.750   0.689
  442TIP3    H1 1262   4.227   0.791   0.647
  442TIP3    H2 1263   4.265   0.679   0.742
  443TIP3   OH2 1264   3.486   2.233   0.090
  443TIP3    H1 1265   3.532   2.310   0.058
  443TIP3    H2 1266   3.512   2.226   0.182
  444TIP3   OH2 1267   4.227   2.397   0.255
  444TIP3    H1 1268   4.210   2.304   0.247
  444TIP3    H2 1269   4.181   2.436   0.180
  445TIP3   OH2 1270   3.481   0.911   2.076
  445TIP3    H1 1271   3.442   0.841   2.129
  445TIP3    H2 1272   3.573   0.912   2.102
  446TIP3   OH2 1273   3.732   0.889   2.185
  446TIP3    H1 1274   3.813   0.866   2.139
  446TIP3    H2 1275   3.723   0.820   2.251
  447TIP3   OH2 1276   4.453   2.522   1.460
  447TIP3    H1 1277   4.374   2.493   1.414
  447TIP3    H2 1278   4.439   2.615   1.476
  448TIP3   OH2 1279   5.629   1.882   0.235
  448TIP3    H1 1280   5.629   1.976   0.216
  448TIP3    H2 1281   5.667   1.842   0.157
  449TIP3   OH2 1282   5.711   1.914   0.636
  449TIP3    H1 1283   5.760   1.895   0.716
  449TIP3    H2 1284   5.662   1.833   0.619
  450TIP3   OH2 1285   5.039   1.801   0.987
  450TIP3    H1 1286   5.057   1.718   1.029
  450TIP3    H2 1287   5.079   1.867   1.045
  451TIP3   OH2 1288   5.998   2.213   0.321
  451TIP3    H1 1289   5.975   2.151   0.390
  451TIP3    H2 1290   6.022   2.293   0.367
  452TIP3   OH2 1291   5.032   2.175   0.650
  452TIP3    H1 1292   5.025   2.084   0.681
  452TIP3    H2 1293   5.126   2.190   0.643
  453TIP3   OH2 1294   4.733   1.437   0.454
  453TIP3    H1 1295   4.669   1.504   0.476
  453TIP3    H2 1296   4.690   1.354   0.476
  454TIP3   OH2 1297   4.772   1.695   0.680
  454TIP3    H1 1298   4.821   1.617   0.705
  454TIP3    H2 1299   4.834   1.746   0.628
  455TIP3   OH2 1300   5.651   2.640   0.324
  455TIP3    H1 1301   5.675   2.572   0.261
  455TIP3    H2 1302   5.654   2.595   0.409
  456TIP3   OH2 1303   5.532   2.132   0.633
  456TIP3    H1 1304   5.577   2.050   0.611
  456TIP3    H2 1305   5.600   2.190   0.667
  457TIP3   OH2 1306   5.930   1.615   0.672
  457TIP3    H1 1307   5.954   1.527   0.702
  457TIP3    H2 1308   5.868   1.601   0.601
  458TIP3   OH2 1309   5.232   1.291   0.627
  458TIP3    H1 1310   5.149   1.316   0.585
  458TIP3    H2 1311   5.248   1.202   0.596
  459TIP3   OH2 1312   4.922   1.484   0.764
  459TIP3    H1 1313   4.999   1.465   0.818
  459TIP3    H2 1314   4.922   1.415   0.697
  460TIP3   OH2 1315   6.523   1.616   0.845
  460TIP3    H1 1316   6.448   1.676   0.846
  460TIP3    H2 1317   6.583   1.650   0.912
  461TIP3   OH2 1318   5.270   1.276   1.092
  461TIP3    H1 1319   5.227   1.324   1.022
  461TIP3    H2 1320   5.215   1.290   1.169
  462TIP3   OH2 1321   5.617   2.124   0.098
  462TIP3    H1 1322   5.589   2.097   0.010
  462TIP3    H2 1323   5.564   2.202   0.116
  463TIP3   OH2 1324   5.376   2.052   0.849
  463TIP3    H1 1325   5.315   2.116   0.885
  463TIP3    H2 1326   5.421   2.098   0.778
  464TIP3   OH2 1327   5.165   1.393   0.869
  464TIP3    H1 1328   5.220   1.470   0.886
  464TIP3    H2 1329   5.196   1.359   0.786
  465TIP3   OH2 1330   5.210   2.247   0.954
  465TIP3    H1 1331   5.198   2.338   0.926
  465TIP3    H2 1332   5.133   2.227   1.007
  466TIP3   OH2 1333   4.634   1.950   0.240
  466TIP3    H1 1334   4.592   1.961   0.154
  466TIP3    H2 1335   4.643   2.039   0.274
  467TIP3   OH2 1336   6.041   2.465   0.453
  467TIP3    H1 1337   5.954   2.451   0.492
  467TIP3    H2 1338   6.031   2.547   0.403
  468TIP3   OH2 1339   5.721   2.489   0.099
  468TIP3    H1 1340   5.776   2.411   0.096
  468TIP3    H2 1341   5.774   2.557   0.058
  469TIP3   OH2 1342   5.863   2.260   0.086
  469TIP3    H1 1343   5.793   2.194   0.087
  469TIP3    H2 1344   5.919   2.235   0.160
  470TIP3   OH2 1345   6.266   2.316   0.819
  470TIP3    H1 1346   6.237   2.252   0.754
  470TIP3    H2 1347   6.259   2.400   0.774
  471TIP3   OH2 1348   6.387   1.989   0.688
  471TIP3    H1 1349   6.307   2.036   0.668
  471TIP3    H2 1350   6.450   2.019   0.622
  472TIP3   OH2 1351   6.088   1.865   0.987
  472TIP3    H1 1352   6.083   1.942   1.043
  472TIP3    H2 1353   6.006   1.865   0.938
  473TIP3   OH2 1354   5.287   2.242   0.551
  473TIP3    H1 1355   5.273   2.220   0.459
  473TIP3    H2 1356   5.374   2.207   0.571
  474TIP3   OH2 1357   5.326   1.802   0.742
  474TIP3    H1 1358   5.408   1.768   0.705
  474TIP3    H2 1359   5.350   1.886   0.780
  475TIP3   OH2 1360   5.800   2.441   0.577
  475TIP3    H1 1361   5.780   2.521   0.625
  475TIP3    H2 1362   5.783   2.371   0.639
  476TIP3   OH2 1363   5.410   2.340   1.123
  476TIP3    H1 1364   5.351   2.398   1.172
  476TIP3    H2 1365   5.352   2.290   1.066
  477TIP3   OH2 1366   5.155   1.911   1.223
  477TIP3    H1 1367   5.169   1.999   1.260
  477TIP3    H2 1368   5.068   1.886   1.254
  478TIP3   OH2 1369   5.476   2.364   0.121
  478TIP3    H1 1370   5.558   2.413   0.120
  478TIP3    H2 1371   5.413   2.423   0.080
  479TIP3   OH2 1372   5.203   2.500   1.212
  479TIP3    H1 1373   5.175   2.514   1.121
  479TIP3    H2 1374   5.122   2.487   1.260
  480TIP3   OH2 1375   4.983   1.635   0.294
  480TIP3    H1 1376   4.898   1.661   0.260
  480TIP3    H2 1377   4.968   1.550   0.336
  481TIP3   OH2 1378   4.795   2.057   1.157
  481TIP3    H1 1379   4.723   2.040   1.096
  481TIP3    H2 1380   4.824   1.970   1.184
  482TIP3   OH2 1381   4.635   2.265   0.819
  482TIP3    H1 1382   4.722   2.294   0.844
  482TIP3    H2 1383   4.578   2.339   0.842
  483TIP3   OH2 1384   6.484   2.777   0.852
  483TIP3    H1 1385   6.532   2.694   0.858
  483TIP3    H2 1386   6.406   2.764   0.905
  484TIP3   OH2 1387   5.598   2.485   0.985
  484TIP3    H1 1388   5.591   2.577   1.013
  484TIP3    H2 1389   5.530   2.440   1.035
  485TIP3   OH2 1390   8.179   6.606   6.886
  485TIP3    H1 1391   8.103   6.590   6.830
  485TIP3    H2 1392   8.164   6.694   6.922
  486TIP3   OH2 1393   4.820   2.443   0.315
  486TIP3    H1 1394   4.866   2.437   0.399
  486TIP3    H2 1395   4.772   2.361   0.309
  487TIP3   OH2 1396   8.387   6.473   6.768
  487TIP3    H1 1397   8.325   6.532   6.812
  487TIP3    H2 1398   8.463   6.472   6.825
  488TIP3   OH2 1399   6.350   1.827   1.178
  488TIP3    H1 1400   6.301   1.804   1.099
  488TIP3    H2 1401   6.385   1.744   1.209
  489TIP3   OH2 1402   4.992   2.246   1.122
  489TIP3    H1 1403   5.040   2.244   1.205
  489TIP3    H2 1404   4.921   2.184   1.133
  490TIP3   OH2 1405   5.350   1.049   0.956
  490TIP3    H1 1406   5.268   1.015   0.919
  490TIP3    H2 1407   5.324   1.129   1.001
  491TIP3   OH2 1408   5.916   1.160   1.134
  491TIP3    H1 1409   5.978   1.130   1.201
  491TIP3    H2 1410   5.830   1.148   1.174
  492TIP3   OH2 1411   6.131   1.602   1.062
  492TIP3    H1 1412   6.088   1.590   1.146
  492TIP3    H2 1413   6.103   1.688   1.032
  493TIP3   OH2 1414   5.321   1.605   0.941
  493TIP3    H1 1415   5.270   1.623   1.020
  493TIP3    H2 1416   5.309   1.683   0.887
  494TIP3   OH2 1417   5.860   1.805   1.266
  494TIP3    H1 1418   5.833   1.739   1.329
  494TIP3    H2 1419   5.953   1.821   1.286
  495TIP3   OH2 1420   5.768   1.567   0.457
  495TIP3    H1 1421   5.778   1.619   0.377
  495TIP3    H2 1422   5.756   1.478   0.426
  496TIP3   OH2 1423   5.142   1.601   1.156
  496TIP3    H1 1424   5.152   1.662   1.229
  496TIP3    H2 1425   5.127   1.517   1.198
  497TIP3   OH2 1426   4.761   1.209   0.787
  497TIP3    H1 1427   4.839   1.202   0.842
  497TIP3    H2 1428   4.778   1.151   0.714
  498TIP3   OH2 1429   4.868   1.138   0.366
  498TIP3    H1 1430   4.881   1.171   0.277
  498TIP3    H2 1431   4.776   1.156   0.385
  499TIP3   OH2 1432   5.852   1.808   0.851
  499TIP3    H1 1433   5.885   1.745   0.787
  499TIP3    H2 1434   5.812   1.754   0.920
  500TIP3   OH2 1435   5.513   1.363   0.633
  500TIP3    H1 1436   5.419   1.344   0.633
  500TIP3    H2 1437   5.535   1.374   0.726
  501TIP3   OH2 1438   4.974   1.333   0.528
  501TIP3    H1 1439   4.897   1.385   0.507
  501TIP3    H2 1440   4.960   1.250   0.482
  502TIP3   OH2 1441   5.959   1.352   0.744
  502TIP3    H1 1442   5.942   1.369   0.836
  502TIP3    H2 1443   5.944   1.257   0.734
  503TIP3   OH2 1444   6.210   3.041   0.952
  503TIP3    H1 1445   6.202   3.061   0.858
  503TIP3    H2 1446   6.287   3.090   0.980
  504TIP3   OH2 1447   5.160   2.157   1.355
  504TIP3    H1 1448   5.239   2.178   1.404
  504TIP3    H2 1449   5.089   2.161   1.419
  505TIP3   OH2 1450   5.583   1.667   0.651
  505TIP3    H1 1451   5.626   1.622   0.578
  505TIP3    H2 1452   5.581   1.603   0.721
  506TIP3   OH2 1453   5.573   1.510   0.892
  506TIP3    H1 1454   5.489   1.551   0.915
  506TIP3    H2 1455   5.638   1.560   0.942
  507TIP3   OH2 1456   5.281   1.945  -0.000
  507TIP3    H1 1457   5.253   1.854  -0.011
  507TIP3    H2 1458   5.299   1.954   0.093
  508TIP3   OH2 1459   6.179   2.154   0.621
  508TIP3    H1 1460   6.221   2.195   0.545
  508TIP3    H2 1461   6.097   2.118   0.587
  509TIP3   OH2 1462   5.719   2.220   1.023
  509TIP3    H1 1463   5.758   2.210   1.109
  509TIP3    H2 1464   5.677   2.306   1.025
  510TIP3   OH2 1465   5.061   1.898   0.724
  510TIP3    H1 1466   5.148   1.863   0.709
  510TIP3    H2 1467   5.040   1.872   0.814
  511TIP3   OH2 1468   8.327   6.060   6.804
  511TIP3    H1 1469   8.290   6.136   6.759
  511TIP3    H2 1470   8.251   6.015   6.842
  512TIP3   OH2 1471   4.899   1.826   1.290
  512TIP3    H1 1472   4.906   1.806   1.384
  512TIP3    H2 1473   4.821   1.780   1.261
  513TIP3   OH2 1474   5.629   1.960   1.309
  513TIP3    H1 1475   5.558   1.902   1.281
  513TIP3    H2 1476   5.709   1.917   1.278
  514TIP3   OH2 1477   5.869   2.505   0.910
  514TIP3    H1 1478   5.774   2.494   0.912
  514TIP3    H2 1479   5.891   2.542   0.995
  515TIP3   OH2 1480   6.503   2.495   0.920
  515TIP3    H1 1481   6.420   2.512   0.964
  515TIP3    H2 1482   6.479   2.478   0.828
  516TIP3   OH2 1483   5.950   2.029   0.529
  516TIP3    H1 1484   5.860   2.000   0.546
  516TIP3    H2 1485   5.999   1.947   0.516
  517TIP3   OH2 1486   5.135   2.197   0.303
  517TIP3    H1 1487   5.140   2.273   0.246
  517TIP3    H2 1488   5.059   2.214   0.359
  518TIP3   OH2 1489   4.788   1.579   0.057
  518TIP3    H1 1490   4.796   1.674   0.071
  518TIP3    H2 1491   4.698   1.559   0.083
  519TIP3   OH2 1492   5.186   1.920   0.274
  519TIP3    H1 1493   5.162   2.013   0.273
  519TIP3    H2 1494   5.254   1.914   0.342
  520TIP3   OH2 1495   5.417   2.561   0.777
  520TIP3    H1 1496   5.453   2.635   0.729
  520TIP3    H2 1497   5.491   2.529   0.830
  521TIP3   OH2 1498   5.059   2.451   0.175
  521TIP3    H1 1499   4.970   2.456   0.210
  521TIP3    H2 1500   5.093   2.540   0.184
  522TIP3   OH2 1501   5.767   2.225   0.750
  522TIP3    H1 1502   5.755   2.219   0.845
  522TIP3    H2 1503   5.843   2.170   0.732
  523TIP3   OH2 1504   6.027   2.706   0.790
  523TIP3    H1 1505   5.955   2.647   0.809
  523TIP3    H2 1506   5.996   2.760   0.717
  524TIP3   OH2 1507   5.100   1.354   1.293
  524TIP3    H1 1508   5.005   1.363   1.302
  524TIP3    H2 1509   5.127   1.308   1.373
  525TIP3   OH2 1510   4.843   2.447   0.935
  525TIP3    H1 1511   4.896   2.389   0.990
  525TIP3    H2 1512   4.853   2.534   0.974
  526TIP3   OH2 1513   7.914   5.974   6.583
  526TIP3    H1 1514   7.988   6.010   6.534
  526TIP3    H2 1515   7.907   6.031   6.659
  527TIP3   OH2 1516   7.913   6.105   6.825
  527TIP3    H1 1517   7.991   6.067   6.865
  527TIP3    H2 1518   7.924   6.199   6.837
  528TIP3   OH2 1519   4.866   1.836   0.150
  528TIP3    H1 1520   4.790   1.866   0.200
  528TIP3    H2 1521   4.860   1.883   0.066
  529TIP3   OH2 1522   5.931   1.407   1.011
  529TIP3    H1 1523   6.016   1.444   1.033
  529TIP3    H2 1524   5.929   1.323   1.058
  530TIP3   OH2 1525   8.188   6.282   6.723
  530TIP3    H1 1526   8.117   6.319   6.775
  530TIP3    H2 1527   8.258   6.348   6.727
  531TIP3   OH2 1528   5.774   1.633   1.047
  531TIP3    H1 1529   5.801   1.679   1.127
  531TIP3    H2 1530   5.826   1.553   1.047
  532TIP3   OH2 1531   7.962   6.369   6.865
  532TIP3    H1 1532   7.935   6.440   6.807
  532TIP3    H2 1533   7.935   6.399   6.952
  533TIP3   OH2 1534   6.396   1.546   1.085
  533TIP3    H1 1535   6.300   1.550   1.079
  533TIP3    H2 1536   6.424   1.532   0.994
  534TIP3   OH2 1537   6.084   1.788   0.523
  534TIP3    H1 1538   6.030   1.729   0.575
  534TIP3    H2 1539   6.170   1.746   0.520
  535TIP3   OH2 1540   7.672   5.974   6.855
  535TIP3    H1 1541   7.735   6.046   6.846
  535TIP3    H2 1542   7.706   5.906   6.797
  536TIP3   OH2 1543   6.029   2.722   0.341
  536TIP3    H1 1544   5.985   2.770   0.271
  536TIP3    H2 1545   6.121   2.749   0.336
  537TIP3   OH2 1546   5.101   0.940   0.887
  537TIP3    H1 1547   5.060   0.901   0.811
  537TIP3    H2 1548   5.107   0.869   0.951
  538TIP3   OH2 1549   4.654   2.215   0.321
  538TIP3    H1 1550   4.618   2.256   0.400
  538TIP3    H2 1551   4.604   2.254   0.249
  539TIP3   OH2 1552   4.840   2.759   1.365
  539TIP3    H1 1553   4.922   2.764   1.415
  539TIP3    H2 1554   4.819   2.665   1.363
  540TIP3   OH2 1555   5.308   2.672   1.402
  540TIP3    H1 1556   5.399   2.646   1.412
  540TIP3    H2 1557   5.274   2.614   1.333
  541TIP3   OH2 1558   5.928   2.603   1.159
  541TIP3    H1 1559   5.939   2.534   1.225
  541TIP3    H2 1560   5.999   2.664   1.176
  542TIP3   OH2 1561   4.953   2.141   1.537
  542TIP3    H1 1562   4.970   2.048   1.551
  542TIP3    H2 1563   4.862   2.145   1.506
  543TIP3   OH2 1564   7.828   5.769   6.742
  543TIP3    H1 1565   7.807   5.690   6.692
  543TIP3    H2 1566   7.862   5.830   6.677
  544TIP3   OH2 1567   5.573   2.239   1.322
  544TIP3    H1 1568   5.522   2.258   1.243
  544TIP3    H2 1569   5.603   2.149   1.310
  545TIP3   OH2 1570   6.024   2.276   0.952
  545TIP3    H1 1571   6.105   2.299   0.907
  545TIP3    H2 1572   5.964   2.347   0.931
  546TIP3   OH2 1573   5.076   1.884   1.549
  546TIP3    H1 1574   5.158   1.847   1.515
  546TIP3    H2 1575   5.099   1.916   1.637
  547TIP3   OH2 1576   7.970   5.711   6.967
  547TIP3    H1 1577   7.915   5.732   6.892
  547TIP3    H2 1578   8.014   5.630   6.942
  548TIP3   OH2 1579   5.416   1.791   1.205
  548TIP3    H1 1580   5.332   1.837   1.207
  548TIP3    H2 1581   5.455   1.817   1.121
  549TIP3   OH2 1582   5.904   2.160   1.318
  549TIP3    H1 1583   5.970   2.125   1.259
  549TIP3    H2 1584   5.906   2.101   1.394
  550TIP3   OH2 1585   5.523   1.563   1.318
  550TIP3    H1 1586   5.525   1.489   1.257
  550TIP3    H2 1587   5.486   1.635   1.267
  551TIP3   OH2 1588   5.531   1.353   1.128
  551TIP3    H1 1589   5.557   1.386   1.042
  551TIP3    H2 1590   5.441   1.323   1.116
  552TIP3   OH2 1591   5.544   1.883   0.984
  552TIP3    H1 1592   5.634   1.910   0.965
  552TIP3    H2 1593   5.490   1.950   0.941
  553TIP3   OH2 1594   6.132   1.824   1.367
  553TIP3    H1 1595   6.152   1.734   1.394
  553TIP3    H2 1596   6.203   1.848   1.308
  554TIP3   OH2 1597   6.109   2.102   1.141
  554TIP3    H1 1598   6.062   2.162   1.083
  554TIP3    H2 1599   6.199   2.103   1.109
  555TIP3   OH2 1600   5.409   1.645   1.561
  555TIP3    H1 1601   5.340   1.582   1.581
  555TIP3    H2 1602   5.439   1.620   1.473
  556TIP3   OH2 1603   5.658   1.124   1.224
  556TIP3    H1 1604   5.616   1.204   1.193
  556TIP3    H2 1605   5.592   1.056   1.211
  557TIP3   OH2 1606   5.776   1.598   1.424
  557TIP3    H1 1607   5.763   1.587   1.519
  557TIP3    H2 1608   5.690   1.579   1.386
  558TIP3   OH2 1609   6.017   1.546   1.298
  558TIP3    H1 1610   5.937   1.547   1.350
  558TIP3    H2 1611   6.085   1.515   1.358
  559TIP3   OH2 1612   6.240   1.502   1.456
  559TIP3    H1 1613   6.247   1.407   1.464
  559TIP3    H2 1614   6.242   1.534   1.547
  560TIP3   OH2 1615   5.245   1.423   1.617
  560TIP3    H1 1616   5.248   1.333   1.585
  560TIP3    H2 1617   5.283   1.419   1.704
  561TIP3   OH2 1618   5.713   1.112   1.491
  561TIP3    H1 1619   5.776   1.040   1.490
  561TIP3    H2 1620   5.688   1.123   1.399
  562TIP3   OH2 1621   5.812   1.322   1.635
  562TIP3    H1 1622   5.781   1.253   1.577
  562TIP3    H2 1623   5.742   1.387   1.635
  563TIP3   OH2 1624   7.947   6.583   6.694
  563TIP3    H1 1625   7.959   6.557   6.602
  563TIP3    H2 1626   7.884   6.654   6.691
  564TIP3   OH2 1627   7.399   5.980   6.905
  564TIP3    H1 1628   7.490   5.998   6.883
  564TIP3    H2 1629   7.364   5.935   6.828
  565TIP3   OH2 1630   4.442   2.530   0.374
  565TIP3    H1 1631   4.383   2.478   0.319
  565TIP3    H2 1632   4.484   2.466   0.432
  566TIP3   OH2 1633   4.585   2.363   0.549
  566TIP3    H1 1634   4.577   2.300   0.621
  566TIP3    H2 1635   4.637   2.435   0.586
  567TIP3   OH2 1636   6.286   2.800   0.329
  567TIP3    H1 1637   6.332   2.817   0.411
  567TIP3    H2 1638   6.348   2.826   0.261
  568TIP3   OH2 1639   6.305   2.812   0.637
  568TIP3    H1 1640   6.284   2.719   0.629
  568TIP3    H2 1641   6.383   2.814   0.692
  569TIP3   OH2 1642   6.380   2.512   1.178
  569TIP3    H1 1643   6.310   2.508   1.242
  569TIP3    H2 1644   6.423   2.596   1.195
  570TIP3   OH2 1645   6.350   2.266   0.440
  570TIP3    H1 1646   6.388   2.201   0.381
  570TIP3    H2 1647   6.355   2.349   0.391
  571TIP3   OH2 1648   6.209   2.539   0.664
  571TIP3    H1 1649   6.145   2.593   0.711
  571TIP3    H2 1650   6.161   2.506   0.588
  572TIP3   OH2 1651   4.767   1.799   0.932
  572TIP3    H1 1652   4.757   1.764   0.843
  572TIP3    H2 1653   4.861   1.805   0.945
  573TIP3   OH2 1654   6.347   2.146   1.027
  573TIP3    H1 1655   6.423   2.095   0.998
  573TIP3    H2 1656   6.328   2.203   0.953
  574TIP3   OH2 1657   6.562   1.968   1.060
  574TIP3    H1 1658   6.495   1.920   1.109
  574TIP3    H2 1659   6.632   1.980   1.124
  575TIP3   OH2 1660   6.307   1.630   0.594
  575TIP3    H1 1661   6.336   1.543   0.620
  575TIP3    H2 1662   6.300   1.679   0.676
  576TIP3   OH2 1663   6.306   1.779   0.837
  576TIP3    H1 1664   6.226   1.805   0.881
  576TIP3    H2 1665   6.333   1.857   0.788
  577TIP3   OH2 1666   4.982   1.488   1.568
  577TIP3    H1 1667   5.076   1.485   1.585
  577TIP3    H2 1668   4.949   1.406   1.605
  578TIP3   OH2 1669   6.808   1.334   1.365
  578TIP3    H1 1670   6.895   1.350   1.327
  578TIP3    H2 1671   6.748   1.381   1.308
  579TIP3   OH2 1672   4.983   1.189   0.937
  579TIP3    H1 1673   5.029   1.105   0.931
  579TIP3    H2 1674   5.052   1.254   0.925
  580TIP3   OH2 1675   4.737   1.434   0.987
  580TIP3    H1 1676   4.754   1.400   0.899
  580TIP3    H2 1677   4.778   1.520   0.987
  581TIP3   OH2 1678   6.619   1.462   1.216
  581TIP3    H1 1679   6.532   1.487   1.184
  581TIP3    H2 1680   6.664   1.428   1.139
  582TIP3   OH2 1681   4.810   1.006   0.605
  582TIP3    H1 1682   4.749   0.940   0.573
  582TIP3    H2 1683   4.850   1.043   0.526
  583TIP3   OH2 1684   0.189   6.700   6.919
  583TIP3    H1 1685   0.247   6.687   6.844
  583TIP3    H2 1686   0.233   6.767   6.972
  584TIP3   OH2 1687   4.938   1.007   1.274
  584TIP3    H1 1688   4.898   1.015   1.361
  584TIP3    H2 1689   4.889   1.069   1.220
  585TIP3   OH2 1690   4.975   2.471   1.366
  585TIP3    H1 1691   4.881   2.456   1.354
  585TIP3    H2 1692   4.990   2.458   1.460
  586TIP3   OH2 1693   5.188   2.522   0.926
  586TIP3    H1 1694   5.136   2.596   0.895
  586TIP3    H2 1695   5.273   2.533   0.884
  587TIP3   OH2 1696   5.587   2.752   1.059
  587TIP3    H1 1697   5.623   2.747   1.147
  587TIP3    H2 1698   5.650   2.808   1.011
  588TIP3   OH2 1699   5.778   2.911   0.938
  588TIP3    H1 1700   5.842   2.863   0.886
  588TIP3    H2 1701   5.831   2.970   0.992
  589TIP3   OH2 1702   4.848   2.760   0.971
  589TIP3    H1 1703   4.756   2.776   0.947
  589TIP3    H2 1704   4.867   2.825   1.038
  590TIP3   OH2 1705   5.078   2.752   0.821
  590TIP3    H1 1706   4.996   2.757   0.870
  590TIP3    H2 1707   5.054   2.780   0.733
  591TIP3   OH2 1708   5.492   2.773   0.614
  591TIP3    H1 1709   5.416   2.785   0.556
  591TIP3    H2 1710   5.503   2.858   0.657
  592TIP3   OH2 1711   5.749   2.694   0.669
  592TIP3    H1 1712   5.659   2.722   0.648
  592TIP3    H2 1713   5.805   2.759   0.627
  593TIP3   OH2 1714   5.947   2.855   0.568
  593TIP3    H1 1715   5.948   2.946   0.539
  593TIP3    H2 1716   5.976   2.805   0.492
  594TIP3   OH2 1717   4.762   2.543   0.681
  594TIP3    H1 1718   4.780   2.519   0.772
  594TIP3    H2 1719   4.835   2.506   0.631
  595TIP3   OH2 1720   4.966   2.421   0.548
  595TIP3    H1 1721   4.978   2.336   0.590
  595TIP3    H2 1722   5.051   2.464   0.557
  596TIP3   OH2 1723   5.230   2.514   0.576
  596TIP3    H1 1724   5.253   2.423   0.558
  596TIP3    H2 1725   5.283   2.538   0.652
  597TIP3   OH2 1726   4.521   2.333   0.118
  597TIP3    H1 1727   4.437   2.312   0.079
  597TIP3    H2 1728   4.557   2.403   0.064
  598TIP3   OH2 1729   5.248   1.150   1.526
  598TIP3    H1 1730   5.213   1.086   1.588
  598TIP3    H2 1731   5.340   1.159   1.552
  599TIP3   OH2 1732   5.493   1.170   1.655
  599TIP3    H1 1733   5.572   1.144   1.607
  599TIP3    H2 1734   5.481   1.100   1.720
  600TIP3   OH2 1735   7.525   6.377   6.727
  600TIP3    H1 1736   7.438   6.416   6.734
  600TIP3    H2 1737   7.520   6.322   6.649
  601TIP3   OH2 1738   6.274   1.227   1.476
  601TIP3    H1 1739   6.294   1.199   1.565
  601TIP3    H2 1740   6.358   1.221   1.430
  602TIP3   OH2 1741   6.234   2.767   0.967
  602TIP3    H1 1742   6.164   2.738   0.908
  602TIP3    H2 1743   6.226   2.862   0.968
  603TIP3   OH2 1744   6.858   2.118   0.449
  603TIP3    H1 1745   6.947   2.084   0.442
  603TIP3    H2 1746   6.849   2.179   0.376
  604TIP3   OH2 1747   6.803   2.313   0.265
  604TIP3    H1 1748   6.730   2.278   0.214
  604TIP3    H2 1749   6.807   2.405   0.241
  605TIP3   OH2 1750   7.095   2.499   0.251
  605TIP3    H1 1751   7.077   2.488   0.345
  605TIP3    H2 1752   7.189   2.485   0.243
  606TIP3   OH2 1753   6.983   2.517   0.506
  606TIP3    H1 1754   6.951   2.589   0.450
  606TIP3    H2 1755   6.904   2.468   0.530
  607TIP3   OH2 1756   7.235   2.531   0.604
  607TIP3    H1 1757   7.264   2.619   0.581
  607TIP3    H2 1758   7.151   2.520   0.558
  608TIP3   OH2 1759   7.096   2.114   0.759
  608TIP3    H1 1760   7.104   2.209   0.759
  608TIP3    H2 1761   7.004   2.097   0.739
  609TIP3   OH2 1762   6.867   2.959   0.719
  609TIP3    H1 1763   6.900   2.983   0.633
  609TIP3    H2 1764   6.871   2.863   0.720
  610TIP3   OH2 1765   6.500   2.404   0.650
  610TIP3    H1 1766   6.424   2.392   0.592
  610TIP3    H2 1767   6.572   2.362   0.604
  611TIP3   OH2 1768   6.393   2.518   0.343
  611TIP3    H1 1769   6.450   2.584   0.381
  611TIP3    H2 1770   6.312   2.565   0.323
  612TIP3   OH2 1771   7.349   2.778   0.590
  612TIP3    H1 1772   7.358   2.873   0.575
  612TIP3    H2 1773   7.438   2.750   0.613
  613TIP3   OH2 1774   6.876   2.470   0.784
  613TIP3    H1 1775   6.969   2.453   0.793
  613TIP3    H2 1776   6.840   2.391   0.743
  614TIP3   OH2 1777   6.892   1.929   0.686
  614TIP3    H1 1778   6.814   1.916   0.739
  614TIP3    H2 1779   6.904   1.846   0.640
  615TIP3   OH2 1780   7.590   2.591   0.532
  615TIP3    H1 1781   7.661   2.654   0.549
  615TIP3    H2 1782   7.596   2.573   0.439
  616TIP3   OH2 1783   6.646   1.925   0.805
  616TIP3    H1 1784   6.630   1.934   0.899
  616TIP3    H2 1785   6.570   1.967   0.764
  617TIP3   OH2 1786   7.392   2.219   0.755
  617TIP3    H1 1787   7.344   2.139   0.776
  617TIP3    H2 1788   7.433   2.201   0.670
  618TIP3   OH2 1789   7.189   2.840   0.281
  618TIP3    H1 1790   7.165   2.895   0.207
  618TIP3    H2 1791   7.281   2.862   0.298
  619TIP3   OH2 1792   6.541   2.723   0.452
  619TIP3    H1 1793   6.586   2.706   0.535
  619TIP3    H2 1794   6.597   2.785   0.406
  620TIP3   OH2 1795   6.611   3.019   0.849
  620TIP3    H1 1796   6.701   3.007   0.880
  620TIP3    H2 1797   6.576   2.930   0.840
  621TIP3   OH2 1798   7.071   2.962   0.930
  621TIP3    H1 1799   7.166   2.950   0.920
  621TIP3    H2 1800   7.037   2.949   0.841
  622TIP3   OH2 1801   7.426   2.487   0.783
  622TIP3    H1 1802   7.378   2.511   0.703
  622TIP3    H2 1803   7.422   2.392   0.786
  623TIP3   OH2 1804   6.852   2.129   1.019
  623TIP3    H1 1805   6.892   2.044   1.040
  623TIP3    H2 1806   6.817   2.159   1.103
  624TIP3   OH2 1807   7.300   1.950   0.719
  624TIP3    H1 1808   7.228   2.009   0.697
  624TIP3    H2 1809   7.332   1.921   0.634
  625TIP3   OH2 1810   6.999   1.915   1.111
  625TIP3    H1 1811   7.020   1.821   1.117
  625TIP3    H2 1812   7.078   1.955   1.074
  626TIP3   OH2 1813   6.968   1.600   1.070
  626TIP3    H1 1814   6.981   1.596   0.975
  626TIP3    H2 1815   7.052   1.628   1.105
  627TIP3   OH2 1816   6.470   2.593   0.055
  627TIP3    H1 1817   6.380   2.573   0.027
  627TIP3    H2 1818   6.468   2.686   0.076
  628TIP3   OH2 1819   6.497   2.052   0.337
  628TIP3    H1 1820   6.474   2.045   0.244
  628TIP3    H2 1821   6.563   1.984   0.349
  629TIP3   OH2 1822   6.711   1.685   1.033
  629TIP3    H1 1823   6.798   1.651   1.053
  629TIP3    H2 1824   6.667   1.691   1.118
  630TIP3   OH2 1825   6.944   2.728   0.347
  630TIP3    H1 1826   6.975   2.805   0.394
  630TIP3    H2 1827   7.013   2.709   0.284
  631TIP3   OH2 1828   7.396   3.054   0.570
  631TIP3    H1 1829   7.446   3.059   0.652
  631TIP3    H2 1830   7.458   3.079   0.502
  632TIP3   OH2 1831   7.597   3.124   0.379
  632TIP3    H1 1832   7.663   3.139   0.311
  632TIP3    H2 1833   7.556   3.210   0.391
  633TIP3   OH2 1834   6.640   3.085   0.463
  633TIP3    H1 1835   6.545   3.085   0.452
  633TIP3    H2 1836   6.655   3.128   0.547
  634TIP3   OH2 1837   6.834   3.111   0.283
  634TIP3    H1 1838   6.775   3.101   0.358
  634TIP3    H2 1839   6.801   3.189   0.238
  635TIP3   OH2 1840   6.487   2.850   0.144
  635TIP3    H1 1841   6.564   2.839   0.200
  635TIP3    H2 1842   6.506   2.928   0.091
  636TIP3   OH2 1843   1.151   6.711   6.883
  636TIP3    H1 1844   1.068   6.663   6.880
  636TIP3    H2 1845   1.217   6.644   6.867
  637TIP3   OH2 1846   0.889   2.713   2.042
  637TIP3    H1 1847   0.801   2.741   2.016
  637TIP3    H2 1848   0.917   2.779   2.105
  638TIP3   OH2 1849   0.307   3.525   1.652
  638TIP3    H1 1850   0.219   3.488   1.660
  638TIP3    H2 1851   0.294   3.608   1.606
  639TIP3   OH2 1852   0.545   3.387   1.999
  639TIP3    H1 1853   0.533   3.320   1.932
  639TIP3    H2 1854   0.524   3.469   1.955
  640TIP3   OH2 1855   0.705   3.018   1.822
  640TIP3    H1 1856   0.630   3.077   1.824
  640TIP3    H2 1857   0.706   2.982   1.733
  641TIP3   OH2 1858   0.738   3.781   2.037
  641TIP3    H1 1859   0.753   3.687   2.045
  641TIP3    H2 1860   0.654   3.795   2.082
  642TIP3   OH2 1861   8.363   3.480   2.193
  642TIP3    H1 1862   8.376   3.575   2.202
  642TIP3    H2 1863   8.269   3.470   2.180
  643TIP3   OH2 1864   0.637   2.835   2.302
  643TIP3    H1 1865   0.562   2.894   2.309
  643TIP3    H2 1866   0.639   2.789   2.386
  644TIP3   OH2 1867   0.454   4.106   2.119
  644TIP3    H1 1868   0.444   4.097   2.024
  644TIP3    H2 1869   0.498   4.190   2.131
  645TIP3   OH2 1870   0.484   3.183   1.818
  645TIP3    H1 1871   0.479   3.247   1.747
  645TIP3    H2 1872   0.399   3.190   1.863
  646TIP3   OH2 1873   0.069   3.296   2.179
  646TIP3    H1 1874   0.101   3.281   2.268
  646TIP3    H2 1875  -0.005   3.355   2.189
  647TIP3   OH2 1876   0.124   3.599   2.074
  647TIP3    H1 1877   0.056   3.531   2.069
  647TIP3    H2 1878   0.140   3.610   2.167
  648TIP3   OH2 1879   0.787   3.518   2.067
  648TIP3    H1 1880   0.709   3.474   2.100
  648TIP3    H2 1881   0.812   3.467   1.989
  649TIP3   OH2 1882   0.279   3.789   1.964
  649TIP3    H1 1883   0.216   3.720   1.986
  649TIP3    H2 1884   0.241   3.833   1.888
  650TIP3   OH2 1885   0.656   2.568   2.190
  650TIP3    H1 1886   0.586   2.546   2.251
  650TIP3    H2 1887   0.651   2.664   2.182
  651TIP3   OH2 1888   0.304   3.785   1.546
  651TIP3    H1 1889   0.258   3.839   1.481
  651TIP3    H2 1890   0.396   3.792   1.522
  652TIP3   OH2 1891   8.138   3.735   2.432
  652TIP3    H1 1892   8.217   3.686   2.454
  652TIP3    H2 1893   8.077   3.714   2.503
  653TIP3   OH2 1894   0.183   3.651   2.339
  653TIP3    H1 1895   0.193   3.573   2.393
  653TIP3    H2 1896   0.261   3.703   2.357
  654TIP3   OH2 1897   8.390   3.269   2.472
  654TIP3    H1 1898   8.355   3.228   2.393
  654TIP3    H2 1899   8.480   3.237   2.478
  655TIP3   OH2 1900   0.277   3.256   1.989
  655TIP3    H1 1901   0.339   3.303   2.045
  655TIP3    H2 1902   0.196   3.253   2.040
  656TIP3   OH2 1903   0.150   3.171   2.481
  656TIP3    H1 1904   0.216   3.132   2.424
  656TIP3    H2 1905   0.165   3.129   2.566
  657TIP3   OH2 1906   0.399   2.857   2.628
  657TIP3    H1 1907   0.430   2.769   2.607
  657TIP3    H2 1908   0.401   2.904   2.544
  658TIP3   OH2 1909   0.539   2.579   2.627
  658TIP3    H1 1910   0.542   2.483   2.631
  658TIP3    H2 1911   0.523   2.606   2.717
  659TIP3   OH2 1912   0.582   3.818   1.522
  659TIP3    H1 1913   0.595   3.838   1.614
  659TIP3    H2 1914   0.646   3.872   1.476
  660TIP3   OH2 1915   0.609   3.847   1.799
  660TIP3    H1 1916   0.555   3.768   1.805
  660TIP3    H2 1917   0.675   3.836   1.866
  661TIP3   OH2 1918   0.643   3.552   2.382
  661TIP3    H1 1919   0.573   3.554   2.448
  661TIP3    H2 1920   0.688   3.636   2.393
  662TIP3   OH2 1921   0.634   3.371   1.651
  662TIP3    H1 1922   0.700   3.307   1.625
  662TIP3    H2 1923   0.642   3.442   1.587
  663TIP3   OH2 1924   0.469   3.616   1.851
  663TIP3    H1 1925   0.398   3.661   1.896
  663TIP3    H2 1926   0.427   3.572   1.778
  664TIP3   OH2 1927   0.736   3.239   2.165
  664TIP3    H1 1928   0.753   3.145   2.159
  664TIP3    H2 1929   0.652   3.251   2.122
  665TIP3   OH2 1930   0.837   2.980   2.180
  665TIP3    H1 1931   0.763   2.931   2.216
  665TIP3    H2 1932   0.913   2.949   2.228
  666TIP3   OH2 1933   0.637   2.809   1.989
  666TIP3    H1 1934   0.563   2.845   2.038
  666TIP3    H2 1935   0.663   2.880   1.930
  667TIP3   OH2 1936   1.077   2.403   2.496
  667TIP3    H1 1937   1.140   2.347   2.451
  667TIP3    H2 1938   1.036   2.455   2.426
  668TIP3   OH2 1939   0.915   2.557   2.322
  668TIP3    H1 1940   0.861   2.593   2.392
  668TIP3    H2 1941   0.856   2.553   2.246
  669TIP3   OH2 1942   8.390   3.750   2.221
  669TIP3    H1 1943   8.413   3.769   2.312
  669TIP3    H2 1944   8.455   3.798   2.170
  670TIP3   OH2 1945   0.067   3.929   2.109
  670TIP3    H1 1946   0.139   3.883   2.066
  670TIP3    H2 1947   0.109   3.989   2.171
  671TIP3   OH2 1948   0.008   3.814   1.808
  671TIP3    H1 1949  -0.064   3.863   1.849
  671TIP3    H2 1950   0.068   3.882   1.777
  672TIP3   OH2 1951   0.235   3.969   1.742
  672TIP3    H1 1952   0.222   4.052   1.697
  672TIP3    H2 1953   0.254   3.906   1.672
  673TIP3   OH2 1954   0.586   2.310   2.656
  673TIP3    H1 1955   0.596   2.262   2.738
  673TIP3    H2 1956   0.663   2.286   2.605
  674TIP3   OH2 1957   0.491   3.834   2.140
  674TIP3    H1 1958   0.418   3.804   2.085
  674TIP3    H2 1959   0.478   3.928   2.147
  675TIP3   OH2 1960   1.812   3.306   1.012
  675TIP3    H1 1961   1.859   3.389   1.008
  675TIP3    H2 1962   1.724   3.326   0.979
  676TIP3   OH2 1963   1.841   3.256   1.338
  676TIP3    H1 1964   1.873   3.218   1.420
  676TIP3    H2 1965   1.819   3.180   1.284
  677TIP3   OH2 1966   1.080   3.093   1.671
  677TIP3    H1 1967   1.093   3.023   1.735
  677TIP3    H2 1968   1.163   3.140   1.669
  678TIP3   OH2 1969   1.966   3.531   1.005
  678TIP3    H1 1970   2.013   3.469   1.060
  678TIP3    H2 1971   2.013   3.614   1.018
  679TIP3   OH2 1972   0.999   3.537   1.386
  679TIP3    H1 1973   0.976   3.446   1.367
  679TIP3    H2 1974   1.095   3.537   1.391
  680TIP3   OH2 1975   1.682   3.890   1.009
  680TIP3    H1 1976   1.744   3.852   0.947
  680TIP3    H2 1977   1.726   3.884   1.094
  681TIP3   OH2 1978   1.552   3.550   1.338
  681TIP3    H1 1979   1.557   3.540   1.243
  681TIP3    H2 1980   1.643   3.556   1.366
  682TIP3   OH2 1981   2.632   2.752   1.327
  682TIP3    H1 1982   2.654   2.834   1.371
  682TIP3    H2 1983   2.580   2.778   1.252
  683TIP3   OH2 1984   2.032   3.001   1.311
  683TIP3    H1 1985   2.087   2.934   1.351
  683TIP3    H2 1986   1.980   2.953   1.247
  684TIP3   OH2 1987   2.067   2.629   0.968
  684TIP3    H1 1988   2.156   2.603   0.992
  684TIP3    H2 1989   2.077   2.680   0.888
  685TIP3   OH2 1990   1.396   2.915   1.230
  685TIP3    H1 1991   1.475   2.890   1.277
  685TIP3    H2 1992   1.405   2.874   1.144
  686TIP3   OH2 1993   2.673   2.966   1.493
  686TIP3    H1 1994   2.586   3.006   1.493
  686TIP3    H2 1995   2.716   3.002   1.571
  687TIP3   OH2 1996   1.361   2.588   1.857
  687TIP3    H1 1997   1.304   2.584   1.780
  687TIP3    H2 1998   1.302   2.608   1.930
  688TIP3   OH2 1999   1.743   3.472   0.702
  688TIP3    H1 2000   1.726   3.419   0.624
  688TIP3    H2 2001   1.677   3.444   0.765
  689TIP3   OH2 2002   1.451   3.401   1.558
  689TIP3    H1 2003   1.376   3.456   1.579
  689TIP3    H2 2004   1.493   3.443   1.483
  690TIP3   OH2 2005   2.300   2.668   1.188
  690TIP3    H1 2006   2.231   2.615   1.229
  690TIP3    H2 2007   2.312   2.742   1.248
  691TIP3   OH2 2008   1.184   2.589   1.652
  691TIP3    H1 2009   1.090   2.590   1.670
  691TIP3    H2 2010   1.198   2.665   1.595
  692TIP3   OH2 2011   1.246   3.562   1.630
  692TIP3    H1 2012   1.229   3.647   1.591
  692TIP3    H2 2013   1.172   3.548   1.689
  693TIP3   OH2 2014   2.071   3.766   1.106
  693TIP3    H1 2015   1.984   3.764   1.145
  693TIP3    H2 2016   2.076   3.852   1.063
  694TIP3   OH2 2017   2.425   2.678   1.493
  694TIP3    H1 2018   2.406   2.596   1.446
  694TIP3    H2 2019   2.500   2.715   1.447
  695TIP3   OH2 2020   1.839   3.758   0.832
  695TIP3    H1 2021   1.892   3.683   0.805
  695TIP3    H2 2022   1.883   3.834   0.793
  696TIP3   OH2 2023   1.998   3.570   0.704
  696TIP3    H1 2024   1.916   3.520   0.707
  696TIP3    H2 2025   2.057   3.522   0.762
  697TIP3   OH2 2026   2.304   3.665   1.468
  697TIP3    H1 2027   2.297   3.588   1.411
  697TIP3    H2 2028   2.289   3.739   1.409
  698TIP3   OH2 2029   2.501   3.304   1.326
  698TIP3    H1 2030   2.421   3.356   1.326
  698TIP3    H2 2031   2.535   3.312   1.237
  699TIP3   OH2 2032   1.908   2.988   0.714
  699TIP3    H1 2033   1.853   3.065   0.701
  699TIP3    H2 2034   1.984   3.003   0.658
  700TIP3   OH2 2035   2.195   3.168   1.644
  700TIP3    H1 2036   2.195   3.253   1.687
  700TIP3    H2 2037   2.109   3.161   1.602
  701TIP3   OH2 2038   1.276   3.603   1.315
  701TIP3    H1 2039   1.250   3.542   1.246
  701TIP3    H2 2040   1.367   3.583   1.333
  702TIP3   OH2 2041   1.317   3.166   1.526
  702TIP3    H1 2042   1.297   3.176   1.433
  702TIP3    H2 2043   1.368   3.245   1.548
  703TIP3   OH2 2044   1.828   3.758   1.232
  703TIP3    H1 2045   1.823   3.835   1.289
  703TIP3    H2 2046   1.830   3.684   1.293
  704TIP3   OH2 2047   1.455   3.653   1.791
  704TIP3    H1 2048   1.398   3.712   1.840
  704TIP3    H2 2049   1.396   3.603   1.735
  705TIP3   OH2 2050   1.204   3.208   1.933
  705TIP3    H1 2051   1.206   3.300   1.959
  705TIP3    H2 2052   1.111   3.185   1.933
  706TIP3   OH2 2053   1.570   3.697   0.738
  706TIP3    H1 2054   1.653   3.697   0.785
  706TIP3    H2 2055   1.506   3.667   0.802
  707TIP3   OH2 2056   1.248   3.815   1.880
  707TIP3    H1 2057   1.223   3.827   1.788
  707TIP3    H2 2058   1.166   3.796   1.925
  708TIP3   OH2 2059   2.089   3.565   0.169
  708TIP3    H1 2060   2.140   3.604   0.098
  708TIP3    H2 2061   2.145   3.494   0.202
  709TIP3   OH2 2062   0.853   3.365   1.850
  709TIP3    H1 2063   0.775   3.353   1.794
  709TIP3    H2 2064   0.875   3.276   1.878
  710TIP3   OH2 2065   0.709   3.565   1.459
  710TIP3    H1 2066   0.801   3.581   1.438
  710TIP3    H2 2067   0.675   3.651   1.485
  711TIP3   OH2 2068   2.533   3.993   1.523
  711TIP3    H1 2069   2.539   3.899   1.542
  711TIP3    H2 2070   2.454   4.022   1.569
  712TIP3   OH2 2071   1.649   3.785   1.647
  712TIP3    H1 2072   1.643   3.877   1.674
  712TIP3    H2 2073   1.580   3.741   1.698
  713TIP3   OH2 2074   1.284   3.873   0.605
  713TIP3    H1 2075   1.338   3.899   0.530
  713TIP3    H2 2076   1.327   3.914   0.681
  714TIP3   OH2 2077   0.848   3.760   1.006
  714TIP3    H1 2078   0.903   3.762   1.084
  714TIP3    H2 2079   0.764   3.726   1.037
  715TIP3   OH2 2080   1.557   3.664   0.296
  715TIP3    H1 2081   1.631   3.682   0.239
  715TIP3    H2 2082   1.596   3.645   0.381
  716TIP3   OH2 2083   1.702   3.919   0.599
  716TIP3    H1 2084   1.681   3.825   0.596
  716TIP3    H2 2085   1.793   3.921   0.631
  717TIP3   OH2 2086   2.433   3.121   1.801
  717TIP3    H1 2087   2.353   3.136   1.752
  717TIP3    H2 2088   2.451   3.028   1.791
  718TIP3   OH2 2089   1.048   3.553   1.816
  718TIP3    H1 2090   1.102   3.537   1.893
  718TIP3    H2 2091   0.977   3.489   1.822
  719TIP3   OH2 2092   1.856   2.382   1.849
  719TIP3    H1 2093   1.947   2.359   1.831
  719TIP3    H2 2094   1.857   2.418   1.938
  720TIP3   OH2 2095   2.171   2.899   1.715
  720TIP3    H1 2096   2.141   2.901   1.806
  720TIP3    H2 2097   2.170   2.990   1.687
  721TIP3   OH2 2098   1.385   2.938   1.656
  721TIP3    H1 2099   1.334   2.925   1.736
  721TIP3    H2 2100   1.355   3.023   1.624
  722TIP3   OH2 2101   1.736   2.896   0.902
  722TIP3    H1 2102   1.674   2.902   0.830
  722TIP3    H2 2103   1.816   2.936   0.869
  723TIP3   OH2 2104   1.928   3.125   1.959
  723TIP3    H1 2105   1.898   3.056   2.019
  723TIP3    H2 2106   2.022   3.132   1.976
  724TIP3   OH2 2107   1.961   2.833   1.105
  724TIP3    H1 2108   1.941   2.906   1.047
  724TIP3    H2 2109   1.983   2.760   1.046
  725TIP3   OH2 2110   1.185   2.898   1.853
  725TIP3    H1 2111   1.171   2.960   1.925
  725TIP3    H2 2112   1.172   2.812   1.894
  726TIP3   OH2 2113   1.942   3.105   1.549
  726TIP3    H1 2114   1.964   3.051   1.472
  726TIP3    H2 2115   1.891   3.047   1.605
  727TIP3   OH2 2116   2.087   2.559   1.507
  727TIP3    H1 2117   2.041   2.582   1.587
  727TIP3    H2 2118   2.020   2.522   1.450
  728TIP3   OH2 2119   2.254   4.349   1.611
  728TIP3    H1 2120   2.250   4.365   1.517
  728TIP3    H2 2121   2.333   4.394   1.640
  729TIP3   OH2 2122   1.198   3.468   2.038
  729TIP3    H1 2123   1.281   3.483   2.083
  729TIP3    H2 2124   1.132   3.466   2.107
  730TIP3   OH2 2125   1.642   2.839   1.330
  730TIP3    H1 2126   1.692   2.902   1.278
  730TIP3    H2 2127   1.707   2.802   1.390
  731TIP3   OH2 2128   1.622   2.792   1.700
  731TIP3    H1 2129   1.541   2.842   1.684
  731TIP3    H2 2130   1.689   2.859   1.711
  732TIP3   OH2 2131   2.282   3.463   1.290
  732TIP3    H1 2132   2.322   3.508   1.215
  732TIP3    H2 2133   2.199   3.430   1.257
  733TIP3   OH2 2134   1.778   3.528   1.677
  733TIP3    H1 2135   1.831   3.521   1.756
  733TIP3    H2 2136   1.737   3.615   1.684
  734TIP3   OH2 2137   1.025   3.175   1.417
  734TIP3    H1 2138   1.057   3.109   1.355
  734TIP3    H2 2139   1.050   3.140   1.503
  735TIP3   OH2 2140   0.939   3.112   1.948
  735TIP3    H1 2141   0.928   3.094   2.041
  735TIP3    H2 2142   0.868   3.066   1.905
  736TIP3   OH2 2143   1.706   3.291   1.974
  736TIP3    H1 2144   1.661   3.274   1.892
  736TIP3    H2 2145   1.790   3.246   1.966
  737TIP3   OH2 2146   1.915   3.817   1.566
  737TIP3    H1 2147   1.821   3.800   1.573
  737TIP3    H2 2148   1.940   3.852   1.651
  738TIP3   OH2 2149   2.274   2.846   0.479
  738TIP3    H1 2150   2.240   2.770   0.433
  738TIP3    H2 2151   2.298   2.908   0.409
  739TIP3   OH2 2152   2.555   3.710   1.554
  739TIP3    H1 2153   2.460   3.705   1.544
  739TIP3    H2 2154   2.590   3.688   1.467
  740TIP3   OH2 2155   2.055   3.666   0.452
  740TIP3    H1 2156   2.043   3.637   0.543
  740TIP3    H2 2157   2.056   3.585   0.401
  741TIP3   OH2 2158   2.060   3.348   1.184
  741TIP3    H1 2159   1.983   3.313   1.228
  741TIP3    H2 2160   2.111   3.271   1.160
  742TIP3   OH2 2161   1.144   3.546   1.058
  742TIP3    H1 2162   1.129   3.631   1.017
  742TIP3    H2 2163   1.061   3.499   1.046
  743TIP3   OH2 2164   1.279   3.326   0.848
  743TIP3    H1 2165   1.333   3.400   0.877
  743TIP3    H2 2166   1.259   3.279   0.929
  744TIP3   OH2 2167   1.454   3.880   1.457
  744TIP3    H1 2168   1.494   3.948   1.404
  744TIP3    H2 2169   1.528   3.832   1.495
  745TIP3   OH2 2170   1.113   3.799   0.921
  745TIP3    H1 2171   1.024   3.818   0.950
  745TIP3    H2 2172   1.149   3.885   0.898
  746TIP3   OH2 2173   1.817   3.533   1.403
  746TIP3    H1 2174   1.819   3.528   1.498
  746TIP3    H2 2175   1.847   3.447   1.373
  747TIP3   OH2 2176   1.836   3.405   0.185
  747TIP3    H1 2177   1.898   3.407   0.257
  747TIP3    H2 2178   1.763   3.352   0.218
  748TIP3   OH2 2179   2.068   4.028   1.451
  748TIP3    H1 2180   1.998   3.964   1.468
  748TIP3    H2 2181   2.035   4.081   1.379
  749TIP3   OH2 2182   2.192   3.895   0.103
  749TIP3    H1 2183   2.225   3.976   0.143
  749TIP3    H2 2184   2.129   3.861   0.165
  750TIP3   OH2 2185   1.152   2.648   2.017
  750TIP3    H1 2186   1.057   2.660   2.017
  750TIP3    H2 2187   1.169   2.593   2.093
  751TIP3   OH2 2188   2.007   3.391   0.405
  751TIP3    H1 2189   1.949   3.352   0.470
  751TIP3    H2 2190   2.095   3.378   0.441
  752TIP3   OH2 2191   0.919   3.774   1.621
  752TIP3    H1 2192   0.899   3.688   1.657
  752TIP3    H2 2193   1.014   3.781   1.628
  753TIP3   OH2 2194   1.989   2.694   1.723
  753TIP3    H1 2195   2.060   2.756   1.707
  753TIP3    H2 2196   2.000   2.669   1.815
  754TIP3   OH2 2197   1.240   3.604   0.434
  754TIP3    H1 2198   1.322   3.568   0.469
  754TIP3    H2 2199   1.265   3.690   0.400
  755TIP3   OH2 2200   1.837   2.955   1.763
  755TIP3    H1 2201   1.856   3.028   1.821
  755TIP3    H2 2202   1.893   2.884   1.794
  756TIP3   OH2 2203   2.440   2.853   1.712
  756TIP3    H1 2204   2.344   2.858   1.718
  756TIP3    H2 2205   2.456   2.789   1.643
  757TIP3   OH2 2206   2.215   3.125   1.146
  757TIP3    H1 2207   2.147   3.087   1.202
  757TIP3    H2 2208   2.287   3.063   1.151
  758TIP3   OH2 2209   2.102   4.026   1.027
  758TIP3    H1 2210   2.062   4.081   0.959
  758TIP3    H2 2211   2.197   4.037   1.014
  759TIP3   OH2 2212   0.868   4.025   2.027
  759TIP3    H1 2213   0.950   3.977   2.040
  759TIP3    H2 2214   0.800   3.957   2.027
  760TIP3   OH2 2215   1.339   3.983   2.080
  760TIP3    H1 2216   1.429   3.957   2.100
  760TIP3    H2 2217   1.310   3.921   2.014
  761TIP3   OH2 2218   1.968   3.913   1.818
  761TIP3    H1 2219   1.980   3.841   1.880
  761TIP3    H2 2220   2.044   3.970   1.832
  762TIP3   OH2 2221   1.776   3.673   0.130
  762TIP3    H1 2222   1.800   3.581   0.140
  762TIP3    H2 2223   1.777   3.688   0.035
  763TIP3   OH2 2224   1.000   3.452   2.229
  763TIP3    H1 2225   1.008   3.357   2.237
  763TIP3    H2 2226   0.916   3.466   2.185
  764TIP3   OH2 2227   1.613   3.554   1.996
  764TIP3    H1 2228   1.571   3.569   1.912
  764TIP3    H2 2229   1.658   3.470   1.986
  765TIP3   OH2 2230   2.084   3.593   1.615
  765TIP3    H1 2231   2.163   3.621   1.568
  765TIP3    H2 2232   2.017   3.656   1.591
  766TIP3   OH2 2233   1.113   3.192   2.225
  766TIP3    H1 2234   1.191   3.174   2.174
  766TIP3    H2 2235   1.145   3.216   2.312
  767TIP3   OH2 2236   1.448   3.084   1.903
  767TIP3    H1 2237   1.366   3.130   1.917
  767TIP3    H2 2238   1.498   3.142   1.845
  768TIP3   OH2 2239   1.974   3.462   1.967
  768TIP3    H1 2240   2.039   3.423   1.908
  768TIP3    H2 2241   1.971   3.403   2.042
  769TIP3   OH2 2242   1.571   2.864   1.998
  769TIP3    H1 2243   1.550   2.796   1.934
  769TIP3    H2 2244   1.534   2.944   1.960
  770TIP3   OH2 2245   1.614   2.541   1.790
  770TIP3    H1 2246   1.635   2.632   1.767
  770TIP3    H2 2247   1.524   2.545   1.824
  771TIP3   OH2 2248   1.596   3.238   1.728
  771TIP3    H1 2249   1.638   3.184   1.661
  771TIP3    H2 2250   1.556   3.310   1.679
  772TIP3   OH2 2251   2.195   3.145   2.042
  772TIP3    H1 2252   2.251   3.067   2.046
  772TIP3    H2 2253   2.257   3.217   2.029
  773TIP3   OH2 2254   2.213   3.414   1.772
  773TIP3    H1 2255   2.158   3.476   1.724
  773TIP3    H2 2256   2.302   3.430   1.740
  774TIP3   OH2 2257   1.454   2.949   2.240
  774TIP3    H1 2258   1.383   2.888   2.261
  774TIP3    H2 2259   1.478   2.928   2.149
  775TIP3   OH2 2260   1.831   2.903   2.093
  775TIP3    H1 2261   1.821   2.890   2.187
  775TIP3    H2 2262   1.744   2.887   2.056
  776TIP3   OH2 2263   2.070   2.846   1.962
  776TIP3    H1 2264   1.997   2.857   2.023
  776TIP3    H2 2265   2.146   2.833   2.018
  777TIP3   OH2 2266   2.307   2.822   2.109
  777TIP3    H1 2267   2.321   2.728   2.114
  777TIP3    H2 2268   2.305   2.851   2.201
  778TIP3   OH2 2269   1.294   2.727   2.302
  778TIP3    H1 2270   1.298   2.639   2.267
  778TIP3    H2 2271   1.332   2.720   2.390
  779TIP3   OH2 2272   1.778   2.400   2.125
  779TIP3    H1 2273   1.852   2.340   2.125
  779TIP3    H2 2274   1.701   2.344   2.138
  780TIP3   OH2 2275   1.856   2.614   2.289
  780TIP3    H1 2276   1.831   2.552   2.220
  780TIP3    H2 2277   1.786   2.679   2.288
  781TIP3   OH2 2278   0.661   3.695   1.197
  781TIP3    H1 2279   0.650   3.620   1.254
  781TIP3    H2 2280   0.638   3.771   1.252
  782TIP3   OH2 2281   2.370   4.083   1.015
  782TIP3    H1 2282   2.396   4.108   1.104
  782TIP3    H2 2283   2.430   4.132   0.958
  783TIP3   OH2 2284   2.388   4.106   1.299
  783TIP3    H1 2285   2.341   4.023   1.289
  783TIP3    H2 2286   2.457   4.087   1.362
  784TIP3   OH2 2287   2.438   3.801   1.875
  784TIP3    H1 2288   2.368   3.812   1.939
  784TIP3    H2 2289   2.484   3.885   1.876
  785TIP3   OH2 2290   2.264   3.388   0.529
  785TIP3    H1 2291   2.327   3.454   0.498
  785TIP3    H2 2292   2.311   3.305   0.520
  786TIP3   OH2 2293   2.412   3.176   0.714
  786TIP3    H1 2294   2.372   3.121   0.782
  786TIP3    H2 2295   2.481   3.224   0.760
  787TIP3   OH2 2296   2.446   3.579   1.107
  787TIP3    H1 2297   2.497   3.508   1.068
  787TIP3    H2 2298   2.455   3.652   1.045
  788TIP3   OH2 2299   2.242   3.870   1.300
  788TIP3    H1 2300   2.174   3.916   1.349
  788TIP3    H2 2301   2.196   3.829   1.227
  789TIP3   OH2 2302   2.302   3.025   0.281
  789TIP3    H1 2303   2.217   3.003   0.243
  789TIP3    H2 2304   2.304   3.121   0.282
  790TIP3   OH2 2305   2.184   3.087   0.855
  790TIP3    H1 2306   2.177   2.993   0.837
  790TIP3    H2 2307   2.202   3.091   0.949
  791TIP3   OH2 2308   0.824   3.192   1.595
  791TIP3    H1 2309   0.868   3.201   1.510
  791TIP3    H2 2310   0.890   3.154   1.653
  792TIP3   OH2 2311   2.471   3.456   1.678
  792TIP3    H1 2312   2.536   3.388   1.660
  792TIP3    H2 2313   2.499   3.530   1.623
  793TIP3   OH2 2314   2.643   3.242   1.670
  793TIP3    H1 2315   2.571   3.200   1.717
  793TIP3    H2 2316   2.720   3.189   1.690
  794TIP3   OH2 2317   2.141   2.807   0.757
  794TIP3    H1 2318   2.220   2.755   0.743
  794TIP3    H2 2319   2.095   2.805   0.672
  795TIP3   OH2 2320   2.414   2.931   1.253
  795TIP3    H1 2321   2.486   2.970   1.203
  795TIP3    H2 2322   2.409   2.982   1.333
  796TIP3   OH2 2323   2.417   3.090   1.475
  796TIP3    H1 2324   2.341   3.118   1.525
  796TIP3    H2 2325   2.448   3.169   1.431
  797TIP3   OH2 2326   1.034   2.813   2.279
  797TIP3    H1 2327   1.129   2.800   2.283
  797TIP3    H2 2328   0.997   2.729   2.306
  798TIP3   OH2 2329   2.875   2.657   1.991
  798TIP3    H1 2330   2.942   2.605   1.947
  798TIP3    H2 2331   2.837   2.711   1.922
  799TIP3   OH2 2332   2.138   2.510   0.718
  799TIP3    H1 2333   2.211   2.531   0.775
  799TIP3    H2 2334   2.155   2.420   0.688
  800TIP3   OH2 2335   2.722   2.802   1.812
  800TIP3    H1 2336   2.650   2.841   1.863
  800TIP3    H2 2337   2.681   2.731   1.763
  801TIP3   OH2 2338   1.952   3.965   0.704
  801TIP3    H1 2339   2.021   3.956   0.638
  801TIP3    H2 2340   1.972   4.048   0.747
  802TIP3   OH2 2341   1.028   3.793   2.055
  802TIP3    H1 2342   0.939   3.762   2.038
  802TIP3    H2 2343   1.049   3.759   2.141
  803TIP3   OH2 2344   1.215   3.838   1.596
  803TIP3    H1 2345   1.173   3.918   1.563
  803TIP3    H2 2346   1.303   3.840   1.558
  804TIP3   OH2 2347   1.644   4.052   1.719
  804TIP3    H1 2348   1.678   4.046   1.809
  804TIP3    H2 2349   1.710   4.103   1.672
  805TIP3   OH2 2350   1.832   4.210   1.598
  805TIP3    H1 2351   1.897   4.161   1.548
  805TIP3    H2 2352   1.884   4.269   1.653
  806TIP3   OH2 2353   2.630   2.556   1.710
  806TIP3    H1 2354   2.540   2.527   1.697
  806TIP3    H2 2355   2.683   2.476   1.704
  807TIP3   OH2 2356   0.895   4.097   1.667
  807TIP3    H1 2357   0.808   4.131   1.645
  807TIP3    H2 2358   0.880   4.005   1.689
  808TIP3   OH2 2359   1.115   4.070   1.494
  808TIP3    H1 2360   1.037   4.093   1.543
  808TIP3    H2 2361   1.093   4.091   1.403
  809TIP3   OH2 2362   1.539   4.077   1.281
  809TIP3    H1 2363   1.475   4.091   1.210
  809TIP3    H2 2364   1.552   4.165   1.318
  810TIP3   OH2 2365   1.803   4.015   1.322
  810TIP3    H1 2366   1.712   4.037   1.306
  810TIP3    H2 2367   1.852   4.086   1.280
  811TIP3   OH2 2368   2.003   4.185   1.227
  811TIP3    H1 2369   2.003   4.273   1.189
  811TIP3    H2 2370   2.037   4.129   1.157
  812TIP3   OH2 2371   0.815   3.885   1.388
  812TIP3    H1 2372   0.850   3.858   1.473
  812TIP3    H2 2373   0.874   3.847   1.323
  813TIP3   OH2 2374   1.002   3.770   1.230
  813TIP3    H1 2375   1.012   3.686   1.275
  813TIP3    H2 2376   1.090   3.809   1.232
  814TIP3   OH2 2377   1.266   3.864   1.251
  814TIP3    H1 2378   1.273   3.768   1.254
  814TIP3    H2 2379   1.320   3.894   1.323
  815TIP3   OH2 2380   1.867   2.375   1.379
  815TIP3    H1 2381   1.817   2.456   1.378
  815TIP3    H2 2382   1.859   2.341   1.290
  816TIP3   OH2 2383   2.417   2.453   1.336
  816TIP3    H1 2384   2.474   2.470   1.262
  816TIP3    H2 2385   2.328   2.454   1.300
  817TIP3   OH2 2386   2.568   2.464   1.106
  817TIP3    H1 2387   2.644   2.411   1.083
  817TIP3    H2 2388   2.578   2.544   1.056
  818TIP3   OH2 2389   2.150   2.438   1.245
  818TIP3    H1 2390   2.065   2.425   1.203
  818TIP3    H2 2391   2.148   2.382   1.322
  819TIP3   OH2 2392   1.338   3.825   0.311
  819TIP3    H1 2393   1.419   3.774   0.308
  819TIP3    H2 2394   1.340   3.877   0.230
  820TIP3   OH2 2395   2.128   3.926   0.499
  820TIP3    H1 2396   2.114   3.833   0.479
  820TIP3    H2 2397   2.104   3.971   0.419
  821TIP3   OH2 2398   1.301   2.458   2.214
  821TIP3    H1 2399   1.270   2.385   2.268
  821TIP3    H2 2400   1.393   2.467   2.236
  822TIP3   OH2 2401   1.546   2.456   2.348
  822TIP3    H1 2402   1.641   2.448   2.335
  822TIP3    H2 2403   1.526   2.390   2.414
  823TIP3   OH2 2404   2.363   2.550   2.117
  823TIP3    H1 2405   2.379   2.519   2.206
  823TIP3    H2 2406   2.449   2.547   2.075
  824TIP3   OH2 2407   2.286   4.074   1.621
  824TIP3    H1 2408   2.214   4.047   1.566
  824TIP3    H2 2409   2.278   4.169   1.627
  825TIP3   OH2 2410   3.570   3.460   0.360
  825TIP3    H1 2411   3.545   3.550   0.336
  825TIP3    H2 2412   3.503   3.405   0.320
  826TIP3   OH2 2413   3.642   3.438   0.754
  826TIP3    H1 2414   3.662   3.431   0.847
  826TIP3    H2 2415   3.550   3.463   0.751
  827TIP3   OH2 2416   2.872   3.306   1.120
  827TIP3    H1 2417   2.909   3.255   1.192
  827TIP3    H2 2418   2.948   3.342   1.074
  828TIP3   OH2 2419   3.834   3.778   0.452
  828TIP3    H1 2420   3.836   3.704   0.513
  828TIP3    H2 2421   3.845   3.855   0.508
  829TIP3   OH2 2422   2.846   3.741   0.830
  829TIP3    H1 2423   2.828   3.647   0.829
  829TIP3    H2 2424   2.940   3.748   0.811
  830TIP3   OH2 2425   2.589   2.959   0.631
  830TIP3    H1 2426   2.546   3.022   0.690
  830TIP3    H2 2427   2.535   2.880   0.638
  831TIP3   OH2 2428   2.641   3.277   0.819
  831TIP3    H1 2429   2.695   3.200   0.838
  831TIP3    H2 2430   2.705   3.348   0.803
  832TIP3   OH2 2431   3.465   4.177   0.487
  832TIP3    H1 2432   3.513   4.119   0.429
  832TIP3    H2 2433   3.424   4.119   0.551
  833TIP3   OH2 2434   4.409   2.997   0.806
  833TIP3    H1 2435   4.425   3.080   0.851
  833TIP3    H2 2436   4.433   3.015   0.715
  834TIP3   OH2 2437   3.780   3.154   0.830
  834TIP3    H1 2438   3.820   3.070   0.851
  834TIP3    H2 2439   3.742   3.142   0.743
  835TIP3   OH2 2440   3.103   2.810   0.824
  835TIP3    H1 2441   3.099   2.881   0.760
  835TIP3    H2 2442   3.186   2.765   0.804
  836TIP3   OH2 2443   3.832   2.941   0.417
  836TIP3    H1 2444   3.893   2.929   0.490
  836TIP3    H2 2445   3.886   2.976   0.346
  837TIP3   OH2 2446   2.783   3.055   0.891
  837TIP3    H1 2447   2.862   3.055   0.945
  837TIP3    H2 2448   2.790   2.976   0.838
  838TIP3   OH2 2449   3.186   3.242   0.735
  838TIP3    H1 2450   3.280   3.221   0.741
  838TIP3    H2 2451   3.145   3.158   0.712
  839TIP3   OH2 2452   4.462   3.217   0.970
  839TIP3    H1 2453   4.375   3.256   0.964
  839TIP3    H2 2454   4.500   3.254   1.050
  840TIP3   OH2 2455   3.114   2.833   1.233
  840TIP3    H1 2456   3.070   2.890   1.171
  840TIP3    H2 2457   3.061   2.839   1.313
  841TIP3   OH2 2458   3.483   3.682   0.213
  841TIP3    H1 2459   3.450   3.660   0.126
  841TIP3    H2 2460   3.428   3.755   0.242
  842TIP3   OH2 2461   3.221   3.622   0.998
  842TIP3    H1 2462   3.160   3.682   1.040
  842TIP3    H2 2463   3.259   3.672   0.926
  843TIP3   OH2 2464   3.995   2.944   0.637
  843TIP3    H1 2465   3.957   2.918   0.721
  843TIP3    H2 2466   4.051   3.018   0.658
  844TIP3   OH2 2467   3.017   2.985   1.024
  844TIP3    H1 2468   3.074   3.058   1.051
  844TIP3    H2 2469   3.069   2.938   0.958
  845TIP3   OH2 2470   3.050   3.806   1.109
  845TIP3    H1 2471   3.041   3.895   1.076
  845TIP3    H2 2472   2.971   3.791   1.161
  846TIP3   OH2 2473   2.476   3.529   0.408
  846TIP3    H1 2474   2.447   3.555   0.320
  846TIP3    H2 2475   2.497   3.612   0.451
  847TIP3   OH2 2476   3.839   4.019   0.614
  847TIP3    H1 2477   3.747   4.014   0.642
  847TIP3    H2 2478   3.845   4.103   0.569
  848TIP3   OH2 2479   4.206   2.878   0.967
  848TIP3    H1 2480   4.121   2.902   0.932
  848TIP3    H2 2481   4.269   2.910   0.903
  849TIP3   OH2 2482   3.485   2.541   0.967
  849TIP3    H1 2483   3.479   2.448   0.989
  849TIP3    H2 2484   3.415   2.582   1.018
  850TIP3   OH2 2485   3.592   4.049   0.275
  850TIP3    H1 2486   3.638   3.967   0.258
  850TIP3    H2 2487   3.652   4.117   0.244
  851TIP3   OH2 2488   3.726   3.819   0.200
  851TIP3    H1 2489   3.652   3.759   0.201
  851TIP3    H2 2490   3.774   3.800   0.280
  852TIP3   OH2 2491   4.113   3.892   0.951
  852TIP3    H1 2492   4.094   3.819   0.891
  852TIP3    H2 2493   4.092   3.970   0.900
  853TIP3   OH2 2494   3.411   3.302   0.194
  853TIP3    H1 2495   3.336   3.360   0.183
  853TIP3    H2 2496   3.443   3.287   0.105
  854TIP3   OH2 2497   6.216   7.122   6.874
  854TIP3    H1 2498   6.300   7.168   6.881
  854TIP3    H2 2499   6.240   7.033   6.847
  855TIP3   OH2 2500   4.291   3.551   0.805
  855TIP3    H1 2501   4.208   3.599   0.807
  855TIP3    H2 2502   4.327   3.569   0.718
  856TIP3   OH2 2503   3.758   3.387   0.176
  856TIP3    H1 2504   3.702   3.415   0.248
  856TIP3    H2 2505   3.842   3.365   0.217
  857TIP3   OH2 2506   3.988   3.418   1.118
  857TIP3    H1 2507   3.982   3.501   1.165
  857TIP3    H2 2508   3.905   3.413   1.070
  858TIP3   OH2 2509   2.994   3.387   0.584
  858TIP3    H1 2510   2.941   3.323   0.536
  858TIP3    H2 2511   3.066   3.336   0.621
  859TIP3   OH2 2512   3.098   3.765   0.718
  859TIP3    H1 2513   3.068   3.768   0.627
  859TIP3    H2 2514   3.180   3.815   0.718
  860TIP3   OH2 2515   3.086   3.389   0.949
  860TIP3    H1 2516   3.124   3.353   0.868
  860TIP3    H2 2517   3.132   3.471   0.962
  861TIP3   OH2 2518   3.246   3.902   1.282
  861TIP3    H1 2519   3.187   3.964   1.324
  861TIP3    H2 2520   3.191   3.854   1.220
  862TIP3   OH2 2521   6.455   7.254   6.922
  862TIP3    H1 2522   6.500   7.314   6.982
  862TIP3    H2 2523   6.483   7.282   6.835
  863TIP3   OH2 2524   3.013   3.457   1.421
  863TIP3    H1 2525   3.013   3.551   1.436
  863TIP3    H2 2526   2.921   3.434   1.412
  864TIP3   OH2 2527   3.335   3.911   0.252
  864TIP3    H1 2528   3.396   3.966   0.301
  864TIP3    H2 2529   3.269   3.972   0.218
  865TIP3   OH2 2530   3.036   4.066   1.359
  865TIP3    H1 2531   3.018   4.077   1.266
  865TIP3    H2 2532   2.949   4.055   1.399
  866TIP3   OH2 2533   4.081   2.498   0.026
  866TIP3    H1 2534   4.012   2.526   0.087
  866TIP3    H2 2535   4.118   2.579  -0.008
  867TIP3   OH2 2536   2.827   3.224   0.437
  867TIP3    H1 2537   2.776   3.261   0.366
  867TIP3    H2 2538   2.825   3.130   0.422
  868TIP3   OH2 2539   2.636   3.621   1.310
  868TIP3    H1 2540   2.570   3.602   1.243
  868TIP3    H2 2541   2.672   3.535   1.334
  869TIP3   OH2 2542   2.519   3.800   0.955
  869TIP3    H1 2543   2.612   3.798   0.932
  869TIP3    H2 2544   2.508   3.879   1.008
  870TIP3   OH2 2545   4.344   4.268   1.012
  870TIP3    H1 2546   4.349   4.173   1.023
  870TIP3    H2 2547   4.263   4.293   1.056
  871TIP3   OH2 2548   3.462   4.024   1.160
  871TIP3    H1 2549   3.440   4.117   1.155
  871TIP3    H2 2550   3.384   3.983   1.199
  872TIP3   OH2 2551   3.198   4.144   0.091
  872TIP3    H1 2552   3.154   4.130   0.007
  872TIP3    H2 2553   3.169   4.231   0.118
  873TIP3   OH2 2554   2.671   4.016   0.480
  873TIP3    H1 2555   2.719   4.008   0.563
  873TIP3    H2 2556   2.621   3.935   0.474
  874TIP3   OH2 2557   0.594   0.032   6.717
  874TIP3    H1 2558   0.672  -0.011   6.682
  874TIP3    H2 2559   0.618   0.059   6.805
  875TIP3   OH2 2560   3.464   4.122   0.034
  875TIP3    H1 2561   3.372   4.121   0.061
  875TIP3    H2 2562   3.511   4.087   0.110
  876TIP3   OH2 2563   4.228   3.380   1.282
  876TIP3    H1 2564   4.146   3.390   1.233
  876TIP3    H2 2565   4.247   3.286   1.277
  877TIP3   OH2 2566   2.832   3.810   1.278
  877TIP3    H1 2567   2.885   3.797   1.357
  877TIP3    H2 2568   2.761   3.747   1.285
  878TIP3   OH2 2569   3.257   2.629   1.106
  878TIP3    H1 2570   3.197   2.570   1.060
  878TIP3    H2 2571   3.200   2.698   1.141
  879TIP3   OH2 2572   3.774   2.734   1.295
  879TIP3    H1 2573   3.844   2.711   1.356
  879TIP3    H2 2574   3.693   2.721   1.345
  880TIP3   OH2 2575   3.983   3.152   1.202
  880TIP3    H1 2576   3.944   3.148   1.290
  880TIP3    H2 2577   3.971   3.243   1.175
  881TIP3   OH2 2578   6.520   7.337   6.664
  881TIP3    H1 2579   6.480   7.320   6.579
  881TIP3    H2 2580   6.489   7.424   6.688
  882TIP3   OH2 2581   3.223   2.636   0.092
  882TIP3    H1 2582   3.278   2.649   0.169
  882TIP3    H2 2583   3.277   2.582   0.033
  883TIP3   OH2 2584   3.191   3.181   1.095
  883TIP3    H1 2585   3.192   3.212   1.186
  883TIP3    H2 2586   3.160   3.256   1.045
  884TIP3   OH2 2587   3.055   3.017   0.648
  884TIP3    H1 2588   2.963   3.040   0.631
  884TIP3    H2 2589   3.089   2.993   0.562
  885TIP3   OH2 2590   3.547   3.108   0.333
  885TIP3    H1 2591   3.496   3.178   0.291
  885TIP3    H2 2592   3.603   3.074   0.263
  886TIP3   OH2 2593   3.715   3.360   1.417
  886TIP3    H1 2594   3.688   3.294   1.481
  886TIP3    H2 2595   3.807   3.377   1.438
  887TIP3   OH2 2596   3.676   3.111   0.581
  887TIP3    H1 2597   3.623   3.151   0.512
  887TIP3    H2 2598   3.729   3.045   0.536
  888TIP3   OH2 2599   2.981   3.151   1.321
  888TIP3    H1 2600   3.034   3.206   1.379
  888TIP3    H2 2601   2.973   3.068   1.367
  889TIP3   OH2 2602   5.815   6.613   6.896
  889TIP3    H1 2603   5.896   6.642   6.939
  889TIP3    H2 2604   5.770   6.694   6.872
  890TIP3   OH2 2605   2.594   2.679   0.936
  890TIP3    H1 2606   2.669   2.733   0.962
  890TIP3    H2 2607   2.613   2.653   0.846
  891TIP3   OH2 2608   2.663   2.681   0.469
  891TIP3    H1 2609   2.747   2.679   0.423
  891TIP3    H2 2610   2.618   2.757   0.432
  892TIP3   OH2 2611   3.739   3.356   1.007
  892TIP3    H1 2612   3.758   3.287   0.943
  892TIP3    H2 2613   3.687   3.312   1.075
  893TIP3   OH2 2614   3.429   2.853   0.731
  893TIP3    H1 2615   3.415   2.940   0.770
  893TIP3    H2 2616   3.506   2.818   0.776
  894TIP3   OH2 2617   2.817   2.833   0.706
  894TIP3    H1 2618   2.733   2.873   0.685
  894TIP3    H2 2619   2.863   2.830   0.622
  895TIP3   OH2 2620   3.138   2.940   0.398
  895TIP3    H1 2621   3.228   2.937   0.429
  895TIP3    H2 2622   3.145   2.925   0.303
  896TIP3   OH2 2623   3.867   2.896   0.881
  896TIP3    H1 2624   3.848   2.916   0.973
  896TIP3    H2 2625   3.798   2.835   0.855
  897TIP3   OH2 2626   2.956   2.844   0.146
  897TIP3    H1 2627   2.862   2.838   0.128
  897TIP3    H2 2628   2.978   2.935   0.130
  898TIP3   OH2 2629   4.053   4.602   1.104
  898TIP3    H1 2630   4.050   4.612   1.009
  898TIP3    H2 2631   4.131   4.651   1.131
  899TIP3   OH2 2632   2.986   3.722   1.509
  899TIP3    H1 2633   3.069   3.742   1.553
  899TIP3    H2 2634   2.920   3.730   1.578
  900TIP3   OH2 2635   3.441   3.133   0.773
  900TIP3    H1 2636   3.525   3.152   0.731
  900TIP3    H2 2637   3.463   3.123   0.866
  901TIP3   OH2 2638   2.996   2.619   0.645
  901TIP3    H1 2639   2.943   2.548   0.609
  901TIP3    H2 2640   3.074   2.621   0.590
  902TIP3   OH2 2641   3.437   3.071   1.046
  902TIP3    H1 2642   3.355   3.116   1.064
  902TIP3    H2 2643   3.502   3.118   1.099
  903TIP3   OH2 2644   3.203   3.476   0.152
  903TIP3    H1 2645   3.121   3.436   0.122
  903TIP3    H2 2646   3.179   3.519   0.234
  904TIP3   OH2 2647   4.064   3.698   0.764
  904TIP3    H1 2648   4.103   3.750   0.693
  904TIP3    H2 2649   3.987   3.658   0.724
  905TIP3   OH2 2650   6.590   6.808   6.887
  905TIP3    H1 2651   6.533   6.745   6.931
  905TIP3    H2 2652   6.579   6.889   6.936
  906TIP3   OH2 2653   3.543   3.736   1.211
  906TIP3    H1 2654   3.622   3.750   1.262
  906TIP3    H2 2655   3.522   3.822   1.173
  907TIP3   OH2 2656   3.713   3.021   0.114
  907TIP3    H1 2657   3.803   3.039   0.141
  907TIP3    H2 2658   3.687   3.099   0.064
  908TIP3   OH2 2659   2.850   3.459   0.808
  908TIP3    H1 2660   2.893   3.451   0.723
  908TIP3    H2 2661   2.919   3.440   0.872
  909TIP3   OH2 2662   6.182   7.631   6.913
  909TIP3    H1 2663   6.130   7.711   6.906
  909TIP3    H2 2664   6.130   7.573   6.969
  910TIP3   OH2 2665   2.739   3.395   1.443
  910TIP3    H1 2666   2.750   3.373   1.536
  910TIP3    H2 2667   2.665   3.342   1.414
  911TIP3   OH2 2668   3.492   3.524   1.453
  911TIP3    H1 2669   3.443   3.518   1.371
  911TIP3    H2 2670   3.574   3.478   1.435
  912TIP3   OH2 2671   3.724   4.050   1.068
  912TIP3    H1 2672   3.629   4.035   1.071
  912TIP3    H2 2673   3.742   4.098   1.149
  913TIP3   OH2 2674   6.943   7.131   6.900
  913TIP3    H1 2675   6.892   7.093   6.829
  913TIP3    H2 2676   6.947   7.225   6.880
  914TIP3   OH2 2677   4.357   3.992   1.032
  914TIP3    H1 2678   4.263   3.971   1.033
  914TIP3    H2 2679   4.388   3.956   0.949
  915TIP3   OH2 2680   6.634   7.913   6.860
  915TIP3    H1 2681   6.617   7.889   6.951
  915TIP3    H2 2682   6.638   7.829   6.814
  916TIP3   OH2 2683   3.859   3.563   0.634
  916TIP3    H1 2684   3.776   3.538   0.674
  916TIP3    H2 2685   3.893   3.481   0.596
  917TIP3   OH2 2686   2.964   3.798   0.468
  917TIP3    H1 2687   2.972   3.877   0.415
  917TIP3    H2 2688   2.874   3.800   0.501
  918TIP3   OH2 2689   2.556   3.120   0.140
  918TIP3    H1 2690   2.593   3.197   0.182
  918TIP3    H2 2691   2.462   3.129   0.152
  919TIP3   OH2 2692   3.045   3.554   0.368
  919TIP3    H1 2693   3.032   3.644   0.397
  919TIP3    H2 2694   3.037   3.502   0.448
  920TIP3   OH2 2695   3.246   4.120   0.925
  920TIP3    H1 2696   3.281   4.203   0.894
  920TIP3    H2 2697   3.288   4.054   0.870
  921TIP3   OH2 2698   2.895   4.029   0.322
  921TIP3    H1 2699   2.809   4.035   0.365
  921TIP3    H2 2700   2.929   4.119   0.326
  922TIP3   OH2 2701   6.398   7.567   6.749
  922TIP3    H1 2702   6.470   7.590   6.807
  922TIP3    H2 2703   6.320   7.598   6.794
  923TIP3   OH2 2704   3.878   4.286   0.933
  923TIP3    H1 2705   3.795   4.240   0.945
  923TIP3    H2 2706   3.859   4.354   0.868
  924TIP3   OH2 2707   2.948   2.898   1.447
  924TIP3    H1 2708   2.854   2.912   1.457
  924TIP3    H2 2709   2.974   2.856   1.529
  925TIP3   OH2 2710   3.779   3.581  -0.025
  925TIP3    H1 2711   3.762   3.528   0.053
  925TIP3    H2 2712   3.875   3.586  -0.029
  926TIP3   OH2 2713   2.681   4.018   1.097
  926TIP3    H1 2714   2.735   3.958   1.149
  926TIP3    H2 2715   2.700   4.105   1.133
  927TIP3   OH2 2716   5.868   7.612   6.750
  927TIP3    H1 2717   5.783   7.605   6.707
  927TIP3    H2 2718   5.849   7.634   6.841
  928TIP3   OH2 2719   2.921   3.659   0.065
  928TIP3    H1 2720   2.970   3.637   0.144
  928TIP3    H2 2721   2.918   3.755   0.064
  929TIP3   OH2 2722   2.654   3.356   0.267
  929TIP3    H1 2723   2.603   3.411   0.326
  929TIP3    H2 2724   2.672   3.413   0.192
  930TIP3   OH2 2725   3.799   2.959   1.138
  930TIP3    H1 2726   3.873   3.009   1.169
  930TIP3    H2 2727   3.793   2.884   1.198
  931TIP3   OH2 2728   3.682   2.722   0.327
  931TIP3    H1 2729   3.637   2.731   0.243
  931TIP3    H2 2730   3.723   2.807   0.341
  932TIP3   OH2 2731   6.012   7.845   6.917
  932TIP3    H1 2732   5.933   7.873   6.964
  932TIP3    H2 2733   6.032   7.918   6.858
  933TIP3   OH2 2734   3.399   2.921   0.463
  933TIP3    H1 2735   3.454   2.990   0.426
  933TIP3    H2 2736   3.419   2.921   0.556
  934TIP3   OH2 2737   3.629   3.191   1.203
  934TIP3    H1 2738   3.656   3.243   1.279
  934TIP3    H2 2739   3.688   3.115   1.205
  935TIP3   OH2 2740   3.527   2.650   0.546
  935TIP3    H1 2741   3.496   2.726   0.596
  935TIP3    H2 2742   3.592   2.686   0.486
  936TIP3   OH2 2743   2.933   3.929   0.072
  936TIP3    H1 2744   2.908   3.998   0.010
  936TIP3    H2 2745   2.919   3.967   0.158
  937TIP3   OH2 2746   2.915   2.687   0.360
  937TIP3    H1 2747   2.948   2.734   0.283
  937TIP3    H2 2748   2.991   2.639   0.393
  938TIP3   OH2 2749   4.250   3.110   1.188
  938TIP3    H1 2750   4.155   3.111   1.197
  938TIP3    H2 2751   4.266   3.066   1.104
  939TIP3   OH2 2752   3.924   3.294   0.571
  939TIP3    H1 2753   3.840   3.267   0.608
  939TIP3    H2 2754   3.989   3.253   0.628
  940TIP3   OH2 2755   2.678   3.531   0.050
  940TIP3    H1 2756   2.754   3.588   0.055
  940TIP3    H2 2757   2.703   3.462  -0.011
  941TIP3   OH2 2758   2.689   2.811   0.158
  941TIP3    H1 2759   2.640   2.849   0.231
  941TIP3    H2 2760   2.687   2.717   0.175
  942TIP3   OH2 2761   3.886   4.279   0.519
  942TIP3    H1 2762   3.846   4.330   0.449
  942TIP3    H2 2763   3.980   4.285   0.503
  943TIP3   OH2 2764   2.925   2.559   1.144
  943TIP3    H1 2765   2.931   2.521   1.057
  943TIP3    H2 2766   2.939   2.486   1.204
  944TIP3   OH2 2767   2.505   3.788   0.493
  944TIP3    H1 2768   2.463   3.833   0.566
  944TIP3    H2 2769   2.470   3.831   0.415
  945TIP3   OH2 2770   2.693   4.322   1.510
  945TIP3    H1 2771   2.772   4.335   1.562
  945TIP3    H2 2772   2.692   4.229   1.489
  946TIP3   OH2 2773   3.150   4.225   1.552
  946TIP3    H1 2774   3.241   4.199   1.559
  946TIP3    H2 2775   3.115   4.173   1.480
  947TIP3   OH2 2776   5.967   7.834   6.610
  947TIP3    H1 2777   5.932   7.765   6.667
  947TIP3    H2 2778   6.044   7.795   6.569
  948TIP3   OH2 2779   3.769   4.169   1.314
  948TIP3    H1 2780   3.785   4.098   1.376
  948TIP3    H2 2781   3.843   4.228   1.325
  949TIP3   OH2 2782   2.786   3.714   1.705
  949TIP3    H1 2783   2.807   3.621   1.714
  949TIP3    H2 2784   2.700   3.715   1.664
  950TIP3   OH2 2785   5.639   7.327   6.865
  950TIP3    H1 2786   5.706   7.354   6.927
  950TIP3    H2 2787   5.680   7.337   6.779
  951TIP3   OH2 2788   3.407   3.804   1.482
  951TIP3    H1 2789   3.366   3.827   1.399
  951TIP3    H2 2790   3.459   3.726   1.463
  952TIP3   OH2 2791   6.091   7.499   6.615
  952TIP3    H1 2792   6.019   7.546   6.657
  952TIP3    H2 2793   6.132   7.450   6.686
  953TIP3   OH2 2794   3.891   3.834   1.108
  953TIP3    H1 2795   3.967   3.861   1.056
  953TIP3    H2 2796   3.825   3.901   1.090
  954TIP3   OH2 2797   2.900   3.456   1.703
  954TIP3    H1 2798   2.975   3.449   1.642
  954TIP3    H2 2799   2.940   3.477   1.787
  955TIP3   OH2 2800   2.953   3.363   0.151
  955TIP3    H1 2801   2.945   3.400   0.239
  955TIP3    H2 2802   2.977   3.271   0.165
  956TIP3   OH2 2803   3.235   3.318   1.330
  956TIP3    H1 2804   3.167   3.375   1.367
  956TIP3    H2 2805   3.295   3.377   1.286
  957TIP3   OH2 2806   5.943   7.107   6.819
  957TIP3    H1 2807   5.946   7.021   6.776
  957TIP3    H2 2808   6.035   7.133   6.826
  958TIP3   OH2 2809   3.767   3.716   1.451
  958TIP3    H1 2810   3.835   3.677   1.396
  958TIP3    H2 2811   3.764   3.660   1.528
  959TIP3   OH2 2812   3.365   3.115   1.471
  959TIP3    H1 2813   3.373   3.041   1.412
  959TIP3    H2 2814   3.328   3.185   1.417
  960TIP3   OH2 2815   3.376   2.911   1.276
  960TIP3    H1 2816   3.406   2.946   1.192
  960TIP3    H2 2817   3.286   2.882   1.260
  961TIP3   OH2 2818   3.388   3.504   1.190
  961TIP3    H1 2819   3.460   3.567   1.187
  961TIP3    H2 2820   3.327   3.534   1.123
  962TIP3   OH2 2821   3.980   3.398   1.517
  962TIP3    H1 2822   4.029   3.316   1.529
  962TIP3    H2 2823   4.047   3.463   1.500
  963TIP3   OH2 2824   4.007   3.655   1.269
  963TIP3    H1 2825   3.955   3.718   1.220
  963TIP3    H2 2826   4.097   3.669   1.238
  964TIP3   OH2 2827   3.252   3.196   1.714
  964TIP3    H1 2828   3.183   3.132   1.733
  964TIP3    H2 2829   3.283   3.174   1.626
  965TIP3   OH2 2830   3.508   2.687   1.374
  965TIP3    H1 2831   3.467   2.767   1.342
  965TIP3    H2 2832   3.440   2.620   1.365
  966TIP3   OH2 2833   3.626   3.152   1.573
  966TIP3    H1 2834   3.617   3.140   1.667
  966TIP3    H2 2835   3.537   3.136   1.539
  967TIP3   OH2 2836   3.869   3.099   1.441
  967TIP3    H1 2837   3.792   3.103   1.497
  967TIP3    H2 2838   3.941   3.081   1.501
  968TIP3   OH2 2839   4.104   3.073   1.592
  968TIP3    H1 2840   4.120   2.979   1.600
  968TIP3    H2 2841   4.100   3.104   1.683
  969TIP3   OH2 2842   3.086   2.976   1.778
  969TIP3    H1 2843   3.094   2.888   1.743
  969TIP3    H2 2844   3.125   2.971   1.865
  970TIP3   OH2 2845   3.567   2.656   1.639
  970TIP3    H1 2846   3.638   2.592   1.634
  970TIP3    H2 2847   3.542   2.671   1.548
  971TIP3   OH2 2848   3.661   2.873   1.782
  971TIP3    H1 2849   3.631   2.801   1.727
  971TIP3    H2 2850   3.588   2.935   1.782
  972TIP3   OH2 2851   0.066   0.121   6.826
  972TIP3    H1 2852   0.152   0.112   6.784
  972TIP3    H2 2853   0.010   0.156   6.757
  973TIP3   OH2 2854   2.420   3.530   0.139
  973TIP3    H1 2855   2.506   3.560   0.107
  973TIP3    H2 2856   2.387   3.474   0.069
  974TIP3   OH2 2857   2.311   4.119   0.551
  974TIP3    H1 2858   2.245   4.064   0.508
  974TIP3    H2 2859   2.354   4.060   0.613
  975TIP3   OH2 2860   2.431   3.936   0.717
  975TIP3    H1 2861   2.416   3.869   0.785
  975TIP3    H2 2862   2.490   3.999   0.758
  976TIP3   OH2 2863   4.162   4.321   0.507
  976TIP3    H1 2864   4.180   4.335   0.599
  976TIP3    H2 2865   4.193   4.401   0.464
  977TIP3   OH2 2866   4.188   4.339   0.784
  977TIP3    H1 2867   4.140   4.257   0.786
  977TIP3    H2 2868   4.263   4.325   0.842
  978TIP3   OH2 2869   4.241   4.057   1.357
  978TIP3    H1 2870   4.169   4.067   1.419
  978TIP3    H2 2871   4.285   4.141   1.358
  979TIP3   OH2 2872   6.886   7.571   6.916
  979TIP3    H1 2873   6.941   7.642   6.882
  979TIP3    H2 2874   6.937   7.533   6.988
  980TIP3   OH2 2875   4.193   3.422   0.168
  980TIP3    H1 2876   4.125   3.390   0.227
  980TIP3    H2 2877   4.257   3.465   0.225
  981TIP3   OH2 2878   4.237   3.835   0.599
  981TIP3    H1 2879   4.289   3.768   0.554
  981TIP3    H2 2880   4.241   3.911   0.540
  982TIP3   OH2 2881   4.035   4.106   0.797
  982TIP3    H1 2882   3.974   4.160   0.848
  982TIP3    H2 2883   3.981   4.068   0.728
  983TIP3   OH2 2884   6.907   7.361   6.746
  983TIP3    H1 2885   6.820   7.344   6.708
  983TIP3    H2 2886   6.894   7.439   6.800
  984TIP3   OH2 2887   6.805   7.051   6.682
  984TIP3    H1 2888   6.747   7.080   6.611
  984TIP3    H2 2889   6.804   6.956   6.676
  985TIP3   OH2 2890   3.987   3.292   0.305
  985TIP3    H1 2891   3.993   3.198   0.288
  985TIP3    H2 2892   3.968   3.299   0.398
  986TIP3   OH2 2893   2.610   3.357   1.079
  986TIP3    H1 2894   2.602   3.328   0.988
  986TIP3    H2 2895   2.704   3.353   1.097
  987TIP3   OH2 2896   4.258   3.706   1.164
  987TIP3    H1 2897   4.328   3.644   1.142
  987TIP3    H2 2898   4.254   3.765   1.089
  988TIP3   OH2 2899   4.439   3.497   1.151
  988TIP3    H1 2900   4.366   3.458   1.200
  988TIP3    H2 2901   4.515   3.443   1.174
  989TIP3   OH2 2902   6.802   6.781   6.712
  989TIP3    H1 2903   6.882   6.744   6.749
  989TIP3    H2 2904   6.740   6.782   6.784
  990TIP3   OH2 2905   3.987   3.024   0.193
  990TIP3    H1 2906   4.033   2.941   0.205
  990TIP3    H2 2907   4.031   3.064   0.118
  991TIP3   OH2 2908   4.131   3.173   0.717
  991TIP3    H1 2909   4.212   3.193   0.669
  991TIP3    H2 2910   4.143   3.215   0.802
  992TIP3   OH2 2911   4.202   3.328   0.941
  992TIP3    H1 2912   4.130   3.358   0.997
  992TIP3    H2 2913   4.233   3.407   0.897
  993TIP3   OH2 2914   2.825   3.038   1.718
  993TIP3    H1 2915   2.919   3.035   1.736
  993TIP3    H2 2916   2.789   2.960   1.760
  994TIP3   OH2 2917   4.661   2.936   1.476
  994TIP3    H1 2918   4.726   2.875   1.441
  994TIP3    H2 2919   4.627   2.982   1.399
  995TIP3   OH2 2920   4.102   2.772   0.232
  995TIP3    H1 2921   4.144   2.757   0.317
  995TIP3    H2 2922   4.031   2.708   0.228
  996TIP3   OH2 2923   2.852   2.770   0.992
  996TIP3    H1 2924   2.866   2.706   1.061
  996TIP3    H2 2925   2.888   2.851   1.027
  997TIP3   OH2 2926   2.629   3.040   1.131
  997TIP3    H1 2927   2.653   3.036   1.038
  997TIP3    H2 2928   2.672   3.120   1.162
  998TIP3   OH2 2929   4.514   3.048   1.276
  998TIP3    H1 2930   4.434   3.088   1.310
  998TIP3    H2 2931   4.484   2.973   1.224
  999TIP3   OH2 2932   7.041   6.687   6.801
  999TIP3    H1 2933   7.120   6.633   6.797
  999TIP3    H2 2934   7.073   6.777   6.814
 1000TIP3   OH2 2935   2.657   2.544   0.700
 1000TIP3    H1 2936   2.573   2.500   0.690
 1000TIP3    H2 2937   2.664   2.602   0.624
 1001TIP3   OH2 2938   3.747   4.234   0.155
 1001TIP3    H1 2939   3.788   4.223   0.069
 1001TIP3    H2 2940   3.783   4.316   0.189
 1002TIP3   OH2 2941   2.775   2.554   1.454
 1002TIP3    H1 2942   2.734   2.571   1.538
 1002TIP3    H2 2943   2.736   2.618   1.394
 1003TIP3   OH2 2944   2.802   4.050   1.515
 1003TIP3    H1 2945   2.711   4.019   1.513
 1003TIP3    H2 2946   2.829   4.037   1.606
 1004TIP3   OH2 2947   3.027   4.083   1.080
 1004TIP3    H1 2948   2.979   4.158   1.046
 1004TIP3    H2 2949   3.114   4.090   1.041
 1005TIP3   OH2 2950   3.417   4.310   1.213
 1005TIP3    H1 2951   3.459   4.300   1.298
 1005TIP3    H2 2952   3.478   4.363   1.162
 1006TIP3   OH2 2953   3.600   4.469   1.081
 1006TIP3    H1 2954   3.639   4.417   1.011
 1006TIP3    H2 2955   3.674   4.511   1.125
 1007TIP3   OH2 2956   4.426   2.802   1.169
 1007TIP3    H1 2957   4.340   2.800   1.127
 1007TIP3    H2 2958   4.456   2.711   1.166
 1008TIP3   OH2 2959   2.690   4.317   1.124
 1008TIP3    H1 2960   2.600   4.338   1.101
 1008TIP3    H2 2961   2.715   4.385   1.186
 1009TIP3   OH2 2962   2.919   4.310   0.968
 1009TIP3    H1 2963   2.835   4.315   1.014
 1009TIP3    H2 2964   2.899   4.336   0.878
 1010TIP3   OH2 2965   3.332   4.338   0.780
 1010TIP3    H1 2966   3.278   4.351   0.702
 1010TIP3    H2 2967   3.348   4.427   0.813
 1011TIP3   OH2 2968   3.609   4.302   0.845
 1011TIP3    H1 2969   3.518   4.275   0.829
 1011TIP3    H2 2970   3.639   4.334   0.761
 1012TIP3   OH2 2971   3.840   4.466   0.720
 1012TIP3    H1 2972   3.816   4.548   0.678
 1012TIP3    H2 2973   3.854   4.405   0.648
 1013TIP3   OH2 2974   2.612   4.105   0.844
 1013TIP3    H1 2975   2.634   4.082   0.934
 1013TIP3    H2 2976   2.686   4.073   0.792
 1014TIP3   OH2 2977   2.816   3.986   0.709
 1014TIP3    H1 2978   2.829   3.903   0.754
 1014TIP3    H2 2979   2.904   4.025   0.704
 1015TIP3   OH2 2980   3.067   4.102   0.705
 1015TIP3    H1 2981   3.139   4.051   0.667
 1015TIP3    H2 2982   3.097   4.119   0.795
 1016TIP3   OH2 2983   3.653   2.723   0.824
 1016TIP3    H1 2984   3.611   2.653   0.873
 1016TIP3    H2 2985   3.712   2.678   0.763
 1017TIP3   OH2 2986   4.126   2.632   0.689
 1017TIP3    H1 2987   4.162   2.689   0.621
 1017TIP3    H2 2988   4.031   2.647   0.685
 1018TIP3   OH2 2989   4.252   2.714   0.456
 1018TIP3    H1 2990   4.321   2.652   0.432
 1018TIP3    H2 2991   4.292   2.800   0.446
 1019TIP3   OH2 2992   2.867   2.514   0.867
 1019TIP3    H1 2993   2.783   2.507   0.820
 1019TIP3    H2 2994   2.914   2.434   0.843
 1020TIP3   OH2 2995   2.861   2.416   0.529
 1020TIP3    H1 2996   2.862   2.355   0.455
 1020TIP3    H2 2997   2.771   2.411   0.562
 1021TIP3   OH2 2998   3.331   2.535   0.731
 1021TIP3    H1 2999   3.376   2.544   0.647
 1021TIP3    H2 3000   3.398   2.552   0.796
 1022TIP3   OH2 3001   3.840   2.593   0.666
 1022TIP3    H1 3002   3.801   2.548   0.591
 1022TIP3    H2 3003   3.843   2.526   0.734
 1023TIP3   OH2 3004   3.905   2.580   0.225
 1023TIP3    H1 3005   3.825   2.621   0.258
 1023TIP3    H2 3006   3.907   2.494   0.268
 1024TIP3   OH2 3007   2.443   3.912   0.261
 1024TIP3    H1 3008   2.450   3.863   0.179
 1024TIP3    H2 3009   2.416   4.000   0.235
 1025TIP3   OH2 3010   2.723   2.548   0.211
 1025TIP3    H1 3011   2.726   2.474   0.152
 1025TIP3    H2 3012   2.813   2.557   0.243
 1026TIP3   OH2 3013   3.366   2.688   0.318
 1026TIP3    H1 3014   3.431   2.638   0.367
 1026TIP3    H2 3015   3.376   2.778   0.349
 1027TIP3   OH2 3016   0.322   0.058   6.743
 1027TIP3    H1 3017   0.414   0.075   6.725
 1027TIP3    H2 3018   0.299  -0.015   6.685
 1028TIP3   OH2 3019   1.030   0.171   6.846
 1028TIP3    H1 3020   1.017   0.076   6.846
 1028TIP3    H2 3021   0.977   0.202   6.773
 1029TIP3   OH2 3022   3.102   2.707   1.684
 1029TIP3    H1 3023   3.071   2.643   1.747
 1029TIP3    H2 3024   3.195   2.718   1.704
 1030TIP3   OH2 3025   3.349   2.713   1.806
 1030TIP3    H1 3026   3.428   2.692   1.756
 1030TIP3    H2 3027   3.348   2.649   1.877
 1031TIP3   OH2 3028   5.385   8.037   6.800
 1031TIP3    H1 3029   5.370   7.972   6.869
 1031TIP3    H2 3030   5.397   7.985   6.720
 1032TIP3   OH2 3031   4.171   2.802   1.603
 1032TIP3    H1 3032   4.187   2.771   1.692
 1032TIP3    H2 3033   4.256   2.798   1.560
 1033TIP3   OH2 3034   4.091   4.329   1.108
 1033TIP3    H1 3035   4.019   4.300   1.052
 1033TIP3    H2 3036   4.079   4.424   1.116
 1034TIP3   OH2 3037   5.351   3.686   0.262
 1034TIP3    H1 3038   5.389   3.688   0.350
 1034TIP3    H2 3039   5.302   3.604   0.259
 1035TIP3   OH2 3040   4.663   3.578   0.618
 1035TIP3    H1 3041   4.699   3.525   0.689
 1035TIP3    H2 3042   4.739   3.608   0.569
 1036TIP3   OH2 3043   4.635   3.979   0.331
 1036TIP3    H1 3044   4.610   3.886   0.331
 1036TIP3    H2 3045   4.730   3.978   0.320
 1037TIP3   OH2 3046   4.352   3.209   0.084
 1037TIP3    H1 3047   4.313   3.291   0.116
 1037TIP3    H2 3048   4.279   3.160   0.047
 1038TIP3   OH2 3049   4.414   3.512   0.307
 1038TIP3    H1 3050   4.465   3.437   0.336
 1038TIP3    H2 3051   4.480   3.581   0.292
 1039TIP3   OH2 3052   5.173   3.918   0.284
 1039TIP3    H1 3053   5.206   3.845   0.232
 1039TIP3    H2 3054   5.247   3.943   0.340
 1040TIP3   OH2 3055   6.161   3.250   0.322
 1040TIP3    H1 3056   6.200   3.324   0.369
 1040TIP3    H2 3057   6.132   3.287   0.239
 1041TIP3   OH2 3058   5.586   3.419   0.351
 1041TIP3    H1 3059   5.616   3.332   0.378
 1041TIP3    H2 3060   5.545   3.406   0.266
 1042TIP3   OH2 3061   4.930   3.075   0.271
 1042TIP3    H1 3062   4.906   3.151   0.217
 1042TIP3    H2 3063   4.875   3.004   0.240
 1043TIP3   OH2 3064   8.432   7.181   6.904
 1043TIP3    H1 3065   8.510   7.169   6.960
 1043TIP3    H2 3066   8.463   7.162   6.816
 1044TIP3   OH2 3067   4.553   3.295   0.406
 1044TIP3    H1 3068   4.637   3.282   0.450
 1044TIP3    H2 3069   4.560   3.242   0.327
 1045TIP3   OH2 3070   4.980   3.492   0.222
 1045TIP3    H1 3071   5.073   3.473   0.230
 1045TIP3    H2 3072   4.942   3.411   0.187
 1046TIP3   OH2 3073   6.250   3.464   0.467
 1046TIP3    H1 3074   6.174   3.520   0.456
 1046TIP3    H2 3075   6.298   3.502   0.541
 1047TIP3   OH2 3076   4.912   3.084   0.723
 1047TIP3    H1 3077   4.862   3.121   0.650
 1047TIP3    H2 3078   4.857   3.100   0.800
 1048TIP3   OH2 3079   5.009   3.856   0.501
 1048TIP3    H1 3080   4.948   3.923   0.531
 1048TIP3    H2 3081   5.048   3.893   0.422
 1049TIP3   OH2 3082   5.818   3.180   0.141
 1049TIP3    H1 3083   5.766   3.171   0.221
 1049TIP3    H2 3084   5.864   3.264   0.152
 1050TIP3   OH2 3085   4.802   3.191   0.492
 1050TIP3    H1 3086   4.857   3.267   0.514
 1050TIP3    H2 3087   4.848   3.148   0.421
 1051TIP3   OH2 3088   4.838   4.046   0.597
 1051TIP3    H1 3089   4.823   4.133   0.558
 1051TIP3    H2 3090   4.761   4.032   0.653
 1052TIP3   OH2 3091   7.044   7.759   6.799
 1052TIP3    H1 3092   7.031   7.793   6.711
 1052TIP3    H2 3093   7.069   7.835   6.852
 1053TIP3   OH2 3094   5.972   3.110   0.470
 1053TIP3    H1 3095   5.887   3.145   0.441
 1053TIP3    H2 3096   6.036   3.154   0.413
 1054TIP3   OH2 3097   5.252   2.774   0.459
 1054TIP3    H1 3098   5.244   2.683   0.487
 1054TIP3    H2 3099   5.176   2.818   0.498
 1055TIP3   OH2 3100   5.928   4.085   0.471
 1055TIP3    H1 3101   5.904   4.049   0.386
 1055TIP3    H2 3102   5.912   4.179   0.462
 1056TIP3   OH2 3103   6.044   3.791   0.296
 1056TIP3    H1 3104   5.968   3.846   0.277
 1056TIP3    H2 3105   6.118   3.838   0.257
 1057TIP3   OH2 3106   5.766   3.668   0.604
 1057TIP3    H1 3107   5.762   3.746   0.659
 1057TIP3    H2 3108   5.686   3.671   0.552
 1058TIP3   OH2 3109   4.765   3.618   0.092
 1058TIP3    H1 3110   4.722   3.547   0.043
 1058TIP3    H2 3111   4.847   3.579   0.122
 1059TIP3   OH2 3112   4.898   3.978   0.244
 1059TIP3    H1 3113   4.874   4.007   0.156
 1059TIP3    H2 3114   4.994   3.973   0.241
 1060TIP3   OH2 3115   4.875   3.626   0.442
 1060TIP3    H1 3116   4.912   3.593   0.360
 1060TIP3    H2 3117   4.922   3.708   0.459
 1061TIP3   OH2 3118   5.493   4.129   0.242
 1061TIP3    H1 3119   5.423   4.181   0.203
 1061TIP3    H2 3120   5.449   4.069   0.302
 1062TIP3   OH2 3121   5.029   4.138   0.774
 1062TIP3    H1 3122   4.970   4.202   0.814
 1062TIP3    H2 3123   4.974   4.091   0.711
 1063TIP3   OH2 3124   4.805   3.701   0.902
 1063TIP3    H1 3125   4.811   3.794   0.921
 1063TIP3    H2 3126   4.711   3.683   0.895
 1064TIP3   OH2 3127   4.837   4.319   0.850
 1064TIP3    H1 3128   4.808   4.327   0.759
 1064TIP3    H2 3129   4.756   4.301   0.898
 1065TIP3   OH2 3130   7.426   7.448   6.897
 1065TIP3    H1 3131   7.375   7.524   6.870
 1065TIP3    H2 3132   7.367   7.374   6.886
 1066TIP3   OH2 3133   4.430   3.871   0.800
 1066TIP3    H1 3134   4.363   3.856   0.734
 1066TIP3    H2 3135   4.467   3.784   0.817
 1067TIP3   OH2 3136   4.284   4.068   0.450
 1067TIP3    H1 3137   4.377   4.086   0.463
 1067TIP3    H2 3138   4.240   4.147   0.480
 1068TIP3   OH2 3139   6.185   4.476   0.446
 1068TIP3    H1 3140   6.146   4.430   0.372
 1068TIP3    H2 3141   6.125   4.460   0.519
 1069TIP3   OH2 3142   5.253   4.268   0.693
 1069TIP3    H1 3143   5.236   4.358   0.722
 1069TIP3    H2 3144   5.172   4.221   0.713
 1070TIP3   OH2 3145   4.406   4.234  -0.011
 1070TIP3    H1 3146   4.487   4.229   0.038
 1070TIP3    H2 3147   4.337   4.224   0.054
 1071TIP3   OH2 3148   6.014   3.622   0.782
 1071TIP3    H1 3149   5.932   3.632   0.734
 1071TIP3    H2 3150   6.033   3.528   0.779
 1072TIP3   OH2 3151   4.630   4.058   0.773
 1072TIP3    H1 3152   4.678   4.046   0.855
 1072TIP3    H2 3153   4.556   3.998   0.780
 1073TIP3   OH2 3154   5.016   2.869   0.578
 1073TIP3    H1 3155   4.932   2.837   0.546
 1073TIP3    H2 3156   4.994   2.950   0.626
 1074TIP3   OH2 3157   5.557   2.985   0.780
 1074TIP3    H1 3158   5.625   2.964   0.844
 1074TIP3    H2 3159   5.475   2.971   0.828
 1075TIP3   OH2 3160   5.778   3.405   0.690
 1075TIP3    H1 3161   5.739   3.400   0.777
 1075TIP3    H2 3162   5.759   3.494   0.659
 1076TIP3   OH2 3163   4.955   3.402   0.584
 1076TIP3    H1 3164   4.910   3.410   0.668
 1076TIP3    H2 3165   4.933   3.483   0.538
 1077TIP3   OH2 3166   4.838   3.279   0.114
 1077TIP3    H1 3167   4.747   3.267   0.141
 1077TIP3    H2 3168   4.842   3.246   0.025
 1078TIP3   OH2 3169   5.504   3.619   0.906
 1078TIP3    H1 3170   5.478   3.553   0.970
 1078TIP3    H2 3171   5.596   3.637   0.926
 1079TIP3   OH2 3172   5.481   3.381   0.100
 1079TIP3    H1 3173   5.442   3.437   0.034
 1079TIP3    H2 3174   5.513   3.305   0.052
 1080TIP3   OH2 3175   4.795   3.417   0.807
 1080TIP3    H1 3176   4.805   3.484   0.875
 1080TIP3    H2 3177   4.776   3.337   0.855
 1081TIP3   OH2 3178   4.388   2.935   0.386
 1081TIP3    H1 3179   4.452   2.973   0.446
 1081TIP3    H2 3180   4.434   2.929   0.302
 1082TIP3   OH2 3181   7.135   6.938   6.845
 1082TIP3    H1 3182   7.182   6.971   6.768
 1082TIP3    H2 3183   7.071   7.006   6.866
 1083TIP3   OH2 3184   5.500   3.631   0.498
 1083TIP3    H1 3185   5.536   3.563   0.440
 1083TIP3    H2 3186   5.459   3.582   0.569
 1084TIP3   OH2 3187   5.197   3.073   0.173
 1084TIP3    H1 3188   5.116   3.074   0.224
 1084TIP3    H2 3189   5.266   3.073   0.239
 1085TIP3   OH2 3190   4.602   3.149   0.180
 1085TIP3    H1 3191   4.517   3.157   0.136
 1085TIP3    H2 3192   4.633   3.061   0.156
 1086TIP3   OH2 3193   7.698   7.157   6.808
 1086TIP3    H1 3194   7.793   7.155   6.816
 1086TIP3    H2 3195   7.682   7.216   6.734
 1087TIP3   OH2 3196   5.661   3.147   0.367
 1087TIP3    H1 3197   5.643   3.161   0.460
 1087TIP3    H2 3198   5.589   3.092   0.336
 1088TIP3   OH2 3199   5.934   4.829   0.513
 1088TIP3    H1 3200   5.851   4.858   0.476
 1088TIP3    H2 3201   5.925   4.845   0.607
 1089TIP3   OH2 3202   4.790   3.963   1.003
 1089TIP3    H1 3203   4.870   3.988   1.049
 1089TIP3    H2 3204   4.720   3.978   1.067
 1090TIP3   OH2 3205   5.246   3.423   0.270
 1090TIP3    H1 3206   5.325   3.385   0.231
 1090TIP3    H2 3207   5.244   3.387   0.359
 1091TIP3   OH2 3208   4.741   2.905   0.146
 1091TIP3    H1 3209   4.715   2.825   0.193
 1091TIP3    H2 3210   4.757   2.876   0.056
 1092TIP3   OH2 3211   5.221   3.340   0.535
 1092TIP3    H1 3212   5.134   3.375   0.556
 1092TIP3    H2 3213   5.281   3.392   0.589
 1093TIP3   OH2 3214   5.829   3.960   0.245
 1093TIP3    H1 3215   5.814   4.018   0.170
 1093TIP3    H2 3216   5.750   3.905   0.249
 1094TIP3   OH2 3217   5.371   4.007   0.706
 1094TIP3    H1 3218   5.424   3.993   0.784
 1094TIP3    H2 3219   5.333   4.094   0.718
 1095TIP3   OH2 3220   4.626   3.694   0.313
 1095TIP3    H1 3221   4.667   3.684   0.227
 1095TIP3    H2 3222   4.696   3.674   0.376
 1096TIP3   OH2 3223   4.533   3.634   0.922
 1096TIP3    H1 3224   4.533   3.612   1.015
 1096TIP3    H2 3225   4.457   3.587   0.887
 1097TIP3   OH2 3226   5.270   3.773   0.950
 1097TIP3    H1 3227   5.200   3.715   0.919
 1097TIP3    H2 3228   5.350   3.735   0.916
 1098TIP3   OH2 3229   5.508   4.284   0.588
 1098TIP3    H1 3230   5.416   4.263   0.605
 1098TIP3    H2 3231   5.538   4.324   0.670
 1099TIP3   OH2 3232   6.171   4.194   0.557
 1099TIP3    H1 3233   6.088   4.147   0.543
 1099TIP3    H2 3234   6.207   4.205   0.469
 1100TIP3   OH2 3235   5.616   3.790   0.234
 1100TIP3    H1 3236   5.521   3.777   0.228
 1100TIP3    H2 3237   5.653   3.717   0.185
 1101TIP3   OH2 3238   1.959   0.057   6.939
 1101TIP3    H1 3239   2.004   0.129   6.894
 1101TIP3    H2 3240   1.879   0.096   6.974
 1102TIP3   OH2 3241   7.165   7.332   6.650
 1102TIP3    H1 3242   7.182   7.418   6.611
 1102TIP3    H2 3243   7.075   7.339   6.685
 1103TIP3   OH2 3244   7.692   7.813   6.848
 1103TIP3    H1 3245   7.668   7.902   6.872
 1103TIP3    H2 3246   7.654   7.758   6.916
 1104TIP3   OH2 3247   5.009   4.302   0.403
 1104TIP3    H1 3248   5.007   4.397   0.388
 1104TIP3    H2 3249   5.099   4.284   0.431
 1105TIP3   OH2 3250   5.401   3.953   0.439
 1105TIP3    H1 3251   5.388   3.974   0.531
 1105TIP3    H2 3252   5.490   3.916   0.435
 1106TIP3   OH2 3253   5.609   4.513   0.475
 1106TIP3    H1 3254   5.577   4.439   0.526
 1106TIP3    H2 3255   5.632   4.476   0.389
 1107TIP3   OH2 3256   4.740   3.163   0.928
 1107TIP3    H1 3257   4.645   3.172   0.933
 1107TIP3    H2 3258   4.764   3.119   1.009
 1108TIP3   OH2 3259   4.476   4.260   0.577
 1108TIP3    H1 3260   4.540   4.216   0.632
 1108TIP3    H2 3261   4.473   4.350   0.610
 1109TIP3   OH2 3262   5.599   3.206   0.622
 1109TIP3    H1 3263   5.668   3.259   0.661
 1109TIP3    H2 3264   5.585   3.135   0.685
 1110TIP3   OH2 3265   7.970   7.148   6.851
 1110TIP3    H1 3266   8.031   7.218   6.825
 1110TIP3    H2 3267   7.988   7.133   6.944
 1111TIP3   OH2 3268   5.422   3.451   0.693
 1111TIP3    H1 3269   5.447   3.504   0.770
 1111TIP3    H2 3270   5.477   3.373   0.699
 1112TIP3   OH2 3271   5.303   2.869   0.021
 1112TIP3    H1 3272   5.265   2.942   0.071
 1112TIP3    H2 3273   5.390   2.900  -0.005
 1113TIP3   OH2 3274   7.633   6.883   6.805
 1113TIP3    H1 3275   7.629   6.979   6.803
 1113TIP3    H2 3276   7.726   6.863   6.793
 1114TIP3   OH2 3277   6.045   3.360   0.679
 1114TIP3    H1 3278   5.950   3.357   0.681
 1114TIP3    H2 3279   6.067   3.367   0.586
 1115TIP3   OH2 3280   5.708   3.562   0.107
 1115TIP3    H1 3281   5.634   3.501   0.112
 1115TIP3    H2 3282   5.782   3.512   0.141
 1116TIP3   OH2 3283   7.217   7.065   6.619
 1116TIP3    H1 3284   7.209   7.159   6.635
 1116TIP3    H2 3285   7.202   7.056   6.525
 1117TIP3   OH2 3286   4.757   2.782   0.532
 1117TIP3    H1 3287   4.727   2.750   0.447
 1117TIP3    H2 3288   4.748   2.706   0.590
 1118TIP3   OH2 3289   1.433  -0.014   6.911
 1118TIP3    H1 3290   1.394   0.024   6.989
 1118TIP3    H2 3291   1.496   0.052   6.880
 1119TIP3   OH2 3292   4.474   4.561   1.006
 1119TIP3    H1 3293   4.557   4.559   1.054
 1119TIP3    H2 3294   4.453   4.469   0.990
 1120TIP3   OH2 3295   4.945   4.471   1.052
 1120TIP3    H1 3296   5.038   4.448   1.053
 1120TIP3    H2 3297   4.909   4.424   0.977
 1121TIP3   OH2 3298   5.586   4.424   0.806
 1121TIP3    H1 3299   5.581   4.352   0.869
 1121TIP3    H2 3300   5.657   4.479   0.839
 1122TIP3   OH2 3301   4.582   3.970   1.191
 1122TIP3    H1 3302   4.597   3.875   1.200
 1122TIP3    H2 3303   4.497   3.977   1.148
 1123TIP3   OH2 3304   5.202   4.050   0.968
 1123TIP3    H1 3305   5.148   4.068   0.891
 1123TIP3    H2 3306   5.237   3.962   0.952
 1124TIP3   OH2 3307   5.664   4.050   0.573
 1124TIP3    H1 3308   5.743   4.076   0.527
 1124TIP3    H2 3309   5.607   4.127   0.569
 1125TIP3   OH2 3310   4.697   3.710   1.196
 1125TIP3    H1 3311   4.772   3.704   1.136
 1125TIP3    H2 3312   4.735   3.735   1.280
 1126TIP3   OH2 3313   5.067   3.600   0.846
 1126TIP3    H1 3314   4.981   3.641   0.854
 1126TIP3    H2 3315   5.100   3.631   0.761
 1127TIP3   OH2 3316   5.548   3.961   0.928
 1127TIP3    H1 3317   5.622   3.929   0.877
 1127TIP3    H2 3318   5.549   3.909   1.008
 1128TIP3   OH2 3319   5.166   3.369   0.957
 1128TIP3    H1 3320   5.168   3.299   0.892
 1128TIP3    H2 3321   5.133   3.445   0.908
 1129TIP3   OH2 3322   5.172   3.166   0.757
 1129TIP3    H1 3323   5.198   3.207   0.675
 1129TIP3    H2 3324   5.080   3.142   0.744
 1130TIP3   OH2 3325   5.193   3.699   0.624
 1130TIP3    H1 3326   5.277   3.744   0.617
 1130TIP3    H2 3327   5.130   3.756   0.581
 1131TIP3   OH2 3328   5.770   3.657   1.004
 1131TIP3    H1 3329   5.826   3.579   1.008
 1131TIP3    H2 3330   5.831   3.730   0.995
 1132TIP3   OH2 3331   5.777   3.900   0.766
 1132TIP3    H1 3332   5.728   3.955   0.705
 1132TIP3    H2 3333   5.868   3.910   0.739
 1133TIP3   OH2 3334   5.051   3.449   1.201
 1133TIP3    H1 3335   4.980   3.389   1.221
 1133TIP3    H2 3336   5.078   3.427   1.112
 1134TIP3   OH2 3337   5.292   2.934   0.857
 1134TIP3    H1 3338   5.252   3.015   0.825
 1134TIP3    H2 3339   5.224   2.868   0.845
 1135TIP3   OH2 3340   5.422   3.407   1.060
 1135TIP3    H1 3341   5.410   3.395   1.155
 1135TIP3    H2 3342   5.336   3.388   1.023
 1136TIP3   OH2 3343   5.663   3.355   0.928
 1136TIP3    H1 3344   5.585   3.361   0.983
 1136TIP3    H2 3345   5.735   3.340   0.990
 1137TIP3   OH2 3346   5.901   3.331   1.080
 1137TIP3    H1 3347   5.914   3.237   1.087
 1137TIP3    H2 3348   5.896   3.361   1.170
 1138TIP3   OH2 3349   4.881   3.230   1.264
 1138TIP3    H1 3350   4.887   3.141   1.230
 1138TIP3    H2 3351   4.918   3.226   1.352
 1139TIP3   OH2 3352   5.361   2.913   1.122
 1139TIP3    H1 3353   5.429   2.846   1.114
 1139TIP3    H2 3354   5.329   2.925   1.033
 1140TIP3   OH2 3355   5.457   3.128   1.266
 1140TIP3    H1 3356   5.424   3.056   1.212
 1140TIP3    H2 3357   5.385   3.191   1.268
 1141TIP3   OH2 3358   4.063   4.333   0.017
 1141TIP3    H1 3359   4.002   4.277  -0.031
 1141TIP3    H2 3360   4.105   4.274   0.080
 1142TIP3   OH2 3361   4.222   4.181   0.194
 1142TIP3    H1 3362   4.212   4.113   0.261
 1142TIP3    H2 3363   4.267   4.253   0.239
 1143TIP3   OH2 3364   5.896   4.592   0.348
 1143TIP3    H1 3365   5.878   4.583   0.254
 1143TIP3    H2 3366   5.970   4.652   0.352
 1144TIP3   OH2 3367   5.982   4.242   0.904
 1144TIP3    H1 3368   5.923   4.276   0.972
 1144TIP3    H2 3369   6.014   4.319   0.858
 1145TIP3   OH2 3370   5.815   4.490   0.095
 1145TIP3    H1 3371   5.752   4.446   0.152
 1145TIP3    H2 3372   5.794   4.457   0.007
 1146TIP3   OH2 3373   4.399   3.609   0.563
 1146TIP3    H1 3374   4.390   3.579   0.473
 1146TIP3    H2 3375   4.493   3.609   0.579
 1147TIP3   OH2 3376   6.031   3.926   0.668
 1147TIP3    H1 3377   6.099   3.867   0.635
 1147TIP3    H2 3378   6.001   3.974   0.590
 1148TIP3   OH2 3379   6.218   3.724   0.629
 1148TIP3    H1 3380   6.150   3.690   0.688
 1148TIP3    H2 3381   6.298   3.681   0.657
 1149TIP3   OH2 3382   5.948   3.429   0.192
 1149TIP3    H1 3383   5.990   3.493   0.135
 1149TIP3    H2 3384   5.954   3.467   0.280
 1150TIP3   OH2 3385   5.985   3.566   0.432
 1150TIP3    H1 3386   5.911   3.592   0.487
 1150TIP3    H2 3387   6.011   3.647   0.388
 1151TIP3   OH2 3388   4.618   3.291   1.200
 1151TIP3    H1 3389   4.712   3.290   1.221
 1151TIP3    H2 3390   4.583   3.211   1.238
 1152TIP3   OH2 3391   6.454   3.188   0.980
 1152TIP3    H1 3392   6.517   3.131   0.936
 1152TIP3    H2 3393   6.413   3.238   0.909
 1153TIP3   OH2 3394   4.592   3.006   0.558
 1153TIP3    H1 3395   4.648   2.928   0.561
 1153TIP3    H2 3396   4.653   3.078   0.540
 1154TIP3   OH2 3397   4.370   3.269   0.618
 1154TIP3    H1 3398   4.425   3.265   0.539
 1154TIP3    H2 3399   4.386   3.356   0.654
 1155TIP3   OH2 3400   6.306   3.303   0.786
 1155TIP3    H1 3401   6.234   3.348   0.832
 1155TIP3    H2 3402   6.262   3.241   0.728
 1156TIP3   OH2 3403   4.365   2.767   0.116
 1156TIP3    H1 3404   4.282   2.769   0.163
 1156TIP3    H2 3405   4.357   2.833   0.048
 1157TIP3   OH2 3406   4.582   2.819   0.930
 1157TIP3    H1 3407   4.538   2.822   1.015
 1157TIP3    H2 3408   4.529   2.876   0.874
 1158TIP3   OH2 3409   4.621   4.279   1.018
 1158TIP3    H1 3410   4.527   4.266   1.007
 1158TIP3    H2 3411   4.632   4.286   1.113
 1159TIP3   OH2 3412   4.797   4.324   0.575
 1159TIP3    H1 3413   4.745   4.396   0.540
 1159TIP3    H2 3414   4.872   4.318   0.516
 1160TIP3   OH2 3415   5.229   4.552   0.732
 1160TIP3    H1 3416   5.269   4.549   0.819
 1160TIP3    H2 3417   5.279   4.617   0.684
 1161TIP3   OH2 3418   5.420   4.685   0.582
 1161TIP3    H1 3419   5.478   4.630   0.530
 1161TIP3    H2 3420   5.474   4.716   0.654
 1162TIP3   OH2 3421   6.196   3.064   0.668
 1162TIP3    H1 3422   6.111   3.071   0.624
 1162TIP3    H2 3423   6.222   2.972   0.656
 1163TIP3   OH2 3424   4.445   4.529   0.635
 1163TIP3    H1 3425   4.364   4.561   0.595
 1163TIP3    H2 3426   4.481   4.605   0.681
 1164TIP3   OH2 3427   4.672   4.539   0.461
 1164TIP3    H1 3428   4.585   4.565   0.491
 1164TIP3    H2 3429   4.673   4.561   0.368
 1165TIP3   OH2 3430   5.156   4.560   0.164
 1165TIP3    H1 3431   5.069   4.570   0.125
 1165TIP3    H2 3432   5.147   4.595   0.253
 1166TIP3   OH2 3433   5.386   4.431   0.224
 1166TIP3    H1 3434   5.298   4.439   0.188
 1166TIP3    H2 3435   5.420   4.521   0.226
 1167TIP3   OH2 3436   4.407   4.345   0.320
 1167TIP3    H1 3437   4.425   4.325   0.412
 1167TIP3    H2 3438   4.479   4.305   0.272
 1168TIP3   OH2 3439   4.598   4.203   0.181
 1168TIP3    H1 3440   4.605   4.126   0.238
 1168TIP3    H2 3441   4.683   4.246   0.188
 1169TIP3   OH2 3442   4.845   4.310   0.183
 1169TIP3    H1 3443   4.889   4.383   0.141
 1169TIP3    H2 3444   4.901   4.287   0.257
 1170TIP3   OH2 3445   5.442   2.977   0.296
 1170TIP3    H1 3446   5.401   2.908   0.349
 1170TIP3    H2 3447   5.504   2.931   0.241
 1171TIP3   OH2 3448   5.921   2.898   0.152
 1171TIP3    H1 3449   5.953   2.988   0.139
 1171TIP3    H2 3450   5.827   2.908   0.167
 1172TIP3   OH2 3451   4.669   2.676   0.291
 1172TIP3    H1 3452   4.581   2.642   0.304
 1172TIP3    H2 3453   4.724   2.597   0.285
 1173TIP3   OH2 3454   7.285   6.572   6.886
 1173TIP3    H1 3455   7.344   6.619   6.826
 1173TIP3    H2 3456   7.271   6.632   6.958
 1174TIP3   OH2 3457   5.154   2.709   0.201
 1174TIP3    H1 3458   5.201   2.765   0.140
 1174TIP3    H2 3459   5.184   2.737   0.288
 1175TIP3   OH2 3460   5.640   2.845   0.149
 1175TIP3    H1 3461   5.670   2.800   0.070
 1175TIP3    H2 3462   5.643   2.778   0.217
 1176TIP3   OH2 3463   7.431   6.716   6.711
 1176TIP3    H1 3464   7.450   6.708   6.617
 1176TIP3    H2 3465   7.498   6.776   6.744
 1177TIP3   OH2 3466   7.909   6.880   6.781
 1177TIP3    H1 3467   7.980   6.843   6.834
 1177TIP3    H2 3468   7.925   6.974   6.781
 1178TIP3   OH2 3469   4.895   2.957   1.178
 1178TIP3    H1 3470   4.859   2.892   1.238
 1178TIP3    H2 3471   4.986   2.965   1.203
 1179TIP3   OH2 3472   5.141   2.963   1.303
 1179TIP3    H1 3473   5.220   2.940   1.255
 1179TIP3    H2 3474   5.134   2.896   1.371
 1180TIP3   OH2 3475   5.966   3.058   1.087
 1180TIP3    H1 3476   5.982   3.032   1.178
 1180TIP3    H2 3477   6.051   3.052   1.045
 1181TIP3   OH2 3478   5.815   4.600   0.636
 1181TIP3    H1 3479   5.745   4.561   0.583
 1181TIP3    H2 3480   5.871   4.644   0.572
 1182TIP3   OH2 3481   6.668   3.325   0.200
 1182TIP3    H1 3482   6.638   3.401   0.150
 1182TIP3    H2 3483   6.623   3.333   0.284
 1183TIP3   OH2 3484   6.603   3.919   0.380
 1183TIP3    H1 3485   6.621   4.004   0.420
 1183TIP3    H2 3486   6.508   3.910   0.382
 1184TIP3   OH2 3487   6.238   3.961   0.208
 1184TIP3    H1 3488   6.224   4.054   0.188
 1184TIP3    H2 3489   6.285   3.961   0.291
 1185TIP3   OH2 3490   6.468   4.239   0.250
 1185TIP3    H1 3491   6.486   4.290   0.329
 1185TIP3    H2 3492   6.377   4.211   0.259
 1186TIP3   OH2 3493   7.296   3.144   0.275
 1186TIP3    H1 3494   7.356   3.216   0.294
 1186TIP3    H2 3495   7.215   3.168   0.319
 1187TIP3   OH2 3496   7.291   3.900   0.408
 1187TIP3    H1 3497   7.272   3.825   0.464
 1187TIP3    H2 3498   7.369   3.875   0.358
 1188TIP3   OH2 3499   6.629   3.629   0.286
 1188TIP3    H1 3500   6.611   3.717   0.317
 1188TIP3    H2 3501   6.592   3.571   0.352
 1189TIP3   OH2 3502   6.616   4.146   0.540
 1189TIP3    H1 3503   6.688   4.191   0.586
 1189TIP3    H2 3504   6.550   4.215   0.526
 1190TIP3   OH2 3505   6.339   3.912   0.464
 1190TIP3    H1 3506   6.385   3.936   0.545
 1190TIP3    H2 3507   6.281   3.841   0.490
 1191TIP3   OH2 3508   7.050   4.011   0.455
 1191TIP3    H1 3509   6.984   3.957   0.412
 1191TIP3    H2 3510   7.134   3.974   0.426
 1192TIP3   OH2 3511   6.535   3.398   0.432
 1192TIP3    H1 3512   6.440   3.407   0.440
 1192TIP3    H2 3513   6.562   3.356   0.513
 1193TIP3   OH2 3514   6.257   4.737   0.439
 1193TIP3    H1 3515   6.323   4.743   0.370
 1193TIP3    H2 3516   6.235   4.644   0.442
 1194TIP3   OH2 3517   6.713   4.739   0.502
 1194TIP3    H1 3518   6.666   4.676   0.558
 1194TIP3    H2 3519   6.779   4.688   0.458
 1195TIP3   OH2 3520   6.354   4.195   0.760
 1195TIP3    H1 3521   6.401   4.112   0.749
 1195TIP3    H2 3522   6.295   4.198   0.685
 1196TIP3   OH2 3523   6.979   4.272   0.443
 1196TIP3    H1 3524   6.930   4.279   0.361
 1196TIP3    H2 3525   7.009   4.182   0.445
 1197TIP3   OH2 3526   6.498   3.955   0.694
 1197TIP3    H1 3527   6.555   4.008   0.638
 1197TIP3    H2 3528   6.532   3.969   0.782
 1198TIP3   OH2 3529   6.862   3.864   0.314
 1198TIP3    H1 3530   6.773   3.883   0.346
 1198TIP3    H2 3531   6.852   3.860   0.219
 1199TIP3   OH2 3532   7.337   4.217   0.529
 1199TIP3    H1 3533   7.303   4.167   0.455
 1199TIP3    H2 3534   7.355   4.152   0.596
 1200TIP3   OH2 3535   6.959   3.643   0.447
 1200TIP3    H1 3536   6.946   3.568   0.389
 1200TIP3    H2 3537   6.927   3.718   0.397
 1201TIP3   OH2 3538   6.925   3.432   0.270
 1201TIP3    H1 3539   6.971   3.389   0.198
 1201TIP3    H2 3540   6.832   3.419   0.251
 1202TIP3   OH2 3541   7.604   3.886   0.587
 1202TIP3    H1 3542   7.563   3.820   0.530
 1202TIP3    H2 3543   7.652   3.942   0.526
 1203TIP3   OH2 3544   6.845   3.706   0.695
 1203TIP3    H1 3545   6.775   3.643   0.712
 1203TIP3    H2 3546   6.870   3.690   0.604
 1204TIP3   OH2 3547   7.061   3.224   0.396
 1204TIP3    H1 3548   7.027   3.310   0.372
 1204TIP3    H2 3549   6.995   3.162   0.365
 1205TIP3   OH2 3550   7.221   3.664   0.544
 1205TIP3    H1 3551   7.206   3.654   0.638
 1205TIP3    H2 3552   7.135   3.652   0.505
 1206TIP3   OH2 3553   7.483   3.686   0.441
 1206TIP3    H1 3554   7.399   3.660   0.480
 1206TIP3    H2 3555   7.546   3.621   0.474
 1207TIP3   OH2 3556   7.676   3.535   0.564
 1207TIP3    H1 3557   7.693   3.446   0.595
 1207TIP3    H2 3558   7.693   3.590   0.641
 1208TIP3   OH2 3559   6.674   3.497   0.768
 1208TIP3    H1 3560   6.679   3.406   0.737
 1208TIP3    H2 3561   6.711   3.494   0.856
 1209TIP3   OH2 3562   7.156   3.168   0.645
 1209TIP3    H1 3563   7.236   3.119   0.626
 1209TIP3    H2 3564   7.114   3.180   0.560
 1210TIP3   OH2 3565   7.256   3.394   0.754
 1210TIP3    H1 3566   7.218   3.318   0.710
 1210TIP3    H2 3567   7.185   3.458   0.756
 1211TIP3   OH2 3568   6.412   3.536   0.687
 1211TIP3    H1 3569   6.505   3.541   0.710
 1211TIP3    H2 3570   6.380   3.457   0.730
 1212TIP3   OH2 3571   6.369   3.108   0.449
 1212TIP3    H1 3572   6.321   3.092   0.530
 1212TIP3    H2 3573   6.303   3.141   0.388
 1213TIP3   OH2 3574   6.432   4.353   0.498
 1213TIP3    H1 3575   6.348   4.395   0.479
 1213TIP3    H2 3576   6.479   4.417   0.553
 1214TIP3   OH2 3577   6.684   3.231   0.692
 1214TIP3    H1 3578   6.648   3.159   0.744
 1214TIP3    H2 3579   6.777   3.233   0.715
 1215TIP3   OH2 3580   6.937   3.234   0.807
 1215TIP3    H1 3581   7.015   3.210   0.757
 1215TIP3    H2 3582   6.915   3.155   0.857
 1216TIP3   OH2 3583   0.455   4.306   1.461
 1216TIP3    H1 3584   0.461   4.395   1.496
 1216TIP3    H2 3585   0.496   4.311   1.375
 1217TIP3   OH2 3586   8.415   4.486   1.491
 1217TIP3    H1 3587   8.429   4.393   1.508
 1217TIP3    H2 3588   8.483   4.509   1.428
 1218TIP3   OH2 3589   0.505   4.527   1.630
 1218TIP3    H1 3590   0.417   4.564   1.623
 1218TIP3    H2 3591   0.535   4.553   1.717
 1219TIP3   OH2 3592   0.057   4.236   1.283
 1219TIP3    H1 3593   0.113   4.182   1.339
 1219TIP3    H2 3594   0.090   4.325   1.296
 1220TIP3   OH2 3595   0.242   4.220   1.628
 1220TIP3    H1 3596   0.153   4.235   1.597
 1220TIP3    H2 3597   0.297   4.247   1.554
 1221TIP3   OH2 3598   0.130   5.257   1.593
 1221TIP3    H1 3599   0.134   5.170   1.552
 1221TIP3    H2 3600   0.095   5.313   1.524
 1222TIP3   OH2 3601   0.347   4.870   1.482
 1222TIP3    H1 3602   0.266   4.920   1.488
 1222TIP3    H2 3603   0.370   4.872   1.389
 1223TIP3   OH2 3604   0.074   4.742   1.788
 1223TIP3    H1 3605   0.063   4.822   1.839
 1223TIP3    H2 3606  -0.015   4.721   1.757
 1224TIP3   OH2 3607   0.434   5.534   1.717
 1224TIP3    H1 3608   0.424   5.440   1.706
 1224TIP3    H2 3609   0.348   5.565   1.745
 1225TIP3   OH2 3610   0.282   4.667   1.953
 1225TIP3    H1 3611   0.205   4.686   1.900
 1225TIP3    H2 3612   0.297   4.573   1.940
 1226TIP3   OH2 3613   8.378   4.039   1.937
 1226TIP3    H1 3614   8.438   4.006   2.004
 1226TIP3    H2 3615   8.296   4.056   1.984
 1227TIP3   OH2 3616   0.045   4.450   1.849
 1227TIP3    H1 3617   0.017   4.456   1.940
 1227TIP3    H2 3618   0.008   4.528   1.807
 1228TIP3   OH2 3619   8.345   4.732   2.093
 1228TIP3    H1 3620   8.322   4.653   2.045
 1228TIP3    H2 3621   8.432   4.713   2.129
 1229TIP3   OH2 3622   8.338   4.630   1.712
 1229TIP3    H1 3623   8.349   4.586   1.628
 1229TIP3    H2 3624   8.271   4.696   1.696
 1230TIP3   OH2 3625   8.466   4.218   1.562
 1230TIP3    H1 3626   8.411   4.222   1.641
 1230TIP3    H2 3627   8.414   4.166   1.500
 1231TIP3   OH2 3628   8.077   4.282   1.719
 1231TIP3    H1 3629   8.057   4.365   1.676
 1231TIP3    H2 3630   8.173   4.282   1.729
 1232TIP3   OH2 3631   0.107   5.001   1.493
 1232TIP3    H1 3632   0.067   5.011   1.407
 1232TIP3    H2 3633   0.035   4.973   1.550
 1233TIP3   OH2 3634   8.060   4.861   2.198
 1233TIP3    H1 3635   7.966   4.855   2.181
 1233TIP3    H2 3636   8.095   4.916   2.128
 1234TIP3   OH2 3637   0.390   5.255   1.693
 1234TIP3    H1 3638   0.297   5.265   1.675
 1234TIP3    H2 3639   0.428   5.228   1.609
 1235TIP3   OH2 3640   8.342   4.272   1.800
 1235TIP3    H1 3641   8.423   4.320   1.815
 1235TIP3    H2 3642   8.351   4.191   1.850
 1236TIP3   OH2 3643   8.227   4.503   1.927
 1236TIP3    H1 3644   8.255   4.559   1.855
 1236TIP3    H2 3645   8.249   4.414   1.900
 1237TIP3   OH2 3646   0.312   4.395   1.855
 1237TIP3    H1 3647   0.217   4.407   1.858
 1237TIP3    H2 3648   0.327   4.343   1.776
 1238TIP3   OH2 3649   8.343   5.496   2.084
 1238TIP3    H1 3650   8.276   5.559   2.110
 1238TIP3    H2 3651   8.421   5.549   2.068
 1239TIP3   OH2 3652   8.448   5.080   1.734
 1239TIP3    H1 3653   8.496   5.156   1.699
 1239TIP3    H2 3654   8.358   5.094   1.706
 1240TIP3   OH2 3655   8.376   5.014   2.214
 1240TIP3    H1 3656   8.431   5.051   2.145
 1240TIP3    H2 3657   8.343   4.933   2.177
 1241TIP3   OH2 3658   7.870   4.104   1.849
 1241TIP3    H1 3659   7.907   4.133   1.766
 1241TIP3    H2 3660   7.877   4.181   1.906
 1242TIP3   OH2 3661   0.089   4.704   2.224
 1242TIP3    H1 3662   0.135   4.630   2.183
 1242TIP3    H2 3663   0.147   4.779   2.209
 1243TIP3   OH2 3664   0.085   4.970   1.947
 1243TIP3    H1 3665   0.021   5.017   1.893
 1243TIP3    H2 3666   0.169   4.989   1.906
 1244TIP3   OH2 3667   8.056   3.877   2.006
 1244TIP3    H1 3668   8.069   3.970   1.985
 1244TIP3    H2 3669   7.995   3.846   1.939
 1245TIP3   OH2 3670   8.206   4.405   2.187
 1245TIP3    H1 3671   8.197   4.485   2.239
 1245TIP3    H2 3672   8.198   4.435   2.096
 1246TIP3   OH2 3673   8.471   4.439   2.107
 1246TIP3    H1 3674   8.389   4.410   2.148
 1246TIP3    H2 3675   8.540   4.402   2.163
 1247TIP3   OH2 3676   0.171   4.347   2.266
 1247TIP3    H1 3677   0.173   4.252   2.275
 1247TIP3    H2 3678   0.161   4.379   2.356
 1248TIP3   OH2 3679   8.244   3.979   2.191
 1248TIP3    H1 3680   8.290   3.896   2.204
 1248TIP3    H2 3681   8.164   3.955   2.144
 1249TIP3   OH2 3682   8.268   4.164   2.391
 1249TIP3    H1 3683   8.263   4.106   2.315
 1249TIP3    H2 3684   8.178   4.191   2.407
 1250TIP3   OH2 3685   0.248   5.355   2.018
 1250TIP3    H1 3686   0.207   5.378   2.101
 1250TIP3    H2 3687   0.305   5.429   1.998
 1251TIP3   OH2 3688   0.329   5.018   1.833
 1251TIP3    H1 3689   0.389   4.946   1.813
 1251TIP3    H2 3690   0.353   5.088   1.772
 1252TIP3   OH2 3691   0.488   4.795   1.829
 1252TIP3    H1 3692   0.412   4.755   1.871
 1252TIP3    H2 3693   0.560   4.734   1.846
 1253TIP3   OH2 3694   0.180   4.475   1.384
 1253TIP3    H1 3695   0.254   4.498   1.328
 1253TIP3    H2 3696   0.197   4.520   1.466
 1254TIP3   OH2 3697   0.255   4.638   1.601
 1254TIP3    H1 3698   0.189   4.669   1.664
 1254TIP3    H2 3699   0.287   4.718   1.559
 1255TIP3   OH2 3700   0.560   4.341   1.991
 1255TIP3    H1 3701   0.474   4.382   1.993
 1255TIP3    H2 3702   0.552   4.272   1.926
 1256TIP3   OH2 3703   0.477   4.089   1.840
 1256TIP3    H1 3704   0.388   4.072   1.810
 1256TIP3    H2 3705   0.523   4.006   1.828
 1257TIP3   OH2 3706   0.174   3.966   1.383
 1257TIP3    H1 3707   0.231   3.989   1.309
 1257TIP3    H2 3708   0.087   3.959   1.344
 1258TIP3   OH2 3709   0.311   4.026   1.157
 1258TIP3    H1 3710   0.293   3.983   1.073
 1258TIP3    H2 3711   0.356   4.107   1.133
 1259TIP3   OH2 3712   0.225   4.080   2.274
 1259TIP3    H1 3713   0.247   4.054   2.363
 1259TIP3    H2 3714   0.309   4.084   2.228
 1260TIP3   OH2 3715   0.166   5.591   1.777
 1260TIP3    H1 3716   0.111   5.517   1.753
 1260TIP3    H2 3717   0.138   5.661   1.718
 1261TIP3   OH2 3718   1.415   4.982   0.532
 1261TIP3    H1 3719   1.397   5.076   0.529
 1261TIP3    H2 3720   1.336   4.942   0.496
 1262TIP3   OH2 3721   1.421   5.006   0.927
 1262TIP3    H1 3722   1.466   4.991   1.010
 1262TIP3    H2 3723   1.373   4.924   0.911
 1263TIP3   OH2 3724   0.716   4.879   1.275
 1263TIP3    H1 3725   0.754   4.827   1.345
 1263TIP3    H2 3726   0.791   4.905   1.221
 1264TIP3   OH2 3727   1.686   5.313   0.624
 1264TIP3    H1 3728   1.673   5.243   0.688
 1264TIP3    H2 3729   1.707   5.390   0.677
 1265TIP3   OH2 3730   0.730   5.326   1.040
 1265TIP3    H1 3731   0.720   5.230   1.039
 1265TIP3    H2 3732   0.819   5.341   1.007
 1266TIP3   OH2 3733   0.539   4.809   0.973
 1266TIP3    H1 3734   0.558   4.722   1.008
 1266TIP3    H2 3735   0.584   4.811   0.888
 1267TIP3   OH2 3736   1.443   5.752   0.703
 1267TIP3    H1 3737   1.475   5.716   0.620
 1267TIP3    H2 3738   1.448   5.679   0.765
 1268TIP3   OH2 3739   1.232   5.225   0.949
 1268TIP3    H1 3740   1.271   5.146   0.912
 1268TIP3    H2 3741   1.306   5.277   0.979
 1269TIP3   OH2 3742   2.248   4.553   0.952
 1269TIP3    H1 3743   2.265   4.638   0.992
 1269TIP3    H2 3744   2.275   4.564   0.861
 1270TIP3   OH2 3745   1.632   4.721   0.984
 1270TIP3    H1 3746   1.666   4.635   1.008
 1270TIP3    H2 3747   1.590   4.708   0.899
 1271TIP3   OH2 3748   0.992   4.396   0.953
 1271TIP3    H1 3749   0.969   4.467   0.893
 1271TIP3    H2 3750   0.949   4.319   0.918
 1272TIP3   OH2 3751   1.689   4.513   0.581
 1272TIP3    H1 3752   1.754   4.495   0.649
 1272TIP3    H2 3753   1.742   4.538   0.504
 1273TIP3   OH2 3754   0.603   4.560   1.063
 1273TIP3    H1 3755   0.688   4.548   1.106
 1273TIP3    H2 3756   0.609   4.510   0.982
 1274TIP3   OH2 3757   1.029   4.807   0.877
 1274TIP3    H1 3758   1.123   4.789   0.881
 1274TIP3    H2 3759   0.991   4.724   0.849
 1275TIP3   OH2 3760   2.305   4.773   1.119
 1275TIP3    H1 3761   2.218   4.811   1.114
 1275TIP3    H2 3762   2.344   4.811   1.198
 1276TIP3   OH2 3763   0.961   4.387   1.395
 1276TIP3    H1 3764   0.916   4.425   1.320
 1276TIP3    H2 3765   0.903   4.404   1.469
 1277TIP3   OH2 3766   1.339   5.232   0.448
 1277TIP3    H1 3767   1.319   5.221   0.355
 1277TIP3    H2 3768   1.404   5.302   0.450
 1278TIP3   OH2 3769   1.062   5.155   1.161
 1278TIP3    H1 3770   1.008   5.226   1.196
 1278TIP3    H2 3771   1.106   5.193   1.085
 1279TIP3   OH2 3772   1.847   4.502   0.801
 1279TIP3    H1 3773   1.804   4.480   0.884
 1279TIP3    H2 3774   1.901   4.578   0.822
 1280TIP3   OH2 3775   0.850   4.492   1.166
 1280TIP3    H1 3776   0.902   4.569   1.190
 1280TIP3    H2 3777   0.900   4.451   1.095
 1281TIP3   OH2 3778   0.915   5.354   1.282
 1281TIP3    H1 3779   0.885   5.435   1.241
 1281TIP3    H2 3780   0.842   5.327   1.339
 1282TIP3   OH2 3781   1.718   5.553   0.762
 1282TIP3    H1 3782   1.633   5.554   0.806
 1282TIP3    H2 3783   1.720   5.635   0.711
 1283TIP3   OH2 3784   2.048   4.444   1.121
 1283TIP3    H1 3785   1.962   4.465   1.084
 1283TIP3    H2 3786   2.110   4.471   1.053
 1284TIP3   OH2 3787   1.305   4.101   1.115
 1284TIP3    H1 3788   1.295   4.010   1.142
 1284TIP3    H2 3789   1.228   4.145   1.152
 1285TIP3   OH2 3790   1.541   5.652   0.463
 1285TIP3    H1 3791   1.540   5.560   0.436
 1285TIP3    H2 3792   1.633   5.670   0.481
 1286TIP3   OH2 3793   1.564   5.388   0.396
 1286TIP3    H1 3794   1.596   5.333   0.324
 1286TIP3    H2 3795   1.612   5.357   0.473
 1287TIP3   OH2 3796   1.953   5.448   1.094
 1287TIP3    H1 3797   1.934   5.375   1.036
 1287TIP3    H2 3798   1.939   5.526   1.039
 1288TIP3   OH2 3799   1.235   4.858   0.338
 1288TIP3    H1 3800   1.192   4.791   0.286
 1288TIP3    H2 3801   1.302   4.895   0.280
 1289TIP3   OH2 3802   1.143   4.660   0.175
 1289TIP3    H1 3803   1.164   4.589   0.235
 1289TIP3    H2 3804   1.088   4.620   0.108
 1290TIP3   OH2 3805   2.130   5.116   0.958
 1290TIP3    H1 3806   2.045   5.160   0.956
 1290TIP3    H2 3807   2.166   5.129   0.871
 1291TIP3   OH2 3808   1.629   4.980   0.359
 1291TIP3    H1 3809   1.566   4.976   0.432
 1291TIP3    H2 3810   1.708   4.938   0.394
 1292TIP3   OH2 3811   1.826   4.978   1.267
 1292TIP3    H1 3812   1.823   5.061   1.314
 1292TIP3    H2 3813   1.744   4.974   1.218
 1293TIP3   OH2 3814   0.811   4.938   0.763
 1293TIP3    H1 3815   0.804   4.888   0.681
 1293TIP3    H2 3816   0.896   4.912   0.799
 1294TIP3   OH2 3817   0.978   5.340   0.926
 1294TIP3    H1 3818   0.957   5.382   0.843
 1294TIP3    H2 3819   1.065   5.302   0.913
 1295TIP3   OH2 3820   0.947   4.911   1.121
 1295TIP3    H1 3821   0.973   4.886   1.032
 1295TIP3    H2 3822   0.982   4.999   1.132
 1296TIP3   OH2 3823   1.486   5.564   0.903
 1296TIP3    H1 3824   1.473   5.634   0.968
 1296TIP3    H2 3825   1.471   5.483   0.951
 1297TIP3   OH2 3826   1.112   5.464   1.434
 1297TIP3    H1 3827   1.052   5.525   1.477
 1297TIP3    H2 3828   1.055   5.411   1.378
 1298TIP3   OH2 3829   1.429   4.956   0.174
 1298TIP3    H1 3830   1.504   4.952   0.233
 1298TIP3    H2 3831   1.468   4.969   0.087
 1299TIP3   OH2 3832   0.858   4.990   1.582
 1299TIP3    H1 3833   0.866   5.082   1.604
 1299TIP3    H2 3834   0.763   4.976   1.575
 1300TIP3   OH2 3835   0.903   5.622   1.514
 1300TIP3    H1 3836   0.869   5.625   1.424
 1300TIP3    H2 3837   0.828   5.593   1.567
 1301TIP3   OH2 3838   2.071   4.089   0.288
 1301TIP3    H1 3839   2.000   4.028   0.270
 1301TIP3    H2 3840   2.054   4.163   0.231
 1302TIP3   OH2 3841   0.482   5.171   1.453
 1302TIP3    H1 3842   0.435   5.196   1.373
 1302TIP3    H2 3843   0.504   5.079   1.439
 1303TIP3   OH2 3844   2.181   5.820   1.162
 1303TIP3    H1 3845   2.185   5.725   1.173
 1303TIP3    H2 3846   2.104   5.847   1.211
 1304TIP3   OH2 3847   1.285   5.600   1.273
 1304TIP3    H1 3848   1.279   5.692   1.297
 1304TIP3    H2 3849   1.221   5.556   1.329
 1305TIP3   OH2 3850   2.068   4.936   1.431
 1305TIP3    H1 3851   1.987   4.944   1.380
 1305TIP3    H2 3852   2.088   4.842   1.428
 1306TIP3   OH2 3853   0.712   5.321   1.463
 1306TIP3    H1 3854   0.759   5.307   1.546
 1306TIP3    H2 3855   0.636   5.263   1.468
 1307TIP3   OH2 3856   1.062   4.176   1.243
 1307TIP3    H1 3857   0.980   4.145   1.204
 1307TIP3    H2 3858   1.038   4.256   1.291
 1308TIP3   OH2 3859   1.613   4.293   1.439
 1308TIP3    H1 3860   1.681   4.267   1.501
 1308TIP3    H2 3861   1.531   4.275   1.485
 1309TIP3   OH2 3862   1.830   4.712   1.351
 1309TIP3    H1 3863   1.790   4.708   1.438
 1309TIP3    H2 3864   1.814   4.801   1.321
 1310TIP3   OH2 3865   1.109   4.228   0.189
 1310TIP3    H1 3866   1.137   4.211   0.279
 1310TIP3    H2 3867   1.127   4.146   0.143
 1311TIP3   OH2 3868   1.013   4.691   1.264
 1311TIP3    H1 3869   0.966   4.703   1.346
 1311TIP3    H2 3870   0.997   4.772   1.215
 1312TIP3   OH2 3871   0.872   4.589   0.796
 1312TIP3    H1 3872   0.785   4.551   0.808
 1312TIP3    H2 3873   0.893   4.571   0.704
 1313TIP3   OH2 3874   1.368   4.677   0.504
 1313TIP3    H1 3875   1.316   4.744   0.459
 1313TIP3    H2 3876   1.443   4.661   0.447
 1314TIP3   OH2 3877   1.554   4.922   1.565
 1314TIP3    H1 3878   1.527   4.854   1.627
 1314TIP3    H2 3879   1.646   4.938   1.585
 1315TIP3   OH2 3880   1.531   4.682   0.733
 1315TIP3    H1 3881   1.469   4.714   0.667
 1315TIP3    H2 3882   1.582   4.614   0.688
 1316TIP3   OH2 3883   0.842   4.720   1.475
 1316TIP3    H1 3884   0.847   4.791   1.538
 1316TIP3    H2 3885   0.816   4.644   1.527
 1317TIP3   OH2 3886   0.451   4.242   1.063
 1317TIP3    H1 3887   0.512   4.273   1.129
 1317TIP3    H2 3888   0.464   4.301   0.989
 1318TIP3   OH2 3889   1.573   4.925   1.151
 1318TIP3    H1 3890   1.601   4.858   1.089
 1318TIP3    H2 3891   1.526   4.877   1.219
 1319TIP3   OH2 3892   1.266   4.427   0.886
 1319TIP3    H1 3893   1.186   4.413   0.936
 1319TIP3    H2 3894   1.336   4.398   0.945
 1320TIP3   OH2 3895   0.643   4.423   0.830
 1320TIP3    H1 3896   0.596   4.412   0.747
 1320TIP3    H2 3897   0.703   4.348   0.833
 1321TIP3   OH2 3898   0.925   4.510   0.543
 1321TIP3    H1 3899   1.019   4.513   0.558
 1321TIP3    H2 3900   0.913   4.444   0.475
 1322TIP3   OH2 3901   1.706   4.458   1.039
 1322TIP3    H1 3902   1.681   4.479   1.129
 1322TIP3    H2 3903   1.642   4.393   1.010
 1323TIP3   OH2 3904   1.898   6.166   1.247
 1323TIP3    H1 3905   1.895   6.180   1.152
 1323TIP3    H2 3906   1.978   6.212   1.275
 1324TIP3   OH2 3907   0.846   5.244   1.696
 1324TIP3    H1 3908   0.926   5.275   1.738
 1324TIP3    H2 3909   0.776   5.271   1.755
 1325TIP3   OH2 3910   1.301   4.744   0.926
 1325TIP3    H1 3911   1.365   4.693   0.876
 1325TIP3    H2 3912   1.296   4.699   1.011
 1326TIP3   OH2 3913   0.819   4.214   0.834
 1326TIP3    H1 3914   0.783   4.134   0.870
 1326TIP3    H2 3915   0.866   4.186   0.755
 1327TIP3   OH2 3916   1.273   4.636   1.189
 1327TIP3    H1 3917   1.187   4.668   1.215
 1327TIP3    H2 3918   1.334   4.689   1.240
 1328TIP3   OH2 3919   1.893   5.250   0.914
 1328TIP3    H1 3920   1.928   5.298   0.839
 1328TIP3    H2 3921   1.814   5.207   0.880
 1329TIP3   OH2 3922   1.472   4.395   0.250
 1329TIP3    H1 3923   1.413   4.409   0.176
 1329TIP3    H2 3924   1.507   4.482   0.269
 1330TIP3   OH2 3925   1.411   5.333   1.320
 1330TIP3    H1 3926   1.459   5.330   1.403
 1330TIP3    H2 3927   1.365   5.417   1.321
 1331TIP3   OH2 3928   1.563   4.647   0.313
 1331TIP3    H1 3929   1.659   4.643   0.310
 1331TIP3    H2 3930   1.536   4.669   0.224
 1332TIP3   OH2 3931   0.697   5.055   0.989
 1332TIP3    H1 3932   0.746   5.031   0.910
 1332TIP3    H2 3933   0.665   4.972   1.024
 1333TIP3   OH2 3934   0.592   4.924   1.602
 1333TIP3    H1 3935   0.584   4.898   1.694
 1333TIP3    H2 3936   0.510   4.894   1.562
 1334TIP3   OH2 3937   1.323   5.078   1.612
 1334TIP3    H1 3938   1.254   5.021   1.578
 1334TIP3    H2 3939   1.404   5.039   1.580
 1335TIP3   OH2 3940   1.559   5.616   1.212
 1335TIP3    H1 3941   1.463   5.607   1.214
 1335TIP3    H2 3942   1.581   5.656   1.296
 1336TIP3   OH2 3943   1.974   4.672   0.111
 1336TIP3    H1 3944   1.901   4.634   0.063
 1336TIP3    H2 3945   1.984   4.759   0.073
 1337TIP3   OH2 3946   2.195   5.542   1.181
 1337TIP3    H1 3947   2.102   5.523   1.177
 1337TIP3    H2 3948   2.229   5.512   1.097
 1338TIP3   OH2 3949   1.665   5.112   0.816
 1338TIP3    H1 3950   1.576   5.089   0.843
 1338TIP3    H2 3951   1.701   5.031   0.781
 1339TIP3   OH2 3952   1.057   5.708   1.083
 1339TIP3    H1 3953   1.112   5.769   1.034
 1339TIP3    H2 3954   1.119   5.645   1.121
 1340TIP3   OH2 3955   1.469   5.329   1.051
 1340TIP3    H1 3956   1.450   5.327   1.144
 1340TIP3    H2 3957   1.550   5.278   1.042
 1341TIP3   OH2 3958   1.722   5.829   1.098
 1341TIP3    H1 3959   1.646   5.775   1.119
 1341TIP3    H2 3960   1.693   5.883   1.025
 1342TIP3   OH2 3961   0.761   4.445   1.577
 1342TIP3    H1 3962   0.676   4.488   1.583
 1342TIP3    H2 3963   0.744   4.354   1.603
 1343TIP3   OH2 3964   1.665   5.211   0.211
 1343TIP3    H1 3965   1.642   5.135   0.263
 1343TIP3    H2 3966   1.747   5.187   0.168
 1344TIP3   OH2 3967   0.558   5.516   1.329
 1344TIP3    H1 3968   0.481   5.460   1.330
 1344TIP3    H2 3969   0.625   5.465   1.374
 1345TIP3   OH2 3970   1.633   4.526   1.294
 1345TIP3    H1 3971   1.713   4.570   1.323
 1345TIP3    H2 3972   1.628   4.447   1.349
 1346TIP3   OH2 3973   1.511   4.320   0.507
 1346TIP3    H1 3974   1.492   4.342   0.416
 1346TIP3    H2 3975   1.567   4.392   0.538
 1347TIP3   OH2 3976   1.182   4.534   0.647
 1347TIP3    H1 3977   1.252   4.593   0.619
 1347TIP3    H2 3978   1.210   4.501   0.732
 1348TIP3   OH2 3979   1.472   4.755   1.343
 1348TIP3    H1 3980   1.500   4.799   1.423
 1348TIP3    H2 3981   1.525   4.675   1.340
 1349TIP3   OH2 3982   1.324   4.238   0.693
 1349TIP3    H1 3983   1.304   4.306   0.757
 1349TIP3    H2 3984   1.400   4.272   0.646
 1350TIP3   OH2 3985   0.895   4.294   0.365
 1350TIP3    H1 3986   0.839   4.221   0.337
 1350TIP3    H2 3987   0.957   4.305   0.293
 1351TIP3   OH2 3988   2.095   4.662   1.340
 1351TIP3    H1 3989   2.000   4.668   1.348
 1351TIP3    H2 3990   2.109   4.612   1.259
 1352TIP3   OH2 3991   1.760   4.860   0.732
 1352TIP3    H1 3992   1.682   4.806   0.744
 1352TIP3    H2 3993   1.826   4.818   0.787
 1353TIP3   OH2 3994   1.758   5.795   0.638
 1353TIP3    H1 3995   1.727   5.872   0.589
 1353TIP3    H2 3996   1.852   5.810   0.648
 1354TIP3   OH2 3997   0.800   4.090   1.190
 1354TIP3    H1 3998   0.761   4.055   1.110
 1354TIP3    H2 3999   0.791   4.019   1.254
 1355TIP3   OH2 4000   0.501   5.815   1.705
 1355TIP3    H1 4001   0.594   5.821   1.727
 1355TIP3    H2 4002   0.487   5.722   1.686
 1356TIP3   OH2 4003   1.006   5.788   1.704
 1356TIP3    H1 4004   1.097   5.760   1.715
 1356TIP3    H2 4005   0.973   5.733   1.633
 1357TIP3   OH2 4006   1.612   5.724   1.459
 1357TIP3    H1 4007   1.626   5.654   1.522
 1357TIP3    H2 4008   1.685   5.784   1.472
 1358TIP3   OH2 4009   0.619   5.259   1.861
 1358TIP3    H1 4010   0.639   5.166   1.872
 1358TIP3    H2 4011   0.537   5.260   1.812
 1359TIP3   OH2 4012   1.258   5.354   1.637
 1359TIP3    H1 4013   1.215   5.379   1.555
 1359TIP3    H2 4014   1.292   5.266   1.620
 1360TIP3   OH2 4015   1.725   5.391   1.241
 1360TIP3    H1 4016   1.803   5.420   1.194
 1360TIP3    H2 4017   1.661   5.462   1.227
 1361TIP3   OH2 4018   0.744   5.003   1.870
 1361TIP3    H1 4019   0.811   5.006   1.802
 1361TIP3    H2 4020   0.789   5.030   1.950
 1362TIP3   OH2 4021   1.118   4.895   1.521
 1362TIP3    H1 4022   1.031   4.933   1.530
 1362TIP3    H2 4023   1.149   4.926   1.436
 1363TIP3   OH2 4024   1.607   5.274   1.599
 1363TIP3    H1 4025   1.674   5.236   1.542
 1363TIP3    H2 4026   1.605   5.217   1.676
 1364TIP3   OH2 4027   1.222   4.665   1.626
 1364TIP3    H1 4028   1.226   4.595   1.561
 1364TIP3    H2 4029   1.191   4.741   1.577
 1365TIP3   OH2 4030   1.223   4.470   1.419
 1365TIP3    H1 4031   1.249   4.509   1.335
 1365TIP3    H2 4032   1.131   4.448   1.407
 1366TIP3   OH2 4033   1.238   5.004   1.304
 1366TIP3    H1 4034   1.324   5.043   1.287
 1366TIP3    H2 4035   1.177   5.058   1.253
 1367TIP3   OH2 4036   1.820   4.958   1.667
 1367TIP3    H1 4037   1.866   4.874   1.671
 1367TIP3    H2 4038   1.890   5.022   1.653
 1368TIP3   OH2 4039   1.847   5.219   1.410
 1368TIP3    H1 4040   1.794   5.280   1.358
 1368TIP3    H2 4041   1.936   5.234   1.380
 1369TIP3   OH2 4042   1.094   4.760   1.856
 1369TIP3    H1 4043   1.015   4.707   1.863
 1369TIP3    H2 4044   1.127   4.744   1.768
 1370TIP3   OH2 4045   1.343   4.236   1.504
 1370TIP3    H1 4046   1.305   4.318   1.472
 1370TIP3    H2 4047   1.273   4.172   1.496
 1371TIP3   OH2 4048   1.479   4.712   1.725
 1371TIP3    H1 4049   1.483   4.704   1.821
 1371TIP3    H2 4050   1.389   4.688   1.702
 1372TIP3   OH2 4051   1.718   4.665   1.591
 1372TIP3    H1 4052   1.639   4.668   1.645
 1372TIP3    H2 4053   1.788   4.642   1.651
 1373TIP3   OH2 4054   1.945   4.628   1.748
 1373TIP3    H1 4055   1.961   4.534   1.755
 1373TIP3    H2 4056   1.940   4.658   1.839
 1374TIP3   OH2 4057   0.918   4.544   1.916
 1374TIP3    H1 4058   0.935   4.451   1.900
 1374TIP3    H2 4059   0.951   4.559   2.005
 1375TIP3   OH2 4060   1.439   4.232   1.756
 1375TIP3    H1 4061   1.505   4.163   1.749
 1375TIP3    H2 4062   1.400   4.237   1.668
 1376TIP3   OH2 4063   1.501   4.438   1.928
 1376TIP3    H1 4064   1.486   4.372   1.860
 1376TIP3    H2 4065   1.418   4.486   1.933
 1377TIP3   OH2 4066   2.019   5.880   0.669
 1377TIP3    H1 4067   2.028   5.900   0.762
 1377TIP3    H2 4068   2.053   5.958   0.624
 1378TIP3   OH2 4069   2.021   5.910   0.943
 1378TIP3    H1 4070   1.976   5.826   0.942
 1378TIP3    H2 4071   2.091   5.900   1.007
 1379TIP3   OH2 4072   2.077   5.616   1.506
 1379TIP3    H1 4073   2.006   5.625   1.569
 1379TIP3    H2 4074   2.123   5.699   1.509
 1380TIP3   OH2 4075   1.908   5.123   0.115
 1380TIP3    H1 4076   1.971   5.189   0.083
 1380TIP3    H2 4077   1.953   5.082   0.189
 1381TIP3   OH2 4078   2.036   4.989   0.320
 1381TIP3    H1 4079   1.973   4.949   0.381
 1381TIP3    H2 4080   2.102   5.028   0.376
 1382TIP3   OH2 4081   2.071   5.390   0.751
 1382TIP3    H1 4082   2.125   5.322   0.711
 1382TIP3    H2 4083   2.081   5.465   0.693
 1383TIP3   OH2 4084   1.888   5.669   0.946
 1383TIP3    H1 4085   1.822   5.714   1.000
 1383TIP3    H2 4086   1.838   5.625   0.878
 1384TIP3   OH2 4087   7.581   0.892   6.892
 1384TIP3    H1 4088   7.509   0.830   6.888
 1384TIP3    H2 4089   7.555   0.955   6.959
 1385TIP3   OH2 4090   7.427   0.660   6.870
 1385TIP3    H1 4091   7.387   0.672   6.784
 1385TIP3    H2 4092   7.428   0.565   6.882
 1386TIP3   OH2 4093   1.848   4.849   0.469
 1386TIP3    H1 4094   1.852   4.756   0.451
 1386TIP3    H2 4095   1.825   4.854   0.562
 1387TIP3   OH2 4096   0.450   4.881   1.226
 1387TIP3    H1 4097   0.455   4.865   1.132
 1387TIP3    H2 4098   0.541   4.890   1.254
 1388TIP3   OH2 4099   2.104   5.265   1.315
 1388TIP3    H1 4100   2.171   5.199   1.299
 1388TIP3    H2 4101   2.114   5.327   1.243
 1389TIP3   OH2 4102   2.281   5.054   1.305
 1389TIP3    H1 4103   2.208   5.013   1.350
 1389TIP3    H2 4104   2.356   4.999   1.325
 1390TIP3   OH2 4105   1.796   4.411   0.023
 1390TIP3    H1 4106   1.872   4.363   0.055
 1390TIP3    H2 4107   1.722   4.351   0.033
 1391TIP3   OH2 4108   1.844   4.590   0.350
 1391TIP3    H1 4109   1.884   4.504   0.369
 1391TIP3    H2 4110   1.889   4.620   0.272
 1392TIP3   OH2 4111   1.975   4.739   0.868
 1392TIP3    H1 4112   2.054   4.757   0.818
 1392TIP3    H2 4113   1.990   4.780   0.953
 1393TIP3   OH2 4114   2.047   4.889   1.093
 1393TIP3    H1 4115   1.973   4.919   1.146
 1393TIP3    H2 4116   2.078   4.969   1.050
 1394TIP3   OH2 4117   0.649   4.578   1.871
 1394TIP3    H1 4118   0.745   4.577   1.875
 1394TIP3    H2 4119   0.622   4.500   1.919
 1395TIP3   OH2 4120   2.504   4.484   1.626
 1395TIP3    H1 4121   2.570   4.429   1.585
 1395TIP3    H2 4122   2.466   4.534   1.553
 1396TIP3   OH2 4123   1.951   4.346   0.410
 1396TIP3    H1 4124   2.003   4.331   0.489
 1396TIP3    H2 4125   1.886   4.276   0.411
 1397TIP3   OH2 4126   0.645   4.310   1.248
 1397TIP3    H1 4127   0.697   4.231   1.236
 1397TIP3    H2 4128   0.705   4.382   1.231
 1398TIP3   OH2 4129   0.415   4.578   1.273
 1398TIP3    H1 4130   0.474   4.558   1.200
 1398TIP3    H2 4131   0.422   4.673   1.283
 1399TIP3   OH2 4132   2.354   4.600   1.428
 1399TIP3    H1 4133   2.269   4.641   1.444
 1399TIP3    H2 4134   2.334   4.522   1.376
 1400TIP3   OH2 4135   2.039   4.278   0.081
 1400TIP3    H1 4136   2.027   4.229  -0.000
 1400TIP3    H2 4137   2.096   4.352   0.057
 1401TIP3   OH2 4138   0.639   4.193   1.632
 1401TIP3    H1 4139   0.583   4.163   1.703
 1401TIP3    H2 4140   0.579   4.220   1.563
 1402TIP3   OH2 4141   0.707   5.561   1.697
 1402TIP3    H1 4142   0.613   5.544   1.697
 1402TIP3    H2 4143   0.722   5.616   1.773
 1403TIP3   OH2 4144   0.844   5.623   1.243
 1403TIP3    H1 4145   0.770   5.684   1.240
 1403TIP3    H2 4146   0.907   5.659   1.180
 1404TIP3   OH2 4147   1.280   5.863   1.357
 1404TIP3    H1 4148   1.312   5.855   1.447
 1404TIP3    H2 4149   1.345   5.917   1.313
 1405TIP3   OH2 4150   1.463   6.029   1.240
 1405TIP3    H1 4151   1.515   5.980   1.178
 1405TIP3    H2 4152   1.526   6.082   1.289
 1406TIP3   OH2 4153   2.267   4.356   1.321
 1406TIP3    H1 4154   2.182   4.351   1.278
 1406TIP3    H2 4155   2.302   4.267   1.316
 1407TIP3   OH2 4156   1.192   5.889   0.928
 1407TIP3    H1 4157   1.141   5.879   0.848
 1407TIP3    H2 4158   1.193   5.984   0.944
 1408TIP3   OH2 4159   1.450   5.829   1.003
 1408TIP3    H1 4160   1.358   5.842   0.979
 1408TIP3    H2 4161   1.499   5.872   0.932
 1409TIP3   OH2 4162   1.657   5.963   0.862
 1409TIP3    H1 4163   1.648   6.051   0.825
 1409TIP3    H2 4164   1.673   5.907   0.786
 1410TIP3   OH2 4165   1.489   4.280   0.984
 1410TIP3    H1 4166   1.436   4.208   1.018
 1410TIP3    H2 4167   1.548   4.238   0.921
 1411TIP3   OH2 4168   1.981   4.198   0.856
 1411TIP3    H1 4169   2.020   4.249   0.785
 1411TIP3    H2 4170   1.888   4.222   0.855
 1412TIP3   OH2 4171   2.109   4.290   0.634
 1412TIP3    H1 4172   2.180   4.232   0.607
 1412TIP3    H2 4173   2.142   4.378   0.616
 1413TIP3   OH2 4174   0.705   3.984   0.939
 1413TIP3    H1 4175   0.632   3.956   0.883
 1413TIP3    H2 4176   0.759   3.906   0.949
 1414TIP3   OH2 4177   1.201   4.047   0.859
 1414TIP3    H1 4178   1.241   4.099   0.788
 1414TIP3    H2 4179   1.250   4.073   0.937
 1415TIP3   OH2 4180   1.701   4.180   0.827
 1415TIP3    H1 4181   1.715   4.181   0.733
 1415TIP3    H2 4182   1.670   4.091   0.846
 1416TIP3   OH2 4183   1.751   4.178   0.525
 1416TIP3    H1 4184   1.667   4.218   0.502
 1416TIP3    H2 4185   1.732   4.084   0.530
 1417TIP3   OH2 4186   1.183   4.216   0.457
 1417TIP3    H1 4187   1.249   4.199   0.524
 1417TIP3    H2 4188   1.099   4.210   0.503
 1418TIP3   OH2 4189   0.963   4.253   1.916
 1418TIP3    H1 4190   0.907   4.183   1.949
 1418TIP3    H2 4191   0.969   4.235   1.822
 1419TIP3   OH2 4192   1.262   4.217   1.961
 1419TIP3    H1 4193   1.316   4.233   1.883
 1419TIP3    H2 4194   1.304   4.143   2.004
 1420TIP3   OH2 4195   2.012   4.358   1.752
 1420TIP3    H1 4196   2.030   4.328   1.841
 1420TIP3    H2 4197   2.097   4.353   1.708
 1421TIP3   OH2 4198   1.936   5.893   1.264
 1421TIP3    H1 4199   1.863   5.861   1.211
 1421TIP3    H2 4200   1.924   5.988   1.266
 1422TIP3   OH2 4201   3.222   5.298   0.068
 1422TIP3    H1 4202   3.190   5.377   0.025
 1422TIP3    H2 4203   3.149   5.236   0.061
 1423TIP3   OH2 4204   3.174   5.263   0.435
 1423TIP3    H1 4205   3.241   5.249   0.502
 1423TIP3    H2 4206   3.142   5.176   0.414
 1424TIP3   OH2 4207   2.501   5.130   0.767
 1424TIP3    H1 4208   2.538   5.077   0.838
 1424TIP3    H2 4209   2.576   5.154   0.713
 1425TIP3   OH2 4210   3.494   5.590   0.031
 1425TIP3    H1 4211   3.455   5.504   0.051
 1425TIP3    H2 4212   3.495   5.635   0.116
 1426TIP3   OH2 4213   2.496   5.554   0.444
 1426TIP3    H1 4214   2.478   5.460   0.456
 1426TIP3    H2 4215   2.591   5.560   0.446
 1427TIP3   OH2 4216   2.196   4.768   0.249
 1427TIP3    H1 4217   2.156   4.852   0.272
 1427TIP3    H2 4218   2.123   4.713   0.223
 1428TIP3   OH2 4219   2.263   5.076   0.457
 1428TIP3    H1 4220   2.312   4.999   0.483
 1428TIP3    H2 4221   2.330   5.141   0.436
 1429TIP3   OH2 4222   3.073   5.948   0.113
 1429TIP3    H1 4223   3.167   5.964   0.103
 1429TIP3    H2 4224   3.053   5.977   0.202
 1430TIP3   OH2 4225   3.006   5.487   0.426
 1430TIP3    H1 4226   3.048   5.403   0.407
 1430TIP3    H2 4227   3.078   5.545   0.450
 1431TIP3   OH2 4228   4.023   4.808   0.459
 1431TIP3    H1 4229   4.048   4.892   0.497
 1431TIP3    H2 4230   4.061   4.808   0.371
 1432TIP3   OH2 4231   3.417   4.976   0.468
 1432TIP3    H1 4232   3.458   4.893   0.492
 1432TIP3    H2 4233   3.384   4.962   0.380
 1433TIP3   OH2 4234   2.773   4.639   0.423
 1433TIP3    H1 4235   2.755   4.713   0.365
 1433TIP3    H2 4236   2.722   4.567   0.387
 1434TIP3   OH2 4237   3.463   4.737   0.057
 1434TIP3    H1 4238   3.527   4.724   0.127
 1434TIP3    H2 4239   3.515   4.772  -0.016
 1435TIP3   OH2 4240   2.398   4.852   0.548
 1435TIP3    H1 4241   2.480   4.834   0.594
 1435TIP3    H2 4242   2.404   4.801   0.468
 1436TIP3   OH2 4243   2.821   5.052   0.372
 1436TIP3    H1 4244   2.916   5.037   0.376
 1436TIP3    H2 4245   2.786   4.971   0.335
 1437TIP3   OH2 4246   4.101   5.023   0.627
 1437TIP3    H1 4247   4.009   5.051   0.625
 1437TIP3    H2 4248   4.136   5.061   0.707
 1438TIP3   OH2 4249   2.753   4.642   0.872
 1438TIP3    H1 4250   2.702   4.677   0.798
 1438TIP3    H2 4251   2.697   4.657   0.948
 1439TIP3   OH2 4252   0.254   1.476   6.858
 1439TIP3    H1 4253   0.180   1.440   6.809
 1439TIP3    H2 4254   0.228   1.566   6.877
 1440TIP3   OH2 4255   2.849   5.413   0.642
 1440TIP3    H1 4256   2.795   5.486   0.673
 1440TIP3    H2 4257   2.899   5.450   0.569
 1441TIP3   OH2 4258   3.627   4.751   0.275
 1441TIP3    H1 4259   3.589   4.732   0.360
 1441TIP3    H2 4260   3.685   4.826   0.291
 1442TIP3   OH2 4261   2.642   4.748   0.642
 1442TIP3    H1 4262   2.697   4.823   0.664
 1442TIP3    H2 4263   2.688   4.704   0.570
 1443TIP3   OH2 4264   2.689   5.617   0.740
 1443TIP3    H1 4265   2.678   5.707   0.710
 1443TIP3    H2 4266   2.610   5.599   0.792
 1444TIP3   OH2 4267   7.745   1.300   6.939
 1444TIP3    H1 4268   7.733   1.307   6.844
 1444TIP3    H2 4269   7.753   1.391   6.968
 1445TIP3   OH2 4270   3.527   5.777   0.230
 1445TIP3    H1 4271   3.439   5.783   0.266
 1445TIP3    H2 4272   3.535   5.854   0.173
 1446TIP3   OH2 4273   3.808   4.716   0.606
 1446TIP3    H1 4274   3.725   4.731   0.561
 1446TIP3    H2 4275   3.875   4.743   0.543
 1447TIP3   OH2 4276   3.093   4.353   0.589
 1447TIP3    H1 4277   3.091   4.261   0.618
 1447TIP3    H2 4278   3.018   4.393   0.633
 1448TIP3   OH2 4279   3.681   5.687   0.633
 1448TIP3    H1 4280   3.675   5.612   0.573
 1448TIP3    H2 4281   3.739   5.749   0.588
 1449TIP3   OH2 4282   0.210   1.135   6.844
 1449TIP3    H1 4283   0.135   1.179   6.803
 1449TIP3    H2 4284   0.283   1.154   6.786
 1450TIP3   OH2 4285   3.875   5.313   0.428
 1450TIP3    H1 4286   3.789   5.353   0.415
 1450TIP3    H2 4287   3.922   5.331   0.346
 1451TIP3   OH2 4288   0.496   1.126   6.809
 1451TIP3    H1 4289   0.477   1.191   6.877
 1451TIP3    H2 4290   0.591   1.114   6.814
 1452TIP3   OH2 4291   3.607   5.224   0.757
 1452TIP3    H1 4292   3.598   5.300   0.814
 1452TIP3    H2 4293   3.528   5.226   0.703
 1453TIP3   OH2 4294   2.624   5.184   0.223
 1453TIP3    H1 4295   2.586   5.122   0.161
 1453TIP3    H2 4296   2.697   5.137   0.262
 1454TIP3   OH2 4297   2.763   5.608   0.367
 1454TIP3    H1 4298   2.734   5.585   0.279
 1454TIP3    H2 4299   2.848   5.566   0.375
 1455TIP3   OH2 4300   2.714   5.182   0.590
 1455TIP3    H1 4301   2.754   5.145   0.512
 1455TIP3    H2 4302   2.764   5.261   0.608
 1456TIP3   OH2 4303   3.297   5.808   0.365
 1456TIP3    H1 4304   3.261   5.887   0.407
 1456TIP3    H2 4305   3.269   5.737   0.422
 1457TIP3   OH2 4306   2.884   5.708   0.917
 1457TIP3    H1 4307   2.822   5.765   0.962
 1457TIP3    H2 4308   2.830   5.657   0.856
 1458TIP3   OH2 4309   2.644   5.276   1.054
 1458TIP3    H1 4310   2.643   5.370   1.071
 1458TIP3    H2 4311   2.552   5.251   1.045
 1459TIP3   OH2 4312   0.146   1.725   6.907
 1459TIP3    H1 4313   0.183   1.799   6.955
 1459TIP3    H2 4314   0.052   1.741   6.908
 1460TIP3   OH2 4315   2.679   5.875   0.995
 1460TIP3    H1 4316   2.655   5.886   0.903
 1460TIP3    H2 4317   2.596   5.862   1.040
 1461TIP3   OH2 4318   2.495   5.019   0.038
 1461TIP3    H1 4319   2.415   5.057   0.001
 1461TIP3    H2 4320   2.474   4.927   0.053
 1462TIP3   OH2 4321   2.275   5.434   0.944
 1462TIP3    H1 4322   2.205   5.413   0.882
 1462TIP3    H2 4323   2.310   5.349   0.971
 1463TIP3   OH2 4324   2.135   5.629   0.614
 1463TIP3    H1 4325   2.227   5.647   0.632
 1463TIP3    H2 4326   2.088   5.707   0.643
 1464TIP3   OH2 4327   3.936   6.018   0.725
 1464TIP3    H1 4328   3.932   5.927   0.755
 1464TIP3    H2 4329   3.845   6.048   0.724
 1465TIP3   OH2 4330   3.056   5.869   0.777
 1465TIP3    H1 4331   3.049   5.959   0.808
 1465TIP3    H2 4332   2.993   5.821   0.831
 1466TIP3   OH2 4333   2.254   5.783   0.151
 1466TIP3    H1 4334   2.336   5.787   0.200
 1466TIP3    H2 4335   2.188   5.762   0.217
 1467TIP3   OH2 4336   3.834   5.169   0.936
 1467TIP3    H1 4337   3.765   5.175   0.869
 1467TIP3    H2 4338   3.857   5.076   0.938
 1468TIP3   OH2 4339   2.471   5.624   0.911
 1468TIP3    H1 4340   2.522   5.613   0.991
 1468TIP3    H2 4341   2.401   5.560   0.918
 1469TIP3   OH2 4342   2.859   4.430   0.727
 1469TIP3    H1 4343   2.776   4.395   0.694
 1469TIP3    H2 4344   2.835   4.509   0.774
 1470TIP3   OH2 4345   3.387   4.565   0.931
 1470TIP3    H1 4346   3.457   4.534   0.989
 1470TIP3    H2 4347   3.306   4.540   0.977
 1471TIP3   OH2 4348   3.618   4.962   0.845
 1471TIP3    H1 4349   3.580   4.961   0.933
 1471TIP3    H2 4350   3.599   5.050   0.812
 1472TIP3   OH2 4351   0.157   0.471   6.641
 1472TIP3    H1 4352   0.145   0.462   6.736
 1472TIP3    H2 4353   0.069   0.457   6.605
 1473TIP3   OH2 4354   2.796   4.958   0.733
 1473TIP3    H1 4355   2.753   4.965   0.818
 1473TIP3    H2 4356   2.774   5.039   0.687
 1474TIP3   OH2 4357   2.685   4.841   0.259
 1474TIP3    H1 4358   2.597   4.812   0.284
 1474TIP3    H2 4359   2.697   4.808   0.170
 1475TIP3   OH2 4360   0.335   0.913   6.927
 1475TIP3    H1 4361   0.274   0.983   6.907
 1475TIP3    H2 4362   0.413   0.933   6.875
 1476TIP3   OH2 4363   3.344   5.180   1.056
 1476TIP3    H1 4364   3.317   5.111   1.117
 1476TIP3    H2 4365   3.437   5.195   1.076
 1477TIP3   OH2 4366   3.328   4.924   0.215
 1477TIP3    H1 4367   3.260   4.944   0.151
 1477TIP3    H2 4368   3.377   4.851   0.176
 1478TIP3   OH2 4369   2.630   4.967   0.955
 1478TIP3    H1 4370   2.679   5.020   1.017
 1478TIP3    H2 4371   2.613   4.885   1.002
 1479TIP3   OH2 4372   8.379   0.411   6.614
 1479TIP3    H1 4373   8.350   0.418   6.705
 1479TIP3    H2 4374   8.330   0.337   6.579
 1480TIP3   OH2 4375   2.223   4.515   0.539
 1480TIP3    H1 4376   2.301   4.541   0.587
 1480TIP3    H2 4377   2.256   4.483   0.455
 1481TIP3   OH2 4378   2.188   4.506   0.039
 1481TIP3    H1 4379   2.239   4.544  -0.032
 1481TIP3    H2 4380   2.120   4.570   0.057
 1482TIP3   OH2 4381   3.357   5.181   0.634
 1482TIP3    H1 4382   3.385   5.115   0.570
 1482TIP3    H2 4383   3.316   5.131   0.704
 1483TIP3   OH2 4384   3.038   4.642   0.307
 1483TIP3    H1 4385   2.961   4.638   0.363
 1483TIP3    H2 4386   3.112   4.625   0.365
 1484TIP3   OH2 4387   2.453   4.710   0.320
 1484TIP3    H1 4388   2.364   4.715   0.285
 1484TIP3    H2 4389   2.481   4.620   0.302
 1485TIP3   OH2 4390   8.368   0.714   6.952
 1485TIP3    H1 4391   8.462   0.723   6.943
 1485TIP3    H2 4392   8.332   0.742   6.868
 1486TIP3   OH2 4393   3.503   4.713   0.520
 1486TIP3    H1 4394   3.475   4.732   0.609
 1486TIP3    H2 4395   3.442   4.645   0.490
 1487TIP3   OH2 4396   8.214   0.750   6.723
 1487TIP3    H1 4397   8.127   0.714   6.742
 1487TIP3    H2 4398   8.242   0.704   6.644
 1488TIP3   OH2 4399   3.638   6.371   0.827
 1488TIP3    H1 4400   3.609   6.382   0.736
 1488TIP3    H2 4401   3.722   6.416   0.831
 1489TIP3   OH2 4402   2.625   5.540   1.145
 1489TIP3    H1 4403   2.707   5.557   1.192
 1489TIP3    H2 4404   2.557   5.546   1.212
 1490TIP3   OH2 4405   3.092   4.992   0.414
 1490TIP3    H1 4406   3.158   4.944   0.365
 1490TIP3    H2 4407   3.089   4.949   0.500
 1491TIP3   OH2 4408   2.593   4.468   0.291
 1491TIP3    H1 4409   2.565   4.393   0.344
 1491TIP3    H2 4410   2.622   4.429   0.208
 1492TIP3   OH2 4411   3.061   4.897   0.678
 1492TIP3    H1 4412   2.974   4.929   0.701
 1492TIP3    H2 4413   3.121   4.949   0.732
 1493TIP3   OH2 4414   8.493   1.264   6.741
 1493TIP3    H1 4415   8.428   1.197   6.719
 1493TIP3    H2 4416   8.460   1.305   6.821
 1494TIP3   OH2 4417   3.664   5.490   0.432
 1494TIP3    H1 4418   3.695   5.542   0.358
 1494TIP3    H2 4419   3.584   5.448   0.401
 1495TIP3   OH2 4420   3.172   5.566   0.797
 1495TIP3    H1 4421   3.239   5.554   0.864
 1495TIP3    H2 4422   3.128   5.648   0.822
 1496TIP3   OH2 4423   2.484   5.265   0.444
 1496TIP3    H1 4424   2.524   5.248   0.359
 1496TIP3    H2 4425   2.549   5.237   0.508
 1497TIP3   OH2 4426   2.369   5.208   1.079
 1497TIP3    H1 4427   2.379   5.182   1.170
 1497TIP3    H2 4428   2.297   5.154   1.046
 1498TIP3   OH2 4429   3.119   5.340   1.089
 1498TIP3    H1 4430   3.057   5.296   1.031
 1498TIP3    H2 4431   3.203   5.299   1.069
 1499TIP3   OH2 4432   3.324   5.840   0.748
 1499TIP3    H1 4433   3.229   5.846   0.744
 1499TIP3    H2 4434   3.347   5.887   0.829
 1500TIP3   OH2 4435   3.941   5.750   0.758
 1500TIP3    H1 4436   3.854   5.740   0.796
 1500TIP3    H2 4437   3.941   5.690   0.683
 1501TIP3   OH2 4438   3.448   5.360   0.318
 1501TIP3    H1 4439   3.354   5.347   0.308
 1501TIP3    H2 4440   3.487   5.282   0.278
 1502TIP3   OH2 4441   2.608   5.583   0.139
 1502TIP3    H1 4442   2.588   5.657   0.083
 1502TIP3    H2 4443   2.525   5.563   0.183
 1503TIP3   OH2 4444   7.830   0.876   6.767
 1503TIP3    H1 4445   7.873   0.958   6.789
 1503TIP3    H2 4446   7.742   0.884   6.805
 1504TIP3   OH2 4447   2.731   5.361   0.037
 1504TIP3    H1 4448   2.696   5.446   0.064
 1504TIP3    H2 4449   2.699   5.301   0.104
 1505TIP3   OH2 4450   2.892   5.937   0.563
 1505TIP3    H1 4451   2.932   6.009   0.513
 1505TIP3    H2 4452   2.963   5.906   0.619
 1506TIP3   OH2 4453   8.186   1.789   6.939
 1506TIP3    H1 4454   8.094   1.805   6.919
 1506TIP3    H2 4455   8.229   1.873   6.925
 1507TIP3   OH2 4456   3.243   5.590   0.528
 1507TIP3    H1 4457   3.222   5.581   0.621
 1507TIP3    H2 4458   3.310   5.524   0.512
 1508TIP3   OH2 4459   3.436   6.051   0.620
 1508TIP3    H1 4460   3.414   5.974   0.673
 1508TIP3    H2 4461   3.358   6.066   0.567
 1509TIP3   OH2 4462   2.583   4.715   1.079
 1509TIP3    H1 4463   2.488   4.723   1.084
 1509TIP3    H2 4464   2.607   4.661   1.154
 1510TIP3   OH2 4465   2.335   5.822   0.735
 1510TIP3    H1 4466   2.386   5.763   0.791
 1510TIP3    H2 4467   2.347   5.908   0.774
 1511TIP3   OH2 4468   7.941   1.121   6.850
 1511TIP3    H1 4469   7.878   1.176   6.897
 1511TIP3    H2 4470   7.976   1.179   6.782
 1512TIP3   OH2 4471   3.422   4.784   0.774
 1512TIP3    H1 4472   3.503   4.825   0.803
 1512TIP3    H2 4473   3.411   4.708   0.831
 1513TIP3   OH2 4474   0.469   0.525   6.901
 1513TIP3    H1 4475   0.434   0.558   6.818
 1513TIP3    H2 4476   0.522   0.597   6.934
 1514TIP3   OH2 4477   2.980   4.726   0.048
 1514TIP3    H1 4478   3.046   4.789   0.020
 1514TIP3    H2 4479   3.001   4.708   0.140
 1515TIP3   OH2 4480   3.264   5.014   0.831
 1515TIP3    H1 4481   3.293   5.053   0.913
 1515TIP3    H2 4482   3.314   4.933   0.824
 1516TIP3   OH2 4483   3.139   4.420   0.149
 1516TIP3    H1 4484   3.124   4.497   0.205
 1516TIP3    H2 4485   3.203   4.449   0.084
 1517TIP3   OH2 4486   8.319   0.440   6.892
 1517TIP3    H1 4487   8.309   0.531   6.919
 1517TIP3    H2 4488   8.412   0.422   6.902
 1518TIP3   OH2 4489   3.881   4.894   0.832
 1518TIP3    H1 4490   3.787   4.908   0.841
 1518TIP3    H2 4491   3.891   4.843   0.752
 1519TIP3   OH2 4492   3.551   5.116   0.220
 1519TIP3    H1 4493   3.477   5.055   0.221
 1519TIP3    H2 4494   3.618   5.072   0.273
 1520TIP3   OH2 4495   7.952   0.632   6.745
 1520TIP3    H1 4496   7.906   0.716   6.744
 1520TIP3    H2 4497   7.915   0.583   6.672
 1521TIP3   OH2 4498   3.580   5.996   0.075
 1521TIP3    H1 4499   3.511   6.052   0.040
 1521TIP3    H2 4500   3.657   6.054   0.081
 1522TIP3   OH2 4501   2.598   4.341   0.689
 1522TIP3    H1 4502   2.575   4.310   0.602
 1522TIP3    H2 4503   2.592   4.264   0.745
 1523TIP3   OH2 4504   2.091   5.580   0.040
 1523TIP3    H1 4505   2.016   5.636   0.059
 1523TIP3    H2 4506   2.168   5.635   0.059
 1524TIP3   OH2 4507   2.327   6.129   1.145
 1524TIP3    H1 4508   2.409   6.134   1.194
 1524TIP3    H2 4509   2.313   6.036   1.130
 1525TIP3   OH2 4510   2.788   6.035   1.191
 1525TIP3    H1 4511   2.879   6.008   1.198
 1525TIP3    H2 4512   2.753   5.984   1.118
 1526TIP3   OH2 4513   3.411   5.986   0.960
 1526TIP3    H1 4514   3.422   5.914   1.022
 1526TIP3    H2 4515   3.487   6.043   0.976
 1527TIP3   OH2 4516   2.423   5.531   1.337
 1527TIP3    H1 4517   2.443   5.437   1.347
 1527TIP3    H2 4518   2.337   5.533   1.296
 1528TIP3   OH2 4519   3.046   5.612   1.117
 1528TIP3    H1 4520   2.996   5.629   1.037
 1528TIP3    H2 4521   3.085   5.526   1.103
 1529TIP3   OH2 4522   3.469   5.610   0.773
 1529TIP3    H1 4523   3.545   5.641   0.724
 1529TIP3    H2 4524   3.403   5.679   0.762
 1530TIP3   OH2 4525   2.538   5.275   1.340
 1530TIP3    H1 4526   2.612   5.260   1.282
 1530TIP3    H2 4527   2.576   5.293   1.425
 1531TIP3   OH2 4528   8.302   1.054   6.738
 1531TIP3    H1 4529   8.267   1.054   6.827
 1531TIP3    H2 4530   8.287   0.965   6.706
 1532TIP3   OH2 4531   2.872   5.133   0.991
 1532TIP3    H1 4532   2.801   5.194   1.011
 1532TIP3    H2 4533   2.919   5.174   0.918
 1533TIP3   OH2 4534   3.397   5.522   1.099
 1533TIP3    H1 4535   3.465   5.486   1.042
 1533TIP3    H2 4536   3.399   5.466   1.177
 1534TIP3   OH2 4537   3.002   4.924   1.110
 1534TIP3    H1 4538   3.009   4.851   1.048
 1534TIP3    H2 4539   2.962   4.995   1.060
 1535TIP3   OH2 4540   3.011   4.728   0.907
 1535TIP3    H1 4541   3.041   4.762   0.823
 1535TIP3    H2 4542   2.920   4.701   0.891
 1536TIP3   OH2 4543   3.018   5.266   0.804
 1536TIP3    H1 4544   3.107   5.283   0.773
 1536TIP3    H2 4545   2.963   5.321   0.749
 1537TIP3   OH2 4546   3.613   5.203   1.153
 1537TIP3    H1 4547   3.628   5.109   1.160
 1537TIP3    H2 4548   3.690   5.238   1.108
 1538TIP3   OH2 4549   3.620   5.451   0.929
 1538TIP3    H1 4550   3.565   5.508   0.876
 1538TIP3    H2 4551   3.707   5.460   0.892
 1539TIP3   OH2 4552   2.889   5.010   1.353
 1539TIP3    H1 4553   2.820   4.946   1.372
 1539TIP3    H2 4554   2.918   4.987   1.264
 1540TIP3   OH2 4555   3.128   4.497   1.012
 1540TIP3    H1 4556   3.087   4.576   0.976
 1540TIP3    H2 4557   3.066   4.427   0.994
 1541TIP3   OH2 4558   3.260   4.967   1.209
 1541TIP3    H1 4559   3.250   4.954   1.303
 1541TIP3    H2 4560   3.173   4.946   1.173
 1542TIP3   OH2 4561   3.513   4.932   1.090
 1542TIP3    H1 4562   3.432   4.924   1.141
 1542TIP3    H2 4563   3.580   4.893   1.145
 1543TIP3   OH2 4564   3.742   4.874   1.235
 1543TIP3    H1 4565   3.757   4.779   1.238
 1543TIP3    H2 4566   3.739   4.901   1.327
 1544TIP3   OH2 4567   2.721   4.791   1.416
 1544TIP3    H1 4568   2.729   4.704   1.377
 1544TIP3    H2 4569   2.761   4.783   1.503
 1545TIP3   OH2 4570   3.198   4.473   1.275
 1545TIP3    H1 4571   3.266   4.406   1.269
 1545TIP3    H2 4572   3.168   4.485   1.185
 1546TIP3   OH2 4573   3.296   4.686   1.419
 1546TIP3    H1 4574   3.267   4.614   1.363
 1546TIP3    H2 4575   3.223   4.748   1.418
 1547TIP3   OH2 4576   7.733   1.298   6.665
 1547TIP3    H1 4577   7.792   1.323   6.594
 1547TIP3    H2 4578   7.688   1.220   6.633
 1548TIP3   OH2 4579   1.904   5.767   0.145
 1548TIP3    H1 4580   1.812   5.744   0.152
 1548TIP3    H2 4581   1.940   5.748   0.231
 1549TIP3   OH2 4582   2.076   5.747   0.364
 1549TIP3    H1 4583   2.082   5.675   0.427
 1549TIP3    H2 4584   2.117   5.822   0.408
 1550TIP3   OH2 4585   3.732   6.205   0.422
 1550TIP3    H1 4586   3.682   6.123   0.420
 1550TIP3    H2 4587   3.823   6.178   0.436
 1551TIP3   OH2 4588   3.857   5.873   1.010
 1551TIP3    H1 4589   3.790   5.878   1.079
 1551TIP3    H2 4590   3.905   5.955   1.016
 1552TIP3   OH2 4591   3.785   5.647   0.241
 1552TIP3    H1 4592   3.837   5.617   0.167
 1552TIP3    H2 4593   3.707   5.687   0.201
 1553TIP3   OH2 4594   3.602   5.966   0.420
 1553TIP3    H1 4595   3.537   5.983   0.488
 1553TIP3    H2 4596   3.561   5.902   0.362
 1554TIP3   OH2 4597   0.755   1.085   6.881
 1554TIP3    H1 4598   0.786   0.995   6.870
 1554TIP3    H2 4599   0.763   1.101   6.975
 1555TIP3   OH2 4600   2.239   5.172   0.713
 1555TIP3    H1 4601   2.231   5.139   0.623
 1555TIP3    H2 4602   2.333   5.167   0.732
 1556TIP3   OH2 4603   3.872   5.474   0.825
 1556TIP3    H1 4604   3.938   5.406   0.831
 1556TIP3    H2 4605   3.877   5.504   0.734
 1557TIP3   OH2 4606   4.063   5.278   0.838
 1557TIP3    H1 4607   3.988   5.229   0.873
 1557TIP3    H2 4608   4.139   5.223   0.857
 1558TIP3   OH2 4609   0.805   0.821   6.802
 1558TIP3    H1 4610   0.838   0.731   6.811
 1558TIP3    H2 4611   0.835   0.849   6.715
 1559TIP3   OH2 4612   3.753   4.983   0.365
 1559TIP3    H1 4613   3.838   4.999   0.323
 1559TIP3    H2 4614   3.766   5.010   0.456
 1560TIP3   OH2 4615   3.832   5.117   0.606
 1560TIP3    H1 4616   3.754   5.152   0.649
 1560TIP3    H2 4617   3.857   5.184   0.543
 1561TIP3   OH2 4618   2.457   4.846   1.353
 1561TIP3    H1 4619   2.551   4.844   1.370
 1561TIP3    H2 4620   2.423   4.765   1.391
 1562TIP3   OH2 4621   4.301   4.742   1.113
 1562TIP3    H1 4622   4.367   4.686   1.072
 1562TIP3    H2 4623   4.260   4.789   1.041
 1563TIP3   OH2 4624   0.872   0.561   6.831
 1563TIP3    H1 4625   0.933   0.544   6.903
 1563TIP3    H2 4626   0.812   0.486   6.832
 1564TIP3   OH2 4627   2.435   4.564   0.711
 1564TIP3    H1 4628   2.488   4.485   0.714
 1564TIP3    H2 4629   2.498   4.634   0.691
 1565TIP3   OH2 4630   2.215   4.828   0.764
 1565TIP3    H1 4631   2.263   4.816   0.683
 1565TIP3    H2 4632   2.251   4.909   0.801
 1566TIP3   OH2 4633   4.141   4.841   0.912
 1566TIP3    H1 4634   4.052   4.877   0.913
 1566TIP3    H2 4635   4.134   4.759   0.864
 1567TIP3   OH2 4636   2.233   4.380   0.288
 1567TIP3    H1 4637   2.143   4.356   0.309
 1567TIP3    H2 4638   2.226   4.426   0.204
 1568TIP3   OH2 4639   2.430   4.396   1.092
 1568TIP3    H1 4640   2.378   4.390   1.172
 1568TIP3    H2 4641   2.374   4.443   1.030
 1569TIP3   OH2 4642   2.455   5.850   1.158
 1569TIP3    H1 4643   2.362   5.829   1.153
 1569TIP3    H2 4644   2.476   5.840   1.251
 1570TIP3   OH2 4645   2.667   5.892   0.713
 1570TIP3    H1 4646   2.613   5.964   0.680
 1570TIP3    H2 4647   2.751   5.903   0.668
 1571TIP3   OH2 4648   3.067   6.134   0.852
 1571TIP3    H1 4649   3.107   6.126   0.939
 1571TIP3    H2 4650   3.129   6.187   0.802
 1572TIP3   OH2 4651   3.248   6.307   0.726
 1572TIP3    H1 4652   3.319   6.314   0.661
 1572TIP3    H2 4653   3.283   6.350   0.804
 1573TIP3   OH2 4654   4.073   4.587   0.820
 1573TIP3    H1 4655   3.984   4.564   0.792
 1573TIP3    H2 4656   4.122   4.505   0.813
 1574TIP3   OH2 4657   2.331   6.126   0.766
 1574TIP3    H1 4658   2.239   6.138   0.744
 1574TIP3    H2 4659   2.351   6.197   0.827
 1575TIP3   OH2 4660   2.554   6.117   0.606
 1575TIP3    H1 4661   2.471   6.124   0.654
 1575TIP3    H2 4662   2.533   6.147   0.517
 1576TIP3   OH2 4663   2.977   6.139   0.391
 1576TIP3    H1 4664   2.899   6.150   0.337
 1576TIP3    H2 4665   2.987   6.222   0.436
 1577TIP3   OH2 4666   3.232   6.065   0.444
 1577TIP3    H1 4667   3.142   6.093   0.428
 1577TIP3    H2 4668   3.284   6.115   0.381
 1578TIP3   OH2 4669   3.393   6.214   0.285
 1578TIP3    H1 4670   3.371   6.303   0.312
 1578TIP3    H2 4671   3.476   6.224   0.236
 1579TIP3   OH2 4672   2.256   5.926   0.486
 1579TIP3    H1 4673   2.274   5.899   0.576
 1579TIP3    H2 4674   2.328   5.889   0.434
 1580TIP3   OH2 4675   2.451   5.803   0.342
 1580TIP3    H1 4676   2.463   5.718   0.383
 1580TIP3    H2 4677   2.539   5.841   0.339
 1581TIP3   OH2 4678   2.717   5.882   0.357
 1581TIP3    H1 4679   2.737   5.789   0.347
 1581TIP3    H2 4680   2.768   5.910   0.433
 1582TIP3   OH2 4681   3.256   4.529   0.437
 1582TIP3    H1 4682   3.212   4.462   0.490
 1582TIP3    H2 4683   3.328   4.483   0.395
 1583TIP3   OH2 4684   3.772   4.455   0.341
 1583TIP3    H1 4685   3.806   4.506   0.267
 1583TIP3    H2 4686   3.678   4.473   0.341
 1584TIP3   OH2 4687   3.885   4.530   0.098
 1584TIP3    H1 4688   3.955   4.471   0.069
 1584TIP3    H2 4689   3.920   4.618   0.084
 1585TIP3   OH2 4690   2.527   4.247   0.439
 1585TIP3    H1 4691   2.439   4.215   0.458
 1585TIP3    H2 4692   2.581   4.168   0.436
 1586TIP3   OH2 4693   2.338   4.143   0.149
 1586TIP3    H1 4694   2.364   4.191   0.071
 1586TIP3    H2 4695   2.301   4.209   0.207
 1587TIP3   OH2 4696   2.981   4.287   0.338
 1587TIP3    H1 4697   3.034   4.330   0.271
 1587TIP3    H2 4698   3.019   4.315   0.421
 1588TIP3   OH2 4699   3.482   4.405   0.336
 1588TIP3    H1 4700   3.502   4.367   0.250
 1588TIP3    H2 4701   3.480   4.329   0.395
 1589TIP3   OH2 4702   0.693   0.357   6.859
 1589TIP3    H1 4703   0.609   0.401   6.868
 1589TIP3    H2 4704   0.679   0.270   6.896
 1590TIP3   OH2 4705   8.104   0.260   6.856
 1590TIP3    H1 4706   8.158   0.182   6.842
 1590TIP3    H2 4707   8.168   0.330   6.871
 1591TIP3   OH2 4708   0.092   0.460   6.913
 1591TIP3    H1 4709   0.154   0.413   6.969
 1591TIP3    H2 4710   0.109   0.553   6.931
 1592TIP3   OH2 4711   2.736   4.522   1.322
 1592TIP3    H1 4712   2.703   4.457   1.383
 1592TIP3    H2 4713   2.829   4.531   1.344
 1593TIP3   OH2 4714   2.983   4.526   1.447
 1593TIP3    H1 4715   3.060   4.506   1.393
 1593TIP3    H2 4716   2.981   4.457   1.512
 1594TIP3   OH2 4717   3.806   4.603   1.231
 1594TIP3    H1 4718   3.822   4.574   1.321
 1594TIP3    H2 4719   3.892   4.600   1.189
 1595TIP3   OH2 4720   3.682   6.105   0.753
 1595TIP3    H1 4721   3.599   6.076   0.716
 1595TIP3    H2 4722   3.664   6.193   0.788
 1596TIP3   OH2 4723   4.316   5.323   0.193
 1596TIP3    H1 4724   4.324   5.262   0.265
 1596TIP3    H2 4725   4.306   5.409   0.234
 1597TIP3   OH2 4726   4.107   5.042   0.026
 1597TIP3    H1 4727   4.202   5.038   0.016
 1597TIP3    H2 4728   4.084   5.130  -0.006
 1598TIP3   OH2 4729   4.482   4.764   0.449
 1598TIP3    H1 4730   4.463   4.799   0.362
 1598TIP3    H2 4731   4.451   4.832   0.510
 1599TIP3   OH2 4732   4.449   4.900   0.210
 1599TIP3    H1 4733   4.507   4.974   0.226
 1599TIP3    H2 4734   4.469   4.873   0.120
 1600TIP3   OH2 4735   4.490   5.897   0.260
 1600TIP3    H1 4736   4.488   5.966   0.193
 1600TIP3    H2 4737   4.405   5.903   0.303
 1601TIP3   OH2 4738   4.903   4.628   0.088
 1601TIP3    H1 4739   4.893   4.577   0.007
 1601TIP3    H2 4740   4.816   4.624   0.129
 1602TIP3   OH2 4741   4.643   5.947   0.481
 1602TIP3    H1 4742   4.609   6.030   0.448
 1602TIP3    H2 4743   4.620   5.883   0.414
 1603TIP3   OH2 4744   4.456   5.487   0.624
 1603TIP3    H1 4745   4.431   5.569   0.581
 1603TIP3    H2 4746   4.386   5.425   0.601
 1604TIP3   OH2 4747   4.516   6.192   0.340
 1604TIP3    H1 4748   4.468   6.176   0.259
 1604TIP3    H2 4749   4.449   6.195   0.408
 1605TIP3   OH2 4750   4.072   5.726   0.315
 1605TIP3    H1 4751   3.999   5.701   0.258
 1605TIP3    H2 4752   4.122   5.646   0.329
 1606TIP3   OH2 4753   5.645   5.395   0.367
 1606TIP3    H1 4754   5.668   5.407   0.275
 1606TIP3    H2 4755   5.677   5.308   0.389
 1607TIP3   OH2 4756   4.233   5.949   0.343
 1607TIP3    H1 4757   4.221   5.922   0.434
 1607TIP3    H2 4758   4.170   5.895   0.295
 1608TIP3   OH2 4759   4.652   4.654   0.202
 1608TIP3    H1 4760   4.557   4.641   0.202
 1608TIP3    H2 4761   4.667   4.728   0.260
 1609TIP3   OH2 4762   5.241   4.768   0.393
 1609TIP3    H1 4763   5.300   4.743   0.464
 1609TIP3    H2 4764   5.161   4.795   0.437
 1610TIP3   OH2 4765   4.583   5.138   0.224
 1610TIP3    H1 4766   4.592   5.135   0.319
 1610TIP3    H2 4767   4.579   5.232   0.204
 1611TIP3   OH2 4768   5.126   5.352   0.462
 1611TIP3    H1 4769   5.110   5.310   0.547
 1611TIP3    H2 4770   5.221   5.358   0.456
 1612TIP3   OH2 4771   4.358   5.214   0.445
 1612TIP3    H1 4772   4.445   5.252   0.438
 1612TIP3    H2 4773   4.371   5.132   0.492
 1613TIP3   OH2 4774   4.003   4.773   0.055
 1613TIP3    H1 4775   4.071   4.773   0.123
 1613TIP3    H2 4776   4.011   4.859   0.014
 1614TIP3   OH2 4777   4.405   5.886   0.744
 1614TIP3    H1 4778   4.472   5.846   0.799
 1614TIP3    H2 4779   4.322   5.854   0.780
 1615TIP3   OH2 4780   4.835   5.064   0.130
 1615TIP3    H1 4781   4.760   5.086   0.185
 1615TIP3    H2 4782   4.911   5.085   0.184
 1616TIP3   OH2 4783   4.969   5.761   0.300
 1616TIP3    H1 4784   5.063   5.763   0.282
 1616TIP3    H2 4785   4.928   5.781   0.215
 1617TIP3   OH2 4786   4.176   5.440   0.641
 1617TIP3    H1 4787   4.215   5.485   0.717
 1617TIP3    H2 4788   4.135   5.362   0.678
 1618TIP3   OH2 4789   4.924   5.599   0.634
 1618TIP3    H1 4790   4.858   5.529   0.635
 1618TIP3    H2 4791   5.004   5.556   0.606
 1619TIP3   OH2 4792   4.383   4.969   0.611
 1619TIP3    H1 4793   4.288   4.973   0.613
 1619TIP3    H2 4794   4.407   4.925   0.693
 1620TIP3   OH2 4795   4.171   6.182   0.185
 1620TIP3    H1 4796   4.167   6.113   0.251
 1620TIP3    H2 4797   4.126   6.256   0.225
 1621TIP3   OH2 4798   5.297   5.067   0.273
 1621TIP3    H1 4799   5.289   5.056   0.367
 1621TIP3    H2 4800   5.293   4.978   0.238
 1622TIP3   OH2 4801   5.055   5.215   0.236
 1622TIP3    H1 4802   5.082   5.265   0.313
 1622TIP3    H2 4803   5.134   5.169   0.209
 1623TIP3   OH2 4804   4.384   4.588   0.194
 1623TIP3    H1 4805   4.355   4.562   0.106
 1623TIP3    H2 4806   4.385   4.507   0.244
 1624TIP3   OH2 4807   4.181   6.435   0.650
 1624TIP3    H1 4808   4.231   6.405   0.726
 1624TIP3    H2 4809   4.104   6.379   0.648
 1625TIP3   OH2 4810   4.479   6.208   0.755
 1625TIP3    H1 4811   4.531   6.129   0.771
 1625TIP3    H2 4812   4.435   6.192   0.671
 1626TIP3   OH2 4813   4.190   5.779   0.881
 1626TIP3    H1 4814   4.226   5.690   0.885
 1626TIP3    H2 4815   4.101   5.767   0.846
 1627TIP3   OH2 4816   4.891   5.862   0.568
 1627TIP3    H1 4817   4.801   5.877   0.539
 1627TIP3    H2 4818   4.897   5.767   0.581
 1628TIP3   OH2 4819   4.324   5.536   0.861
 1628TIP3    H1 4820   4.396   5.514   0.802
 1628TIP3    H2 4821   4.367   5.551   0.946
 1629TIP3   OH2 4822   4.588   5.362   0.414
 1629TIP3    H1 4823   4.583   5.400   0.502
 1629TIP3    H2 4824   4.680   5.371   0.389
 1630TIP3   OH2 4825   5.206   5.786   0.707
 1630TIP3    H1 4826   5.299   5.772   0.721
 1630TIP3    H2 4827   5.184   5.733   0.631
 1631TIP3   OH2 4828   4.827   5.446   0.300
 1631TIP3    H1 4829   4.916   5.470   0.273
 1631TIP3    H2 4830   4.777   5.444   0.219
 1632TIP3   OH2 4831   5.420   5.333   0.692
 1632TIP3    H1 4832   5.445   5.310   0.781
 1632TIP3    H2 4833   5.435   5.428   0.687
 1633TIP3   OH2 4834   4.640   5.295   0.876
 1633TIP3    H1 4835   4.567   5.272   0.933
 1633TIP3    H2 4836   4.673   5.211   0.843
 1634TIP3   OH2 4837   4.840   4.723   0.583
 1634TIP3    H1 4838   4.804   4.811   0.593
 1634TIP3    H2 4839   4.768   4.672   0.546
 1635TIP3   OH2 4840   5.075   5.205   0.698
 1635TIP3    H1 4841   5.072   5.232   0.790
 1635TIP3    H2 4842   4.990   5.162   0.683
 1636TIP3   OH2 4843   5.279   5.086   0.554
 1636TIP3    H1 4844   5.226   5.145   0.609
 1636TIP3    H2 4845   5.360   5.134   0.539
 1637TIP3   OH2 4846   5.648   5.126   0.862
 1637TIP3    H1 4847   5.580   5.066   0.831
 1637TIP3    H2 4848   5.601   5.190   0.916
 1638TIP3   OH2 4849   4.519   5.031   0.909
 1638TIP3    H1 4850   4.595   5.017   0.853
 1638TIP3    H2 4851   4.550   5.014   0.998
 1639TIP3   OH2 4852   4.994   4.701   0.806
 1639TIP3    H1 4853   5.061   4.635   0.789
 1639TIP3    H2 4854   4.940   4.702   0.727
 1640TIP3   OH2 4855   5.056   4.942   0.912
 1640TIP3    H1 4856   5.043   4.851   0.888
 1640TIP3    H2 4857   4.978   4.987   0.880
 1641TIP3   OH2 4858   4.013   5.398   0.214
 1641TIP3    H1 4859   4.033   5.371   0.125
 1641TIP3    H2 4860   4.098   5.427   0.250
 1642TIP3   OH2 4861   4.254   5.089   0.867
 1642TIP3    H1 4862   4.349   5.082   0.876
 1642TIP3    H2 4863   4.221   5.004   0.896
 1643TIP3   OH2 4864   6.026   5.100   0.659
 1643TIP3    H1 4865   6.058   5.010   0.650
 1643TIP3    H2 4866   6.028   5.135   0.570
 1644TIP3   OH2 4867   4.200   4.786   0.247
 1644TIP3    H1 4868   4.252   4.706   0.239
 1644TIP3    H2 4869   4.264   4.857   0.238
 1645TIP3   OH2 4870   4.004   5.055   0.282
 1645TIP3    H1 4871   4.036   5.040   0.193
 1645TIP3    H2 4872   4.054   5.130   0.314
 1646TIP3   OH2 4873   5.777   5.126   0.343
 1646TIP3    H1 4874   5.693   5.099   0.380
 1646TIP3    H2 4875   5.801   5.055   0.284
 1647TIP3   OH2 4876   4.192   4.615   0.563
 1647TIP3    H1 4877   4.153   4.620   0.651
 1647TIP3    H2 4878   4.144   4.679   0.512
 1648TIP3   OH2 4879   4.186   6.117   0.746
 1648TIP3    H1 4880   4.102   6.072   0.741
 1648TIP3    H2 4881   4.225   6.089   0.828
 1649TIP3   OH2 4882   5.824   4.884   0.199
 1649TIP3    H1 4883   5.791   4.890   0.110
 1649TIP3    H2 4884   5.919   4.873   0.189
 1650TIP3   OH2 4885   8.163   0.916   1.460
 1650TIP3    H1 4886   8.085   0.896   1.408
 1650TIP3    H2 4887   8.140   0.997   1.506
 1651TIP3   OH2 4888   1.458   0.478   6.900
 1651TIP3    H1 4889   1.368   0.446   6.903
 1651TIP3    H2 4890   1.511   0.401   6.878
 1652TIP3   OH2 4891   4.519   4.743   0.799
 1652TIP3    H1 4892   4.495   4.682   0.869
 1652TIP3    H2 4893   4.600   4.783   0.829
 1653TIP3   OH2 4894   4.754   4.774   0.966
 1653TIP3    H1 4895   4.832   4.759   0.912
 1653TIP3    H2 4896   4.750   4.697   1.023
 1654TIP3   OH2 4897   5.601   4.755   0.766
 1654TIP3    H1 4898   5.612   4.772   0.859
 1654TIP3    H2 4899   5.683   4.714   0.739
 1655TIP3   OH2 4900   0.374   6.039   1.781
 1655TIP3    H1 4901   0.420   5.963   1.745
 1655TIP3    H2 4902   0.284   6.028   1.750
 1656TIP3   OH2 4903   1.888   6.354   0.620
 1656TIP3    H1 4904   1.898   6.436   0.669
 1656TIP3    H2 4905   1.899   6.380   0.529
 1657TIP3   OH2 4906   1.936   6.586   0.758
 1657TIP3    H1 4907   1.915   6.645   0.686
 1657TIP3    H2 4908   1.977   6.642   0.824
 1658TIP3   OH2 4909   1.682   6.218   0.742
 1658TIP3    H1 4910   1.608   6.279   0.745
 1658TIP3    H2 4911   1.754   6.269   0.705
 1659TIP3   OH2 4912   1.707   6.741   1.041
 1659TIP3    H1 4913   1.621   6.759   1.078
 1659TIP3    H2 4914   1.722   6.648   1.059
 1660TIP3   OH2 4915   1.227   6.114   1.116
 1660TIP3    H1 4916   1.299   6.082   1.170
 1660TIP3    H2 4917   1.152   6.062   1.144
 1661TIP3   OH2 4918   1.494   6.547   0.981
 1661TIP3    H1 4919   1.452   6.516   1.061
 1661TIP3    H2 4920   1.452   6.631   0.964
 1662TIP3   OH2 4921   1.142   6.813   1.279
 1662TIP3    H1 4922   1.151   6.726   1.241
 1662TIP3    H2 4923   1.229   6.853   1.271
 1663TIP3   OH2 4924   1.373   6.265   0.937
 1663TIP3    H1 4925   1.431   6.315   0.995
 1663TIP3    H2 4926   1.325   6.206   0.995
 1664TIP3   OH2 4927   1.753   6.459   0.942
 1664TIP3    H1 4928   1.660   6.481   0.940
 1664TIP3    H2 4929   1.791   6.505   0.867
 1665TIP3   OH2 4930   1.221   7.153   1.435
 1665TIP3    H1 4931   1.269   7.091   1.381
 1665TIP3    H2 4932   1.147   7.103   1.469
 1666TIP3   OH2 4933   1.540   6.747   1.332
 1666TIP3    H1 4934   1.558   6.653   1.337
 1666TIP3    H2 4935   1.626   6.788   1.339
 1667TIP3   OH2 4936   1.563   7.055   1.023
 1667TIP3    H1 4937   1.507   7.042   0.946
 1667TIP3    H2 4938   1.649   7.077   0.987
 1668TIP3   OH2 4939   0.972   6.001   1.153
 1668TIP3    H1 4940   0.899   6.048   1.114
 1668TIP3    H2 4941   0.956   5.909   1.131
 1669TIP3   OH2 4942   1.190   6.506   1.393
 1669TIP3    H1 4943   1.221   6.505   1.484
 1669TIP3    H2 4944   1.095   6.498   1.400
 1670TIP3   OH2 4945   1.378   6.455   1.207
 1670TIP3    H1 4946   1.308   6.465   1.271
 1670TIP3    H2 4947   1.458   6.444   1.259
 1671TIP3   OH2 4948   1.600   6.450   1.380
 1671TIP3    H1 4949   1.612   6.355   1.385
 1671TIP3    H2 4950   1.588   6.478   1.470
 1672TIP3   OH2 4951   1.065   6.030   1.412
 1672TIP3    H1 4952   1.135   5.966   1.401
 1672TIP3    H2 4953   1.019   6.030   1.329
 1673TIP3   OH2 4954   1.143   6.235   1.581
 1673TIP3    H1 4955   1.115   6.168   1.519
 1673TIP3    H2 4956   1.076   6.303   1.575
 1674TIP3   OH2 4957   1.704   7.405   1.070
 1674TIP3    H1 4958   1.612   7.382   1.072
 1674TIP3    H2 4959   1.711   7.484   1.125
 1675TIP3   OH2 4960   1.813   7.109   0.910
 1675TIP3    H1 4961   1.849   7.021   0.918
 1675TIP3    H2 4962   1.886   7.162   0.878
 1676TIP3   OH2 4963   1.915   6.857   0.916
 1676TIP3    H1 4964   1.840   6.819   0.962
 1676TIP3    H2 4965   1.991   6.813   0.952
 1677TIP3   OH2 4966   2.149   6.296   1.267
 1677TIP3    H1 4967   2.214   6.242   1.223
 1677TIP3    H2 4968   2.110   6.349   1.197
 1678TIP3   OH2 4969   1.995   6.436   1.090
 1678TIP3    H1 4970   1.937   6.483   1.150
 1678TIP3    H2 4971   1.935   6.397   1.026
 1679TIP3   OH2 4972   1.903   6.166   0.965
 1679TIP3    H1 4973   1.818   6.175   0.920
 1679TIP3    H2 4974   1.924   6.073   0.955
 1680TIP3   OH2 4975   1.711   6.040   0.533
 1680TIP3    H1 4976   1.758   6.088   0.465
 1680TIP3    H2 4977   1.700   6.103   0.604
 1681TIP3   OH2 4978   1.148   6.598   1.106
 1681TIP3    H1 4979   1.232   6.552   1.115
 1681TIP3    H2 4980   1.144   6.623   1.014
 1682TIP3   OH2 4981   0.819   6.008   1.562
 1682TIP3    H1 4982   0.909   5.991   1.537
 1682TIP3    H2 4983   0.803   5.948   1.636
 1683TIP3   OH2 4984   1.656   6.176   1.384
 1683TIP3    H1 4985   1.672   6.146   1.474
 1683TIP3    H2 4986   1.742   6.169   1.342
 1684TIP3   OH2 4987   2.197   6.954   0.418
 1684TIP3    H1 4988   2.217   6.893   0.489
 1684TIP3    H2 4989   2.281   6.968   0.374
 1685TIP3   OH2 4990   2.413   6.474   0.077
 1685TIP3    H1 4991   2.368   6.532   0.017
 1685TIP3    H2 4992   2.404   6.387   0.037
 1686TIP3   OH2 4993   3.716   6.773   0.092
 1686TIP3    H1 4994   3.713   6.867   0.074
 1686TIP3    H2 4995   3.702   6.766   0.186
 1687TIP3   OH2 4996   2.391   6.443   0.521
 1687TIP3    H1 4997   2.339   6.478   0.449
 1687TIP3    H2 4998   2.336   6.456   0.598
 1688TIP3   OH2 4999   2.520   7.233   0.307
 1688TIP3    H1 5000   2.486   7.287   0.379
 1688TIP3    H2 5001   2.556   7.296   0.245
 1689TIP3   OH2 5002   2.272   6.554   0.299
 1689TIP3    H1 5003   2.325   6.628   0.327
 1689TIP3    H2 5004   2.320   6.516   0.225
 1690TIP3   OH2 5005   3.329   6.478   0.338
 1690TIP3    H1 5006   3.239   6.477   0.306
 1690TIP3    H2 5007   3.381   6.507   0.263
 1691TIP3   OH2 5008   2.739   6.147   0.252
 1691TIP3    H1 5009   2.722   6.054   0.266
 1691TIP3    H2 5010   2.660   6.191   0.284
 1692TIP3   OH2 5011   2.404   6.997   0.225
 1692TIP3    H1 5012   2.425   6.972   0.135
 1692TIP3    H2 5013   2.461   7.072   0.244
 1693TIP3   OH2 5014   2.491   7.430   0.496
 1693TIP3    H1 5015   2.477   7.482   0.575
 1693TIP3    H2 5016   2.586   7.423   0.488
 1694TIP3   OH2 5017   2.319   7.101   0.682
 1694TIP3    H1 5018   2.321   7.186   0.726
 1694TIP3    H2 5019   2.226   7.077   0.680
 1695TIP3   OH2 5020   3.498   6.964   0.518
 1695TIP3    H1 5021   3.409   6.976   0.486
 1695TIP3    H2 5022   3.511   6.869   0.519
 1696TIP3   OH2 5023   2.153   7.403   0.576
 1696TIP3    H1 5024   2.194   7.363   0.653
 1696TIP3    H2 5025   2.061   7.376   0.581
 1697TIP3   OH2 5026   2.501   6.241   0.365
 1697TIP3    H1 5027   2.415   6.211   0.333
 1697TIP3    H2 5028   2.482   6.321   0.413
 1698TIP3   OH2 5029   3.025   6.346   0.564
 1698TIP3    H1 5030   3.096   6.334   0.627
 1698TIP3    H2 5031   2.946   6.326   0.613
 1699TIP3   OH2 5032   3.216   6.776   0.457
 1699TIP3    H1 5033   3.199   6.749   0.547
 1699TIP3    H2 5034   3.206   6.871   0.458
 1700TIP3   OH2 5035   2.436   6.764   0.370
 1700TIP3    H1 5036   2.435   6.801   0.458
 1700TIP3    H2 5037   2.428   6.840   0.311
 1701TIP3   OH2 5038   2.997   6.983   0.718
 1701TIP3    H1 5039   2.966   6.910   0.772
 1701TIP3    H2 5040   3.089   6.994   0.744
 1702TIP3   OH2 5041   2.264   6.770   0.618
 1702TIP3    H1 5042   2.336   6.808   0.668
 1702TIP3    H2 5043   2.251   6.683   0.657
 1703TIP3   OH2 5044   2.868   6.960   0.266
 1703TIP3    H1 5045   2.953   6.994   0.237
 1703TIP3    H2 5046   2.888   6.908   0.344
 1704TIP3   OH2 5047   2.692   6.454  -0.006
 1704TIP3    H1 5048   2.603   6.460   0.030
 1704TIP3    H2 5049   2.732   6.538   0.017
 1705TIP3   OH2 5050   3.105   6.494   0.177
 1705TIP3    H1 5051   3.048   6.543   0.237
 1705TIP3    H2 5052   3.047   6.429   0.137
 1706TIP3   OH2 5053   2.264   7.340   0.826
 1706TIP3    H1 5054   2.342   7.350   0.880
 1706TIP3    H2 5055   2.192   7.332   0.888
 1707TIP3   OH2 5056   2.794   6.687   0.098
 1707TIP3    H1 5057   2.818   6.780   0.094
 1707TIP3    H2 5058   2.768   6.672   0.189
 1708TIP3   OH2 5059   8.063   2.205   6.924
 1708TIP3    H1 5060   8.013   2.130   6.955
 1708TIP3    H2 5061   8.048   2.206   6.829
 1709TIP3   OH2 5062   2.699   6.682   0.355
 1709TIP3    H1 5063   2.611   6.720   0.353
 1709TIP3    H2 5064   2.752   6.747   0.402
 1710TIP3   OH2 5065   2.769   7.405   0.487
 1710TIP3    H1 5066   2.828   7.332   0.471
 1710TIP3    H2 5067   2.806   7.478   0.437
 1711TIP3   OH2 5068   2.055   7.050   0.752
 1711TIP3    H1 5069   2.097   7.050   0.838
 1711TIP3    H2 5070   2.003   6.970   0.752
 1712TIP3   OH2 5071   2.774   7.137   0.723
 1712TIP3    H1 5072   2.735   7.124   0.637
 1712TIP3    H2 5073   2.855   7.086   0.720
 1713TIP3   OH2 5074   2.225   6.509   0.732
 1713TIP3    H1 5075   2.131   6.517   0.744
 1713TIP3    H2 5076   2.257   6.467   0.812
 1714TIP3   OH2 5077   3.015   6.586   0.429
 1714TIP3    H1 5078   3.101   6.625   0.439
 1714TIP3    H2 5079   3.020   6.503   0.477
 1715TIP3   OH2 5080   2.890   6.824   0.501
 1715TIP3    H1 5081   2.936   6.870   0.571
 1715TIP3    H2 5082   2.937   6.741   0.492
 1716TIP3   OH2 5083   3.500   6.688   0.461
 1716TIP3    H1 5084   3.432   6.627   0.492
 1716TIP3    H2 5085   3.466   6.721   0.378
 1717TIP3   OH2 5086   2.240   6.156   0.331
 1717TIP3    H1 5087   2.226   6.115   0.245
 1717TIP3    H2 5088   2.237   6.083   0.393
 1718TIP3   OH2 5089   2.057   7.293   1.022
 1718TIP3    H1 5090   2.101   7.208   1.018
 1718TIP3    H2 5091   1.997   7.286   1.096
 1719TIP3   OH2 5092   2.669   7.389   0.751
 1719TIP3    H1 5093   2.709   7.422   0.671
 1719TIP3    H2 5094   2.700   7.299   0.759
 1720TIP3   OH2 5095   2.173   7.046   1.000
 1720TIP3    H1 5096   2.263   7.014   0.998
 1720TIP3    H2 5097   2.137   7.011   1.081
 1721TIP3   OH2 5098   2.509   6.927   0.593
 1721TIP3    H1 5099   2.448   6.992   0.627
 1721TIP3    H2 5100   2.577   6.978   0.549
 1722TIP3   OH2 5101   3.042   7.377   0.694
 1722TIP3    H1 5102   3.054   7.371   0.599
 1722TIP3    H2 5103   2.999   7.294   0.717
 1723TIP3   OH2 5104   2.643   6.737   0.744
 1723TIP3    H1 5105   2.649   6.657   0.692
 1723TIP3    H2 5106   2.607   6.802   0.684
 1724TIP3   OH2 5107   2.649   6.520   0.570
 1724TIP3    H1 5108   2.680   6.559   0.488
 1724TIP3    H2 5109   2.558   6.495   0.551
 1725TIP3   OH2 5110   2.693   7.082   0.460
 1725TIP3    H1 5111   2.760   7.048   0.400
 1725TIP3    H2 5112   2.640   7.141   0.406
 1726TIP3   OH2 5113   3.258   7.021   0.799
 1726TIP3    H1 5114   3.318   6.951   0.825
 1726TIP3    H2 5115   3.315   7.091   0.769
 1727TIP3   OH2 5116   2.531   6.827   0.981
 1727TIP3    H1 5117   2.462   6.763   1.002
 1727TIP3    H2 5118   2.562   6.800   0.894
 1728TIP3   OH2 5119   2.769   6.289   0.655
 1728TIP3    H1 5120   2.729   6.371   0.626
 1728TIP3    H2 5121   2.703   6.222   0.637
 1729TIP3   OH2 5122   2.901   6.765   0.847
 1729TIP3    H1 5123   2.888   6.755   0.941
 1729TIP3    H2 5124   2.815   6.751   0.809
 1730TIP3   OH2 5125   3.145   6.715   0.710
 1730TIP3    H1 5126   3.066   6.717   0.764
 1730TIP3    H2 5127   3.216   6.705   0.773
 1731TIP3   OH2 5128   3.361   6.692   0.881
 1731TIP3    H1 5129   3.368   6.597   0.896
 1731TIP3    H2 5130   3.356   6.729   0.969
 1732TIP3   OH2 5131   2.366   6.611   1.045
 1732TIP3    H1 5132   2.372   6.519   1.020
 1732TIP3    H2 5133   2.395   6.613   1.137
 1733TIP3   OH2 5134   2.836   6.282   0.919
 1733TIP3    H1 5135   2.908   6.220   0.914
 1733TIP3    H2 5136   2.804   6.289   0.829
 1734TIP3   OH2 5137   2.932   6.499   1.059
 1734TIP3    H1 5138   2.902   6.426   1.004
 1734TIP3    H2 5139   2.860   6.562   1.057
 1735TIP3   OH2 5140   3.441   7.800   0.651
 1735TIP3    H1 5141   3.376   7.765   0.711
 1735TIP3    H2 5142   3.465   7.885   0.688
 1736TIP3   OH2 5143   3.690   7.166   0.560
 1736TIP3    H1 5144   3.650   7.088   0.522
 1736TIP3    H2 5145   3.772   7.177   0.512
 1737TIP3   OH2 5146   2.103   6.664   0.972
 1737TIP3    H1 5147   2.195   6.668   0.998
 1737TIP3    H2 5148   2.068   6.588   1.021
 1738TIP3   OH2 5149   4.009   6.603   0.804
 1738TIP3    H1 5150   4.094   6.563   0.786
 1738TIP3    H2 5151   3.976   6.629   0.718
 1739TIP3   OH2 5152   2.050   6.354   0.362
 1739TIP3    H1 5153   2.118   6.287   0.356
 1739TIP3    H2 5154   2.097   6.437   0.361
 1740TIP3   OH2 5155   3.753   6.702   0.358
 1740TIP3    H1 5156   3.670   6.687   0.405
 1740TIP3    H2 5157   3.797   6.617   0.360
 1741TIP3   OH2 5158   2.065   6.177   0.732
 1741TIP3    H1 5159   2.024   6.182   0.818
 1741TIP3    H2 5160   2.013   6.235   0.677
 1742TIP3   OH2 5161   3.611   6.429   0.321
 1742TIP3    H1 5162   3.540   6.446   0.384
 1742TIP3    H2 5163   3.662   6.358   0.361
 1743TIP3   OH2 5164   2.909   6.314   0.095
 1743TIP3    H1 5165   2.859   6.252   0.149
 1743TIP3    H2 5166   2.843   6.363   0.047
 1744TIP3   OH2 5167   2.195   6.043   0.082
 1744TIP3    H1 5168   2.100   6.045   0.093
 1744TIP3    H2 5169   2.217   5.950   0.089
 1745TIP3   OH2 5170   8.298   2.039   6.921
 1745TIP3    H1 5171   8.389   2.064   6.933
 1745TIP3    H2 5172   8.248   2.117   6.943
 1746TIP3   OH2 5173   2.371   6.336   0.962
 1746TIP3    H1 5174   2.336   6.269   1.021
 1746TIP3    H2 5175   2.463   6.343   0.987
 1747TIP3   OH2 5176   2.617   6.341   1.089
 1747TIP3    H1 5177   2.696   6.318   1.038
 1747TIP3    H2 5178   2.611   6.272   1.155
 1748TIP3   OH2 5179   3.393   6.424   0.929
 1748TIP3    H1 5180   3.402   6.398   1.021
 1748TIP3    H2 5181   3.479   6.406   0.891
 1749TIP3   OH2 5182   3.934   7.533   0.345
 1749TIP3    H1 5183   3.882   7.490   0.412
 1749TIP3    H2 5184   3.870   7.571   0.285
 1750TIP3   OH2 5185   3.945   7.254   0.481
 1750TIP3    H1 5186   3.995   7.185   0.437
 1750TIP3    H2 5187   4.006   7.292   0.545
 1751TIP3   OH2 5188   4.327   7.025   0.352
 1751TIP3    H1 5189   4.327   7.067   0.438
 1751TIP3    H2 5190   4.418   6.999   0.338
 1752TIP3   OH2 5191   4.170   6.868   0.524
 1752TIP3    H1 5192   4.211   6.891   0.441
 1752TIP3    H2 5193   4.240   6.878   0.589
 1753TIP3   OH2 5194   4.677   6.806   0.458
 1753TIP3    H1 5195   4.713   6.717   0.457
 1753TIP3    H2 5196   4.589   6.796   0.421
 1754TIP3   OH2 5197   3.922   6.966   0.596
 1754TIP3    H1 5198   3.995   6.914   0.561
 1754TIP3    H2 5199   3.854   6.901   0.614
 1755TIP3   OH2 5200   3.757   6.498   0.102
 1755TIP3    H1 5201   3.700   6.482   0.177
 1755TIP3    H2 5202   3.743   6.591   0.080
 1756TIP3   OH2 5203   4.206   6.542   0.391
 1756TIP3    H1 5204   4.204   6.501   0.477
 1756TIP3    H2 5205   4.279   6.604   0.396
 1757TIP3   OH2 5206   4.437   6.576   0.730
 1757TIP3    H1 5207   4.484   6.522   0.667
 1757TIP3    H2 5208   4.397   6.513   0.790
 1758TIP3   OH2 5209   1.293   0.031   3.963
 1758TIP3    H1 5210   1.326  -0.031   4.028
 1758TIP3    H2 5211   1.371   0.076   3.931
 1759TIP3   OH2 5212   1.078   0.439   3.966
 1759TIP3    H1 5213   1.114   0.373   3.907
 1759TIP3    H2 5214   1.146   0.453   4.031
 1760TIP3   OH2 5215   7.845   7.630   4.496
 1760TIP3    H1 5216   7.750   7.634   4.499
 1760TIP3    H2 5217   7.872   7.617   4.587
 1761TIP3   OH2 5218   1.353   0.327   4.012
 1761TIP3    H1 5219   1.293   0.284   4.072
 1761TIP3    H2 5220   1.424   0.264   3.999
 1762TIP3   OH2 5221   1.798   0.176   4.537
 1762TIP3    H1 5222   1.836   0.129   4.462
 1762TIP3    H2 5223   1.710   0.199   4.509
 1763TIP3   OH2 5224   7.683   7.822   4.330
 1763TIP3    H1 5225   7.613   7.761   4.352
 1763TIP3    H2 5226   7.717   7.790   4.246
 1764TIP3   OH2 5227   1.190   0.237   4.213
 1764TIP3    H1 5228   1.107   0.270   4.246
 1764TIP3    H2 5229   1.218   0.173   4.279
 1765TIP3   OH2 5230   1.938   0.623   4.560
 1765TIP3    H1 5231   1.951   0.528   4.558
 1765TIP3    H2 5232   1.853   0.635   4.602
 1766TIP3   OH2 5233   1.062   0.309   4.636
 1766TIP3    H1 5234   1.003   0.377   4.604
 1766TIP3    H2 5235   1.024   0.281   4.719
 1767TIP3   OH2 5236   7.462   7.712   4.894
 1767TIP3    H1 5237   7.409   7.789   4.875
 1767TIP3    H2 5238   7.402   7.651   4.937
 1768TIP3   OH2 5239   1.635   0.930   4.634
 1768TIP3    H1 5240   1.627   0.944   4.539
 1768TIP3    H2 5241   1.717   0.974   4.657
 1769TIP3   OH2 5242   7.299   7.898   4.342
 1769TIP3    H1 5243   7.356   7.975   4.352
 1769TIP3    H2 5244   7.212   7.930   4.365
 1770TIP3   OH2 5245   1.384   0.365   4.620
 1770TIP3    H1 5246   1.319   0.295   4.616
 1770TIP3    H2 5247   1.391   0.387   4.712
 1771TIP3   OH2 5248   1.998   0.356   4.562
 1771TIP3    H1 5249   1.915   0.310   4.573
 1771TIP3    H2 5250   2.034   0.322   4.480
 1772TIP3   OH2 5251   7.096   7.867   4.118
 1772TIP3    H1 5252   7.062   7.852   4.206
 1772TIP3    H2 5253   7.152   7.791   4.100
 1773TIP3   OH2 5254   0.917   0.505   4.523
 1773TIP3    H1 5255   0.868   0.585   4.503
 1773TIP3    H2 5256   0.934   0.465   4.438
 1774TIP3   OH2 5257   1.296   0.136   4.456
 1774TIP3    H1 5258   1.292   0.070   4.526
 1774TIP3    H2 5259   1.389   0.157   4.449
 1775TIP3   OH2 5260   1.500   0.629   4.436
 1775TIP3    H1 5261   1.442   0.555   4.418
 1775TIP3    H2 5262   1.460   0.703   4.390
 1776TIP3   OH2 5263   1.517   0.682   4.057
 1776TIP3    H1 5264   1.471   0.667   3.974
 1776TIP3    H2 5265   1.609   0.691   4.031
 1777TIP3   OH2 5266   1.433   0.385   4.890
 1777TIP3    H1 5267   1.487   0.335   4.951
 1777TIP3    H2 5268   1.465   0.475   4.898
 1778TIP3   OH2 5269   1.573   0.174   4.722
 1778TIP3    H1 5270   1.666   0.183   4.702
 1778TIP3    H2 5271   1.530   0.242   4.669
 1779TIP3   OH2 5272   7.311   7.939   4.825
 1779TIP3    H1 5273   7.252   8.009   4.796
 1779TIP3    H2 5274   7.395   7.960   4.784
 1780TIP3   OH2 5275   1.784   0.655   4.036
 1780TIP3    H1 5276   1.810   0.688   4.122
 1780TIP3    H2 5277   1.852   0.687   3.976
 1781TIP3   OH2 5278   1.811   0.712   4.313
 1781TIP3    H1 5279   1.783   0.623   4.333
 1781TIP3    H2 5280   1.886   0.726   4.371
 1782TIP3   OH2 5281   1.803   0.373   4.883
 1782TIP3    H1 5282   1.739   0.381   4.954
 1782TIP3    H2 5283   1.853   0.454   4.886
 1783TIP3   OH2 5284   1.748   0.163   4.107
 1783TIP3    H1 5285   1.819   0.139   4.047
 1783TIP3    H2 5286   1.732   0.255   4.089
 1784TIP3   OH2 5287   1.708   0.461   4.373
 1784TIP3    H1 5288   1.633   0.515   4.396
 1784TIP3    H2 5289   1.693   0.436   4.282
 1785TIP3   OH2 5290   7.549   8.009   4.722
 1785TIP3    H1 5291   7.628   7.957   4.711
 1785TIP3    H2 5292   7.545   8.064   4.643
 1786TIP3   OH2 5293   7.750   7.836   4.771
 1786TIP3    H1 5294   7.739   7.842   4.865
 1786TIP3    H2 5295   7.822   7.774   4.759
 1787TIP3   OH2 5296   7.317   7.446   4.280
 1787TIP3    H1 5297   7.334   7.385   4.208
 1787TIP3    H2 5298   7.377   7.519   4.264
 1788TIP3   OH2 5299   7.462   7.681   4.396
 1788TIP3    H1 5300   7.384   7.736   4.402
 1788TIP3    H2 5301   7.489   7.669   4.487
 1789TIP3   OH2 5302   1.274   0.583   3.603
 1789TIP3    H1 5303   1.326   0.522   3.551
 1789TIP3    H2 5304   1.325   0.595   3.684
 1790TIP3   OH2 5305   0.980   0.683   4.807
 1790TIP3    H1 5306   1.042   0.626   4.851
 1790TIP3    H2 5307   1.034   0.739   4.751
 1791TIP3   OH2 5308   1.217   0.773   4.680
 1791TIP3    H1 5309   1.210   0.807   4.590
 1791TIP3    H2 5310   1.281   0.831   4.722
 1792TIP3   OH2 5311   0.977   0.657   4.182
 1792TIP3    H1 5312   0.883   0.648   4.168
 1792TIP3    H2 5313   0.985   0.719   4.254
 1793TIP3   OH2 5314   1.234   0.578   4.153
 1793TIP3    H1 5315   1.144   0.610   4.156
 1793TIP3    H2 5316   1.287   0.656   4.170
 1794TIP3   OH2 5317   1.382   0.807   4.250
 1794TIP3    H1 5318   1.376   0.897   4.219
 1794TIP3    H2 5319   1.435   0.762   4.184
 1795TIP3   OH2 5320   1.676   0.659   4.653
 1795TIP3    H1 5321   1.614   0.629   4.587
 1795TIP3    H2 5322   1.664   0.754   4.656
 1796TIP3   OH2 5323   2.931   0.006   3.380
 1796TIP3    H1 5324   2.905   0.096   3.360
 1796TIP3    H2 5325   2.863  -0.048   3.341
 1797TIP3   OH2 5326   0.095   8.041   3.808
 1797TIP3    H1 5327   0.152   8.020   3.882
 1797TIP3    H2 5328   0.049   7.959   3.790
 1798TIP3   OH2 5329   7.920   7.950   4.147
 1798TIP3    H1 5330   7.954   7.929   4.234
 1798TIP3    H2 5331   7.998   7.961   4.093
 1799TIP3   OH2 5332   3.207   0.323   3.471
 1799TIP3    H1 5333   3.190   0.262   3.542
 1799TIP3    H2 5334   3.228   0.406   3.514
 1800TIP3   OH2 5335   2.241   0.309   3.837
 1800TIP3    H1 5336   2.227   0.215   3.844
 1800TIP3    H2 5337   2.336   0.318   3.824
 1801TIP3   OH2 5338   7.681   7.908   3.839
 1801TIP3    H1 5339   7.688   7.842   3.771
 1801TIP3    H2 5340   7.759   7.962   3.829
 1802TIP3   OH2 5341   2.882   0.740   3.498
 1802TIP3    H1 5342   2.898   0.683   3.423
 1802TIP3    H2 5343   2.906   0.688   3.574
 1803TIP3   OH2 5344   2.756   0.250   3.794
 1803TIP3    H1 5345   2.798   0.166   3.776
 1803TIP3    H2 5346   2.826   0.306   3.825
 1804TIP3   OH2 5347   0.340   7.733   3.859
 1804TIP3    H1 5348   0.405   7.663   3.864
 1804TIP3    H2 5349   0.293   7.717   3.777
 1805TIP3   OH2 5350   8.129   7.392   3.874
 1805TIP3    H1 5351   8.121   7.435   3.789
 1805TIP3    H2 5352   8.049   7.341   3.883
 1806TIP3   OH2 5353   0.277   7.521   3.498
 1806TIP3    H1 5354   0.355   7.467   3.507
 1806TIP3    H2 5355   0.273   7.542   3.405
 1807TIP3   OH2 5356   7.858   7.563   3.847
 1807TIP3    H1 5357   7.937   7.595   3.890
 1807TIP3    H2 5358   7.840   7.628   3.778
 1808TIP3   OH2 5359   8.217   7.804   3.751
 1808TIP3    H1 5360   8.312   7.794   3.763
 1808TIP3    H2 5361   8.185   7.715   3.736
 1809TIP3   OH2 5362   0.947   7.778   4.005
 1809TIP3    H1 5363   0.866   7.826   3.991
 1809TIP3    H2 5364   0.987   7.819   4.082
 1810TIP3   OH2 5365   2.845   0.235   3.247
 1810TIP3    H1 5366   2.808   0.207   3.163
 1810TIP3    H2 5367   2.792   0.310   3.273
 1811TIP3   OH2 5368   2.608   0.171   4.012
 1811TIP3    H1 5369   2.552   0.240   4.047
 1811TIP3    H2 5370   2.655   0.212   3.939
 1812TIP3   OH2 5371   8.083   7.640   3.977
 1812TIP3    H1 5372   8.146   7.676   4.040
 1812TIP3    H2 5373   8.117   7.553   3.956
 1813TIP3   OH2 5374   2.445   0.368   4.112
 1813TIP3    H1 5375   2.429   0.457   4.079
 1813TIP3    H2 5376   2.371   0.351   4.170
 1814TIP3   OH2 5377   3.233   0.569   3.600
 1814TIP3    H1 5378   3.145   0.564   3.637
 1814TIP3    H2 5379   3.239   0.657   3.564
 1815TIP3   OH2 5380   2.952   0.602   3.267
 1815TIP3    H1 5381   3.003   0.521   3.258
 1815TIP3    H2 5382   3.011   0.671   3.237
 1816TIP3   OH2 5383   3.091   0.371   3.227
 1816TIP3    H1 5384   3.020   0.306   3.226
 1816TIP3    H2 5385   3.143   0.349   3.303
 1817TIP3   OH2 5386   3.478   0.455   3.968
 1817TIP3    H1 5387   3.462   0.379   3.912
 1817TIP3    H2 5388   3.459   0.530   3.911
 1818TIP3   OH2 5389   8.431   7.874   3.212
 1818TIP3    H1 5390   8.355   7.922   3.179
 1818TIP3    H2 5391   8.486   7.859   3.135
 1819TIP3   OH2 5392   3.670   0.144   3.818
 1819TIP3    H1 5393   3.583   0.182   3.824
 1819TIP3    H2 5394   3.692   0.148   3.725
 1820TIP3   OH2 5395   0.294   7.981   3.193
 1820TIP3    H1 5396   0.231   7.995   3.263
 1820TIP3    H2 5397   0.379   7.977   3.237
 1821TIP3   OH2 5398   3.349  -0.004   4.118
 1821TIP3    H1 5399   3.338   0.068   4.179
 1821TIP3    H2 5400   3.264  -0.013   4.075
 1822TIP3   OH2 5401   8.045   7.949   3.600
 1822TIP3    H1 5402   8.014   7.879   3.543
 1822TIP3    H2 5403   8.114   7.908   3.652
 1823TIP3   OH2 5404   2.499   0.356   3.725
 1823TIP3    H1 5405   2.475   0.337   3.635
 1823TIP3    H2 5406   2.586   0.318   3.735
 1824TIP3   OH2 5407   8.134   7.956   3.974
 1824TIP3    H1 5408   8.170   7.902   3.904
 1824TIP3    H2 5409   8.194   8.031   3.980
 1825TIP3   OH2 5410   2.987   0.567   3.725
 1825TIP3    H1 5411   2.984   0.646   3.779
 1825TIP3    H2 5412   2.986   0.495   3.788
 1826TIP3   OH2 5413   2.633   0.469   4.290
 1826TIP3    H1 5414   2.571   0.526   4.336
 1826TIP3    H2 5415   2.579   0.417   4.231
 1827TIP3   OH2 5416   0.133   7.824   3.025
 1827TIP3    H1 5417   0.195   7.878   3.074
 1827TIP3    H2 5418   0.156   7.839   2.933
 1828TIP3   OH2 5419   2.402   0.063   4.400
 1828TIP3    H1 5420   2.413   0.152   4.435
 1828TIP3    H2 5421   2.316   0.036   4.432
 1829TIP3   OH2 5422   2.706   0.474   3.276
 1829TIP3    H1 5423   2.787   0.526   3.282
 1829TIP3    H2 5424   2.646   0.530   3.227
 1830TIP3   OH2 5425   2.426   0.634   4.370
 1830TIP3    H1 5426   2.392   0.631   4.281
 1830TIP3    H2 5427   2.350   0.616   4.426
 1831TIP3   OH2 5428   3.297   0.416   2.628
 1831TIP3    H1 5429   3.290   0.510   2.610
 1831TIP3    H2 5430   3.385   0.392   2.600
 1832TIP3   OH2 5431   2.078   0.206   4.347
 1832TIP3    H1 5432   2.008   0.170   4.292
 1832TIP3    H2 5433   2.111   0.131   4.397
 1833TIP3   OH2 5434   1.884   0.374   3.942
 1833TIP3    H1 5435   1.974   0.382   3.972
 1833TIP3    H2 5436   1.836   0.440   3.993
 1834TIP3   OH2 5437   2.820   0.615   4.154
 1834TIP3    H1 5438   2.817   0.706   4.184
 1834TIP3    H2 5439   2.759   0.568   4.211
 1835TIP3   OH2 5440   2.598   0.709   3.112
 1835TIP3    H1 5441   2.562   0.690   3.025
 1835TIP3    H2 5442   2.561   0.794   3.135
 1836TIP3   OH2 5443   2.037   0.588   3.489
 1836TIP3    H1 5444   2.085   0.572   3.570
 1836TIP3    H2 5445   1.991   0.505   3.472
 1837TIP3   OH2 5446   2.800   0.643   2.736
 1837TIP3    H1 5447   2.851   0.571   2.700
 1837TIP3    H2 5448   2.831   0.652   2.826
 1838TIP3   OH2 5449   2.849   0.679   3.005
 1838TIP3    H1 5450   2.764   0.681   3.049
 1838TIP3    H2 5451   2.908   0.642   3.071
 1839TIP3   OH2 5452   0.784   7.988   4.225
 1839TIP3    H1 5453   0.691   7.996   4.206
 1839TIP3    H2 5454   0.789   7.929   4.300
 1840TIP3   OH2 5455   2.242   0.411   4.294
 1840TIP3    H1 5456   2.291   0.409   4.376
 1840TIP3    H2 5457   2.180   0.339   4.302
 1841TIP3   OH2 5458   0.461   7.757   4.240
 1841TIP3    H1 5459   0.483   7.790   4.327
 1841TIP3    H2 5460   0.494   7.824   4.180
 1842TIP3   OH2 5461   0.201   7.863   2.761
 1842TIP3    H1 5462   0.158   7.876   2.676
 1842TIP3    H2 5463   0.291   7.892   2.747
 1843TIP3   OH2 5464   8.239   7.770   4.162
 1843TIP3    H1 5465   8.177   7.766   4.234
 1843TIP3    H2 5466   8.219   7.852   4.117
 1844TIP3   OH2 5467   8.109   7.553   3.636
 1844TIP3    H1 5468   8.038   7.517   3.582
 1844TIP3    H2 5469   8.188   7.540   3.583
 1845TIP3   OH2 5470   0.015   7.687   3.392
 1845TIP3    H1 5471  -0.024   7.752   3.334
 1845TIP3    H2 5472   0.097   7.663   3.349
 1846TIP3   OH2 5473   0.235   7.956   4.413
 1846TIP3    H1 5474   0.203   7.892   4.478
 1846TIP3    H2 5475   0.330   7.958   4.427
 1847TIP3   OH2 5476   0.187   7.739   3.623
 1847TIP3    H1 5477   0.124   7.771   3.558
 1847TIP3    H2 5478   0.217   7.656   3.587
 1848TIP3   OH2 5479   8.034   7.767   4.354
 1848TIP3    H1 5480   8.079   7.816   4.423
 1848TIP3    H2 5481   7.966   7.718   4.400
 1849TIP3   OH2 5482   0.257   7.940   4.012
 1849TIP3    H1 5483   0.293   7.873   3.954
 1849TIP3    H2 5484   0.221   7.890   4.086
 1850TIP3   OH2 5485   3.424   1.165   4.143
 1850TIP3    H1 5486   3.441   1.090   4.086
 1850TIP3    H2 5487   3.510   1.205   4.156
 1851TIP3   OH2 5488   2.386   0.309   4.532
 1851TIP3    H1 5489   2.469   0.318   4.580
 1851TIP3    H2 5490   2.319   0.305   4.601
 1852TIP3   OH2 5491  -0.017   7.777   3.811
 1852TIP3    H1 5492   0.057   7.745   3.760
 1852TIP3    H2 5493  -0.010   7.730   3.895
 1853TIP3   OH2 5494   8.475   7.660   4.065
 1853TIP3    H1 5495   8.401   7.705   4.107
 1853TIP3    H2 5496   8.551   7.686   4.116
 1854TIP3   OH2 5497   2.524   0.005   3.168
 1854TIP3    H1 5498   2.447  -0.052   3.159
 1854TIP3    H2 5499   2.512   0.047   3.253
 1855TIP3   OH2 5500   3.421   0.256   3.783
 1855TIP3    H1 5501   3.453   0.309   3.709
 1855TIP3    H2 5502   3.337   0.222   3.754
 1856TIP3   OH2 5503   2.941   0.334   4.183
 1856TIP3    H1 5504   2.998   0.310   4.256
 1856TIP3    H2 5505   2.908   0.421   4.206
 1857TIP3   OH2 5506   0.247   7.641   3.246
 1857TIP3    H1 5507   0.328   7.691   3.239
 1857TIP3    H2 5508   0.212   7.640   3.157
 1858TIP3   OH2 5509   2.250   0.030   3.824
 1858TIP3    H1 5510   2.287   0.009   3.739
 1858TIP3    H2 5511   2.316   0.001   3.887
 1859TIP3   OH2 5512   2.691   0.163   3.023
 1859TIP3    H1 5513   2.646   0.248   3.023
 1859TIP3    H2 5514   2.633   0.105   3.073
 1860TIP3   OH2 5515   7.817   8.003   4.496
 1860TIP3    H1 5516   7.856   7.978   4.579
 1860TIP3    H2 5517   7.778   7.922   4.462
 1861TIP3   OH2 5518   2.854   0.102   4.486
 1861TIP3    H1 5519   2.784   0.042   4.459
 1861TIP3    H2 5520   2.934   0.063   4.450
 1862TIP3   OH2 5521   3.089   0.642   4.066
 1862TIP3    H1 5522   2.996   0.623   4.076
 1862TIP3    H2 5523   3.116   0.675   4.152
 1863TIP3   OH2 5524   0.636   7.725   2.970
 1863TIP3    H1 5525   0.575   7.676   2.915
 1863TIP3    H2 5526   0.647   7.809   2.925
 1864TIP3   OH2 5527   3.734   0.500   4.060
 1864TIP3    H1 5528   3.641   0.520   4.051
 1864TIP3    H2 5529   3.765   0.488   3.970
 1865TIP3   OH2 5530   3.210   0.484   2.894
 1865TIP3    H1 5531   3.184   0.416   2.956
 1865TIP3    H2 5532   3.230   0.437   2.813
 1866TIP3   OH2 5533   3.172   0.148   3.690
 1866TIP3    H1 5534   3.083   0.127   3.720
 1866TIP3    H2 5535   3.204   0.066   3.653
 1867TIP3   OH2 5536   2.340   0.356   3.482
 1867TIP3    H1 5537   2.338   0.432   3.424
 1867TIP3    H2 5538   2.249   0.342   3.507
 1868TIP3   OH2 5539   2.451   0.116   3.402
 1868TIP3    H1 5540   2.421   0.204   3.423
 1868TIP3    H2 5541   2.432   0.064   3.481
 1869TIP3   OH2 5542   2.653   0.667   3.939
 1869TIP3    H1 5543   2.716   0.683   3.869
 1869TIP3    H2 5544   2.707   0.639   4.013
 1870TIP3   OH2 5545   2.262   0.584   3.330
 1870TIP3    H1 5546   2.178   0.593   3.375
 1870TIP3    H2 5547   2.301   0.672   3.333
 1871TIP3   OH2 5548   2.988   0.354   3.911
 1871TIP3    H1 5549   2.970   0.345   4.004
 1871TIP3    H2 5550   3.072   0.310   3.898
 1872TIP3   OH2 5551   2.990   0.211   2.767
 1872TIP3    H1 5552   3.038   0.190   2.847
 1872TIP3    H2 5553   2.906   0.166   2.777
 1873TIP3   OH2 5554   3.197   0.892   3.964
 1873TIP3    H1 5555   3.171   0.801   3.982
 1873TIP3    H2 5556   3.173   0.905   3.872
 1874TIP3   OH2 5557   3.290   0.688   2.588
 1874TIP3    H1 5558   3.310   0.750   2.518
 1874TIP3    H2 5559   3.216   0.727   2.634
 1875TIP3   OH2 5560   3.144   0.144   2.979
 1875TIP3    H1 5561   3.128   0.091   3.057
 1875TIP3    H2 5562   3.239   0.156   2.977
 1876TIP3   OH2 5563   2.086   0.580   4.111
 1876TIP3    H1 5564   2.141   0.523   4.163
 1876TIP3    H2 5565   2.092   0.665   4.154
 1877TIP3   OH2 5566   2.267   0.208   3.092
 1877TIP3    H1 5567   2.357   0.182   3.111
 1877TIP3    H2 5568   2.271   0.303   3.078
 1878TIP3   OH2 5569   2.533   0.381   3.009
 1878TIP3    H1 5570   2.456   0.424   3.046
 1878TIP3    H2 5571   2.529   0.399   2.915
 1879TIP3   OH2 5572   8.327   7.506   3.480
 1879TIP3    H1 5573   8.389   7.574   3.452
 1879TIP3    H2 5574   8.378   7.425   3.477
 1880TIP3   OH2 5575   0.185   7.765   4.215
 1880TIP3    H1 5576   0.184   7.827   4.288
 1880TIP3    H2 5577   0.274   7.729   4.216
 1881TIP3   OH2 5578   2.286   0.483   3.076
 1881TIP3    H1 5579   2.267   0.556   3.018
 1881TIP3    H2 5580   2.275   0.518   3.165
 1882TIP3   OH2 5581   0.411   7.912   3.597
 1882TIP3    H1 5582   0.333   7.857   3.609
 1882TIP3    H2 5583   0.480   7.867   3.645
 1883TIP3   OH2 5584   3.278   0.837   3.542
 1883TIP3    H1 5585   3.237   0.882   3.468
 1883TIP3    H2 5586   3.371   0.858   3.534
 1884TIP3   OH2 5587   1.920   0.351   3.426
 1884TIP3    H1 5588   1.831   0.375   3.398
 1884TIP3    H2 5589   1.953   0.296   3.355
 1885TIP3   OH2 5590   2.054   0.876   4.531
 1885TIP3    H1 5591   2.139   0.876   4.576
 1885TIP3    H2 5592   2.020   0.787   4.545
 1886TIP3   OH2 5593   2.526   0.801   4.563
 1886TIP3    H1 5594   2.615   0.771   4.580
 1886TIP3    H2 5595   2.496   0.746   4.491
 1887TIP3   OH2 5596   2.495   0.408   2.736
 1887TIP3    H1 5597   2.423   0.348   2.716
 1887TIP3    H2 5598   2.565   0.383   2.676
 1888TIP3   OH2 5599   3.148   0.729   4.320
 1888TIP3    H1 5600   3.157   0.658   4.382
 1888TIP3    H2 5601   3.226   0.783   4.333
 1889TIP3   OH2 5602   2.937   0.435   2.622
 1889TIP3    H1 5603   2.968   0.367   2.681
 1889TIP3    H2 5604   3.000   0.436   2.550
 1890TIP3   OH2 5605   2.196   0.273   4.735
 1890TIP3    H1 5606   2.208   0.178   4.729
 1890TIP3    H2 5607   2.117   0.291   4.683
 1891TIP3   OH2 5608   2.788   0.371   4.497
 1891TIP3    H1 5609   2.742   0.387   4.414
 1891TIP3    H2 5610   2.825   0.284   4.488
 1892TIP3   OH2 5611   2.736   0.099   2.762
 1892TIP3    H1 5612   2.719   0.125   2.853
 1892TIP3    H2 5613   2.708   0.007   2.758
 1893TIP3   OH2 5614   3.243   0.405   4.101
 1893TIP3    H1 5615   3.327   0.428   4.061
 1893TIP3    H2 5616   3.187   0.481   4.084
 1894TIP3   OH2 5617   7.998   8.018   4.708
 1894TIP3    H1 5618   8.078   7.968   4.692
 1894TIP3    H2 5619   8.006   8.047   4.798
 1895TIP3   OH2 5620   8.313   7.951   4.391
 1895TIP3    H1 5621   8.232   8.002   4.390
 1895TIP3    H2 5622   8.354   7.967   4.306
 1896TIP3   OH2 5623   3.141   0.272   4.459
 1896TIP3    H1 5624   3.214   0.243   4.405
 1896TIP3    H2 5625   3.141   0.212   4.533
 1897TIP3   OH2 5626   0.433   7.953   2.633
 1897TIP3    H1 5627   0.419   7.913   2.548
 1897TIP3    H2 5628   0.411   8.045   2.620
 1898TIP3   OH2 5629   8.356   7.709   4.507
 1898TIP3    H1 5630   8.351   7.642   4.439
 1898TIP3    H2 5631   8.348   7.792   4.460
 1899TIP3   OH2 5632   2.774   0.011   4.162
 1899TIP3    H1 5633   2.865   0.032   4.144
 1899TIP3    H2 5634   2.724   0.074   4.110
 1900TIP3   OH2 5635   3.361   0.231   4.277
 1900TIP3    H1 5636   3.310   0.292   4.223
 1900TIP3    H2 5637   3.451   0.243   4.246
 1901TIP3   OH2 5638   8.218   7.842   4.715
 1901TIP3    H1 5639   8.198   7.774   4.779
 1901TIP3    H2 5640   8.270   7.797   4.648
 1902TIP3   OH2 5641   0.125   7.764   4.570
 1902TIP3    H1 5642   0.156   7.707   4.641
 1902TIP3    H2 5643   0.034   7.738   4.557
 1903TIP3   OH2 5644   2.278   0.694   2.897
 1903TIP3    H1 5645   2.372   0.689   2.884
 1903TIP3    H2 5646   2.243   0.730   2.815
 1904TIP3   OH2 5647   1.655   0.642   3.516
 1904TIP3    H1 5648   1.656   0.573   3.450
 1904TIP3    H2 5649   1.697   0.602   3.593
 1905TIP3   OH2 5650   1.790   0.540   3.727
 1905TIP3    H1 5651   1.788   0.453   3.767
 1905TIP3    H2 5652   1.858   0.587   3.775
 1906TIP3   OH2 5653   3.540   0.920   3.533
 1906TIP3    H1 5654   3.577   0.967   3.607
 1906TIP3    H2 5655   3.599   0.940   3.460
 1907TIP3   OH2 5656   3.605   0.611   4.391
 1907TIP3    H1 5657   3.530   0.623   4.449
 1907TIP3    H2 5658   3.649   0.696   4.390
 1908TIP3   OH2 5659   3.419   0.163   2.972
 1908TIP3    H1 5660   3.479   0.232   2.941
 1908TIP3    H2 5661   3.460   0.129   3.051
 1909TIP3   OH2 5662   3.543   0.045   3.184
 1909TIP3    H1 5663   3.480   0.019   3.251
 1909TIP3    H2 5664   3.616   0.084   3.232
 1910TIP3   OH2 5665   3.595   0.397   3.615
 1910TIP3    H1 5666   3.643   0.326   3.573
 1910TIP3    H2 5667   3.600   0.469   3.552
 1911TIP3   OH2 5668   3.410   0.652   3.798
 1911TIP3    H1 5669   3.396   0.746   3.793
 1911TIP3    H2 5670   3.359   0.616   3.725
 1912TIP3   OH2 5671   0.635   7.954   2.822
 1912TIP3    H1 5672   0.566   7.948   2.756
 1912TIP3    H2 5673   0.612   8.031   2.874
 1913TIP3   OH2 5674   0.463   7.633   2.776
 1913TIP3    H1 5675   0.458   7.681   2.693
 1913TIP3    H2 5676   0.428   7.547   2.755
 1914TIP3   OH2 5677   0.523   7.944   3.348
 1914TIP3    H1 5678   0.528   7.851   3.323
 1914TIP3    H2 5679   0.488   7.943   3.436
 1915TIP3   OH2 5680   2.005   0.048   4.073
 1915TIP3    H1 5681   1.992  -0.004   3.994
 1915TIP3    H2 5682   2.093   0.026   4.103
 1916TIP3   OH2 5683   3.617   0.274   4.182
 1916TIP3    H1 5684   3.686   0.209   4.167
 1916TIP3    H2 5685   3.641   0.349   4.128
 1917TIP3   OH2 5686   3.847   0.117   4.177
 1917TIP3    H1 5687   3.786   0.046   4.194
 1917TIP3    H2 5688   3.916   0.107   4.243
 1918TIP3   OH2 5689   0.518   7.701   3.217
 1918TIP3    H1 5690   0.514   7.605   3.215
 1918TIP3    H2 5691   0.560   7.725   3.134
 1919TIP3   OH2 5692   0.636   7.808   3.718
 1919TIP3    H1 5693   0.709   7.832   3.660
 1919TIP3    H2 5694   0.655   7.851   3.801
 1920TIP3   OH2 5695   0.723   7.932   3.940
 1920TIP3    H1 5696   0.657   7.960   4.003
 1920TIP3    H2 5697   0.767   8.012   3.913
 1921TIP3   OH2 5698   7.918   7.617   4.760
 1921TIP3    H1 5699   7.967   7.659   4.831
 1921TIP3    H2 5700   7.910   7.526   4.788
 1922TIP3   OH2 5701   7.636   7.539   4.204
 1922TIP3    H1 5702   7.648   7.605   4.136
 1922TIP3    H2 5703   7.724   7.509   4.225
 1923TIP3   OH2 5704   3.101   0.796   3.159
 1923TIP3    H1 5705   3.155   0.787   3.081
 1923TIP3    H2 5706   3.147   0.861   3.213
 1924TIP3   OH2 5707   2.222   0.595   4.554
 1924TIP3    H1 5708   2.127   0.594   4.551
 1924TIP3    H2 5709   2.243   0.581   4.647
 1925TIP3   OH2 5710   2.414   0.641   4.080
 1925TIP3    H1 5711   2.361   0.714   4.049
 1925TIP3    H2 5712   2.500   0.655   4.041
 1926TIP3   OH2 5713   2.817   0.888   4.215
 1926TIP3    H1 5714   2.854   0.878   4.302
 1926TIP3    H2 5715   2.882   0.940   4.167
 1927TIP3   OH2 5716   3.006   1.052   4.083
 1927TIP3    H1 5717   3.073   0.994   4.046
 1927TIP3    H2 5718   3.054   1.106   4.147
 1928TIP3   OH2 5719   2.068   0.882   4.142
 1928TIP3    H1 5720   1.978   0.904   4.117
 1928TIP3    H2 5721   2.090   0.946   4.209
 1929TIP3   OH2 5722   2.293   0.869   3.985
 1929TIP3    H1 5723   2.213   0.873   4.038
 1929TIP3    H2 5724   2.264   0.894   3.897
 1930TIP3   OH2 5725   2.679   0.918   3.780
 1930TIP3    H1 5726   2.613   0.885   3.719
 1930TIP3    H2 5727   2.636   0.917   3.865
 1931TIP3   OH2 5728   2.947   0.826   3.802
 1931TIP3    H1 5729   2.858   0.858   3.789
 1931TIP3    H2 5730   3.003   0.892   3.761
 1932TIP3   OH2 5731   3.133   1.010   3.699
 1932TIP3    H1 5732   3.142   1.094   3.653
 1932TIP3    H2 5733   3.184   0.948   3.647
 1933TIP3   OH2 5734   2.004   0.670   3.863
 1933TIP3    H1 5735   2.035   0.642   3.949
 1933TIP3    H2 5736   2.066   0.632   3.801
 1934TIP3   OH2 5737   2.190   0.545   3.713
 1934TIP3    H1 5738   2.197   0.460   3.755
 1934TIP3    H2 5739   2.278   0.582   3.718
 1935TIP3   OH2 5740   2.456   0.628   3.742
 1935TIP3    H1 5741   2.473   0.536   3.723
 1935TIP3    H2 5742   2.508   0.646   3.821
 1936TIP3   OH2 5743   1.683   0.453   3.311
 1936TIP3    H1 5744   1.618   0.393   3.274
 1936TIP3    H2 5745   1.687   0.525   3.249
 1937TIP3   OH2 5746   2.542   0.658   2.840
 1937TIP3    H1 5747   2.629   0.677   2.804
 1937TIP3    H2 5748   2.517   0.575   2.799
 1938TIP3   OH2 5749   3.246   0.754   2.926
 1938TIP3    H1 5750   3.237   0.659   2.918
 1938TIP3    H2 5751   3.200   0.788   2.849
 1939TIP3   OH2 5752   4.724   0.276   2.885
 1939TIP3    H1 5753   4.701   0.367   2.864
 1939TIP3    H2 5754   4.655   0.223   2.845
 1940TIP3   OH2 5755   4.744   0.319   3.279
 1940TIP3    H1 5756   4.785   0.303   3.364
 1940TIP3    H2 5757   4.697   0.238   3.259
 1941TIP3   OH2 5758   4.017   0.192   3.622
 1941TIP3    H1 5759   4.042   0.135   3.694
 1941TIP3    H2 5760   4.090   0.254   3.615
 1942TIP3   OH2 5761   5.011   0.587   2.954
 1942TIP3    H1 5762   4.988   0.533   3.029
 1942TIP3    H2 5763   5.033   0.673   2.991
 1943TIP3   OH2 5764   4.019   0.570   3.317
 1943TIP3    H1 5765   4.002   0.476   3.320
 1943TIP3    H2 5766   4.115   0.576   3.311
 1944TIP3   OH2 5767   0.848   7.826   3.133
 1944TIP3    H1 5768   0.803   7.910   3.145
 1944TIP3    H2 5769   0.789   7.775   3.077
 1945TIP3   OH2 5770   3.781   0.127   3.293
 1945TIP3    H1 5771   3.845   0.059   3.316
 1945TIP3    H2 5772   3.834   0.205   3.276
 1946TIP3   OH2 5773   4.658   1.011   2.966
 1946TIP3    H1 5774   4.689   0.947   2.902
 1946TIP3    H2 5775   4.657   0.963   3.049
 1947TIP3   OH2 5776   4.543   0.519   3.291
 1947TIP3    H1 5777   4.590   0.443   3.258
 1947TIP3    H2 5778   4.610   0.576   3.327
 1948TIP3   OH2 5779   4.924   0.050   3.314
 1948TIP3    H1 5780   4.966  -0.035   3.325
 1948TIP3    H2 5781   4.891   0.049   3.224
 1949TIP3   OH2 5782   1.546   7.580   3.247
 1949TIP3    H1 5783   1.485   7.642   3.287
 1949TIP3    H2 5784   1.518   7.495   3.281
 1950TIP3   OH2 5785   2.043   7.723   2.943
 1950TIP3    H1 5786   2.102   7.650   2.926
 1950TIP3    H2 5787   2.022   7.759   2.857
 1951TIP3   OH2 5788   1.149   7.983   3.382
 1951TIP3    H1 5789   1.172   7.964   3.472
 1951TIP3    H2 5790   1.193   7.915   3.331
 1952TIP3   OH2 5791   4.346   0.095   3.205
 1952TIP3    H1 5792   4.442   0.092   3.208
 1952TIP3    H2 5793   4.322   0.016   3.156
 1953TIP3   OH2 5794   5.613   0.067   3.458
 1953TIP3    H1 5795   5.522   0.097   3.463
 1953TIP3    H2 5796   5.646   0.076   3.547
 1954TIP3   OH2 5797   4.618   0.484   2.741
 1954TIP3    H1 5798   4.594   0.468   2.650
 1954TIP3    H2 5799   4.577   0.568   2.762
 1955TIP3   OH2 5800   4.399   0.429   3.510
 1955TIP3    H1 5801   4.337   0.494   3.544
 1955TIP3    H2 5802   4.441   0.472   3.436
 1956TIP3   OH2 5803   1.279   7.816   3.564
 1956TIP3    H1 5804   1.350   7.875   3.588
 1956TIP3    H2 5805   1.306   7.777   3.481
 1957TIP3   OH2 5806   4.223   0.618   3.606
 1957TIP3    H1 5807   4.210   0.708   3.577
 1957TIP3    H2 5808   4.144   0.599   3.658
 1958TIP3   OH2 5809   3.597   0.343   2.856
 1958TIP3    H1 5810   3.558   0.369   2.772
 1958TIP3    H2 5811   3.622   0.426   2.897
 1959TIP3   OH2 5812   5.047   0.827   3.096
 1959TIP3    H1 5813   4.961   0.818   3.137
 1959TIP3    H2 5814   5.044   0.912   3.052
 1960TIP3   OH2 5815   4.755   0.860   2.754
 1960TIP3    H1 5816   4.805   0.779   2.741
 1960TIP3    H2 5817   4.815   0.930   2.728
 1961TIP3   OH2 5818   4.903   0.638   2.705
 1961TIP3    H1 5819   4.889   0.556   2.657
 1961TIP3    H2 5820   4.944   0.612   2.787
 1962TIP3   OH2 5821   5.285   0.721   3.454
 1962TIP3    H1 5822   5.263   0.649   3.395
 1962TIP3    H2 5823   5.267   0.800   3.403
 1963TIP3   OH2 5824   4.560   0.129   2.716
 1963TIP3    H1 5825   4.480   0.176   2.693
 1963TIP3    H2 5826   4.606   0.119   2.632
 1964TIP3   OH2 5827   1.698   7.956   2.414
 1964TIP3    H1 5828   1.771   8.005   2.454
 1964TIP3    H2 5829   1.722   7.864   2.424
 1965TIP3   OH2 5830   5.453   0.401   3.313
 1965TIP3    H1 5831   5.368   0.445   3.310
 1965TIP3    H2 5832   5.485   0.405   3.223
 1966TIP3   OH2 5833   4.906   0.230   2.680
 1966TIP3    H1 5834   4.846   0.251   2.752
 1966TIP3    H2 5835   4.993   0.233   2.719
 1967TIP3   OH2 5836   5.151   0.286   3.588
 1967TIP3    H1 5837   5.135   0.360   3.646
 1967TIP3    H2 5838   5.065   0.265   3.552
 1968TIP3   OH2 5839   4.129   0.203   3.070
 1968TIP3    H1 5840   4.098   0.136   3.009
 1968TIP3    H2 5841   4.204   0.163   3.114
 1969TIP3   OH2 5842   4.284   0.613   3.222
 1969TIP3    H1 5843   4.264   0.597   3.129
 1969TIP3    H2 5844   4.373   0.580   3.233
 1970TIP3   OH2 5845   4.252   0.209   3.437
 1970TIP3    H1 5846   4.286   0.176   3.354
 1970TIP3    H2 5847   4.304   0.288   3.455
 1971TIP3   OH2 5848   4.812   0.818   3.232
 1971TIP3    H1 5849   4.794   0.902   3.275
 1971TIP3    H2 5850   4.794   0.752   3.299
 1972TIP3   OH2 5851   4.419   0.717   3.776
 1972TIP3    H1 5852   4.359   0.776   3.822
 1972TIP3    H2 5853   4.362   0.664   3.720
 1973TIP3   OH2 5854   4.760   0.059   2.520
 1973TIP3    H1 5855   4.813   0.123   2.567
 1973TIP3    H2 5856   4.789   0.066   2.429
 1974TIP3   OH2 5857   4.182   0.308   3.872
 1974TIP3    H1 5858   4.188   0.394   3.913
 1974TIP3    H2 5859   4.097   0.274   3.901
 1975TIP3   OH2 5860   4.506   0.738   2.756
 1975TIP3    H1 5861   4.590   0.785   2.763
 1975TIP3    H2 5862   4.448   0.800   2.710
 1976TIP3   OH2 5863   4.215   0.880   3.860
 1976TIP3    H1 5864   4.189   0.892   3.768
 1976TIP3    H2 5865   4.133   0.864   3.906
 1977TIP3   OH2 5866   4.010   0.032   2.865
 1977TIP3    H1 5867   3.939   0.091   2.837
 1977TIP3    H2 5868   3.964  -0.043   2.902
 1978TIP3   OH2 5869   5.076   0.675   2.129
 1978TIP3    H1 5870   5.119   0.757   2.104
 1978TIP3    H2 5871   5.147   0.610   2.130
 1979TIP3   OH2 5872   3.804   0.434   3.802
 1979TIP3    H1 5873   3.726   0.425   3.747
 1979TIP3    H2 5874   3.835   0.344   3.815
 1980TIP3   OH2 5875   3.669   0.616   3.451
 1980TIP3    H1 5876   3.764   0.613   3.441
 1980TIP3    H2 5877   3.653   0.689   3.512
 1981TIP3   OH2 5878   5.512   1.098   3.506
 1981TIP3    H1 5879   5.520   1.003   3.514
 1981TIP3    H2 5880   5.431   1.119   3.552
 1982TIP3   OH2 5881   4.610   0.857   3.636
 1982TIP3    H1 5882   4.604   0.948   3.664
 1982TIP3    H2 5883   4.541   0.812   3.685
 1983TIP3   OH2 5884   4.394   0.954   2.591
 1983TIP3    H1 5885   4.354   0.933   2.507
 1983TIP3    H2 5886   4.354   1.037   2.616
 1984TIP3   OH2 5887   3.825   0.822   2.968
 1984TIP3    H1 5888   3.869   0.816   3.052
 1984TIP3    H2 5889   3.777   0.740   2.960
 1985TIP3   OH2 5890   4.585   0.896   2.222
 1985TIP3    H1 5891   4.643   0.841   2.170
 1985TIP3    H2 5892   4.633   0.909   2.305
 1986TIP3   OH2 5893   4.652   0.944   2.492
 1986TIP3    H1 5894   4.564   0.941   2.531
 1986TIP3    H2 5895   4.709   0.910   2.561
 1987TIP3   OH2 5896   5.390   0.216   3.738
 1987TIP3    H1 5897   5.319   0.274   3.709
 1987TIP3    H2 5898   5.372   0.133   3.693
 1988TIP3   OH2 5899   3.998   0.624   3.766
 1988TIP3    H1 5900   4.042   0.632   3.851
 1988TIP3    H2 5901   3.929   0.560   3.780
 1989TIP3   OH2 5902   2.462   7.982   3.668
 1989TIP3    H1 5903   2.395   7.978   3.737
 1989TIP3    H2 5904   2.414   7.960   3.588
 1990TIP3   OH2 5905   4.833   0.070   2.258
 1990TIP3    H1 5906   4.777   0.073   2.181
 1990TIP3    H2 5907   4.908   0.124   2.235
 1991TIP3   OH2 5908   4.285   0.013   3.622
 1991TIP3    H1 5909   4.224   0.026   3.695
 1991TIP3    H2 5910   4.260   0.080   3.558
 1992TIP3   OH2 5911   1.368   7.918   3.070
 1992TIP3    H1 5912   1.274   7.899   3.063
 1992TIP3    H2 5913   1.405   7.884   2.988
 1993TIP3   OH2 5914   1.849   7.959   2.874
 1993TIP3    H1 5915   1.791   8.020   2.829
 1993TIP3    H2 5916   1.916   7.938   2.809
 1994TIP3   OH2 5917   4.864   0.252   3.909
 1994TIP3    H1 5918   4.842   0.166   3.945
 1994TIP3    H2 5919   4.959   0.258   3.918
 1995TIP3   OH2 5920   4.829   0.081   3.055
 1995TIP3    H1 5921   4.802   0.168   3.027
 1995TIP3    H2 5922   4.773   0.021   3.005
 1996TIP3   OH2 5923   1.259   8.018   3.816
 1996TIP3    H1 5924   1.206   8.076   3.870
 1996TIP3    H2 5925   1.239   7.930   3.848
 1997TIP3   OH2 5926   0.935   7.634   2.899
 1997TIP3    H1 5927   1.030   7.648   2.900
 1997TIP3    H2 5928   0.914   7.600   2.986
 1998TIP3   OH2 5929   4.890   0.231   3.507
 1998TIP3    H1 5930   4.910   0.167   3.438
 1998TIP3    H2 5931   4.856   0.178   3.579
 1999TIP3   OH2 5932   1.117   7.811   3.078
 1999TIP3    H1 5933   1.024   7.828   3.095
 1999TIP3    H2 5934   1.125   7.716   3.083
 2000TIP3   OH2 5935   1.453   7.784   2.846
 2000TIP3    H1 5936   1.546   7.771   2.827
 2000TIP3    H2 5937   1.413   7.800   2.761
 2001TIP3   OH2 5938   1.296   7.772   2.624
 2001TIP3    H1 5939   1.212   7.755   2.581
 2001TIP3    H2 5940   1.347   7.820   2.560
 2002TIP3   OH2 5941   5.220   1.422   3.600
 2002TIP3    H1 5942   5.214   1.442   3.506
 2002TIP3    H2 5943   5.298   1.470   3.629
 2003TIP3   OH2 5944   4.172   0.559   4.003
 2003TIP3    H1 5945   4.251   0.568   4.057
 2003TIP3    H2 5946   4.100   0.558   4.066
 2004TIP3   OH2 5947   4.613   0.079   3.264
 2004TIP3    H1 5948   4.670   0.007   3.236
 2004TIP3    H2 5949   4.597   0.063   3.357
 2005TIP3   OH2 5950   4.538   0.042   3.526
 2005TIP3    H1 5951   4.454   0.029   3.568
 2005TIP3    H2 5952   4.576   0.119   3.569
 2006TIP3   OH2 5953   4.333   0.269   2.646
 2006TIP3    H1 5954   4.257   0.216   2.623
 2006TIP3    H2 5955   4.310   0.310   2.730
 2007TIP3   OH2 5956   5.219   0.534   3.269
 2007TIP3    H1 5957   5.253   0.583   3.194
 2007TIP3    H2 5958   5.132   0.505   3.242
 2008TIP3   OH2 5959   1.803   7.708   2.440
 2008TIP3    H1 5960   1.762   7.625   2.465
 2008TIP3    H2 5961   1.894   7.699   2.468
 2009TIP3   OH2 5962   4.728   0.576   3.688
 2009TIP3    H1 5963   4.781   0.579   3.768
 2009TIP3    H2 5964   4.684   0.661   3.686
 2010TIP3   OH2 5965   2.051   7.884   2.705
 2010TIP3    H1 5966   2.140   7.918   2.703
 2010TIP3    H2 5967   2.012   7.914   2.623
 2011TIP3   OH2 5968   4.007   0.293   3.302
 2011TIP3    H1 5969   4.046   0.268   3.219
 2011TIP3    H2 5970   4.059   0.247   3.368
 2012TIP3   OH2 5971   4.502   0.423   2.487
 2012TIP3    H1 5972   4.452   0.504   2.484
 2012TIP3    H2 5973   4.448   0.364   2.540
 2013TIP3   OH2 5974   3.921   0.185   3.926
 2013TIP3    H1 5975   3.915   0.178   4.022
 2013TIP3    H2 5976   3.834   0.161   3.894
 2014TIP3   OH2 5977   4.619   0.360   3.966
 2014TIP3    H1 5978   4.556   0.293   3.939
 2014TIP3    H2 5979   4.703   0.328   3.934
 2015TIP3   OH2 5980   4.880   0.883   3.562
 2015TIP3    H1 5981   4.786   0.868   3.567
 2015TIP3    H2 5982   4.903   0.921   3.647
 2016TIP3   OH2 5983   2.414   7.985   2.451
 2016TIP3    H1 5984   2.348   7.941   2.398
 2016TIP3    H2 5985   2.423   8.072   2.411
 2017TIP3   OH2 5986   5.532   0.822   3.527
 2017TIP3    H1 5987   5.439   0.799   3.534
 2017TIP3    H2 5988   5.560   0.783   3.444
 2018TIP3   OH2 5989   5.004   0.738   2.391
 2018TIP3    H1 5990   4.977   0.663   2.444
 2018TIP3    H2 5991   5.026   0.700   2.306
 2019TIP3   OH2 5992   4.977   0.433   3.183
 2019TIP3    H1 5993   4.889   0.406   3.209
 2019TIP3    H2 5994   5.015   0.354   3.144
 2020TIP3   OH2 5995   4.148   0.614   2.974
 2020TIP3    H1 5996   4.142   0.690   2.916
 2020TIP3    H2 5997   4.060   0.606   3.011
 2021TIP3   OH2 5998   0.884   7.930   2.715
 2021TIP3    H1 5999   0.926   8.017   2.718
 2021TIP3    H2 6000   0.802   7.942   2.764
 2022TIP3   OH2 6001   4.233   0.372   2.875
 2022TIP3    H1 6002   4.218   0.462   2.904
 2022TIP3    H2 6003   4.198   0.318   2.945
 2023TIP3   OH2 6004   4.429   0.934   3.427
 2023TIP3    H1 6005   4.464   1.009   3.379
 2023TIP3    H2 6006   4.502   0.902   3.480
 2024TIP3   OH2 6007   4.060   0.835   2.824
 2024TIP3    H1 6008   3.973   0.843   2.863
 2024TIP3    H2 6009   4.097   0.923   2.829
 2025TIP3   OH2 6010   4.781   0.607   3.414
 2025TIP3    H1 6011   4.768   0.592   3.508
 2025TIP3    H2 6012   4.862   0.561   3.393
 2026TIP3   OH2 6013   4.748   0.490   2.297
 2026TIP3    H1 6014   4.812   0.472   2.365
 2026TIP3    H2 6015   4.664   0.471   2.337
 2027TIP3   OH2 6016   5.034   1.095   3.441
 2027TIP3    H1 6017   4.961   1.035   3.458
 2027TIP3    H2 6018   5.002   1.150   3.370
 2028TIP3   OH2 6019   4.933   0.432   2.492
 2028TIP3    H1 6020   4.916   0.359   2.551
 2028TIP3    H2 6021   5.027   0.430   2.478
 2029TIP3   OH2 6022   3.843   0.804   3.597
 2029TIP3    H1 6023   3.899   0.744   3.647
 2029TIP3    H2 6024   3.847   0.886   3.646
 2030TIP3   OH2 6025   4.121   0.414   2.282
 2030TIP3    H1 6026   4.212   0.385   2.270
 2030TIP3    H2 6027   4.119   0.448   2.372
 2031TIP3   OH2 6028   4.074   0.461   2.554
 2031TIP3    H1 6029   4.139   0.434   2.619
 2031TIP3    H2 6030   4.071   0.556   2.560
 2032TIP3   OH2 6031   3.800   0.178   2.765
 2032TIP3    H1 6032   3.733   0.224   2.816
 2032TIP3    H2 6033   3.818   0.235   2.691
 2033TIP3   OH2 6034   4.334   0.634   2.478
 2033TIP3    H1 6035   4.256   0.663   2.525
 2033TIP3    H2 6036   4.354   0.705   2.417
 2034TIP3   OH2 6037   1.723   7.721   2.830
 2034TIP3    H1 6038   1.759   7.803   2.866
 2034TIP3    H2 6039   1.716   7.663   2.906
 2035TIP3   OH2 6040   4.785   0.064   3.701
 2035TIP3    H1 6041   4.730   0.136   3.731
 2035TIP3    H2 6042   4.826   0.030   3.781
 2036TIP3   OH2 6043   4.092   0.731   2.573
 2036TIP3    H1 6044   4.069   0.802   2.513
 2036TIP3    H2 6045   4.081   0.768   2.660
 2037TIP3   OH2 6046   5.074   0.202   3.073
 2037TIP3    H1 6047   4.996   0.147   3.077
 2037TIP3    H2 6048   5.139   0.157   3.126
 2038TIP3   OH2 6049   3.819   0.344   2.544
 2038TIP3    H1 6050   3.887   0.410   2.559
 2038TIP3    H2 6051   3.854   0.289   2.474
 2039TIP3   OH2 6052   0.733   7.733   2.595
 2039TIP3    H1 6053   0.784   7.799   2.643
 2039TIP3    H2 6054   0.735   7.657   2.652
 2040TIP3   OH2 6055   5.062   1.091   3.013
 2040TIP3    H1 6056   5.017   1.145   2.948
 2040TIP3    H2 6057   5.155   1.106   2.997
 2041TIP3   OH2 6058   3.649   0.602   2.949
 2041TIP3    H1 6059   3.609   0.638   3.028
 2041TIP3    H2 6060   3.604   0.645   2.877
 2042TIP3   OH2 6061   4.327   1.031   4.064
 2042TIP3    H1 6062   4.418   1.002   4.064
 2042TIP3    H2 6063   4.286   0.984   3.991
 2043TIP3   OH2 6064   4.239   0.669   2.167
 2043TIP3    H1 6065   4.219   0.577   2.183
 2043TIP3    H2 6066   4.245   0.676   2.071
 2044TIP3   OH2 6067   4.942   0.983   3.809
 2044TIP3    H1 6068   4.956   0.916   3.877
 2044TIP3    H2 6069   5.014   1.045   3.822
 2045TIP3   OH2 6070   4.766   0.700   2.113
 2045TIP3    H1 6071   4.751   0.632   2.178
 2045TIP3    H2 6072   4.857   0.727   2.127
 2046TIP3   OH2 6073   3.970   0.537   4.195
 2046TIP3    H1 6074   4.004   0.448   4.201
 2046TIP3    H2 6075   3.882   0.527   4.159
 2047TIP3   OH2 6076   3.980   0.194   2.376
 2047TIP3    H1 6077   4.027   0.163   2.453
 2047TIP3    H2 6078   4.025   0.275   2.351
 2048TIP3   OH2 6079   4.575   0.630   3.982
 2048TIP3    H1 6080   4.524   0.652   3.905
 2048TIP3    H2 6081   4.599   0.539   3.971
 2049TIP3   OH2 6082   4.377   0.339   2.251
 2049TIP3    H1 6083   4.433   0.366   2.324
 2049TIP3    H2 6084   4.418   0.258   2.219
 2050TIP3   OH2 6085   5.046   0.661   3.588
 2050TIP3    H1 6086   5.126   0.692   3.545
 2050TIP3    H2 6087   4.982   0.731   3.574
 2051TIP3   OH2 6088   4.140   0.303   4.179
 2051TIP3    H1 6089   4.219   0.249   4.168
 2051TIP3    H2 6090   4.140   0.326   4.272
 2052TIP3   OH2 6091   4.116   0.101   2.603
 2052TIP3    H1 6092   4.088   0.068   2.688
 2052TIP3    H2 6093   4.163   0.028   2.563
 2053TIP3   OH2 6094   4.428   0.180   3.851
 2053TIP3    H1 6095   4.342   0.222   3.862
 2053TIP3    H2 6096   4.466   0.223   3.774
 2054TIP3   OH2 6097   1.428   7.932   2.454
 2054TIP3    H1 6098   1.396   7.923   2.365
 2054TIP3    H2 6099   1.522   7.947   2.444
 2055TIP3   OH2 6100   4.920   0.551   3.938
 2055TIP3    H1 6101   4.985   0.508   3.882
 2055TIP3    H2 6102   4.913   0.495   4.015
 2056TIP3   OH2 6103   5.047   0.183   2.130
 2056TIP3    H1 6104   5.036   0.147   2.042
 2056TIP3    H2 6105   5.019   0.274   2.121
 2057TIP3   OH2 6106   1.721   7.944   3.872
 2057TIP3    H1 6107   1.665   7.879   3.830
 2057TIP3    H2 6108   1.676   8.027   3.859
 2058TIP3   OH2 6109   4.593   0.295   3.652
 2058TIP3    H1 6110   4.659   0.362   3.667
 2058TIP3    H2 6111   4.524   0.339   3.602
 2059TIP3   OH2 6112   5.133   0.219   3.974
 2059TIP3    H1 6113   5.127   0.200   4.068
 2059TIP3    H2 6114   5.195   0.291   3.968
 2060TIP3   OH2 6115   5.167   0.500   3.767
 2060TIP3    H1 6116   5.111   0.559   3.715
 2060TIP3    H2 6117   5.255   0.514   3.732
 2061TIP3   OH2 6118   4.368   0.110   4.215
 2061TIP3    H1 6119   4.294   0.052   4.233
 2061TIP3    H2 6120   4.438   0.051   4.188
 2062TIP3   OH2 6121   1.964   8.016   3.986
 2062TIP3    H1 6122   1.975   7.997   4.079
 2062TIP3    H2 6123   1.879   7.979   3.963
 2063TIP3   OH2 6124   4.076   0.936   2.390
 2063TIP3    H1 6125   4.167   0.918   2.367
 2063TIP3    H2 6126   4.041   0.988   2.318
 2064TIP3   OH2 6127   3.545   0.327   2.547
 2064TIP3    H1 6128   3.640   0.341   2.553
 2064TIP3    H2 6129   3.536   0.237   2.516
 2065TIP3   OH2 6130   3.449   0.905   3.033
 2065TIP3    H1 6131   3.386   0.853   2.984
 2065TIP3    H2 6132   3.492   0.842   3.091
 2066TIP3   OH2 6133   3.595   0.737   3.199
 2066TIP3    H1 6134   3.587   0.669   3.266
 2066TIP3    H2 6135   3.647   0.806   3.240
 2067TIP3   OH2 6136   5.332   1.146   3.006
 2067TIP3    H1 6137   5.346   1.175   3.097
 2067TIP3    H2 6138   5.380   1.209   2.953
 2068TIP3   OH2 6139   5.344   1.179   3.285
 2068TIP3    H1 6140   5.298   1.094   3.283
 2068TIP3    H2 6141   5.415   1.166   3.347
 2069TIP3   OH2 6142   5.404   0.878   3.851
 2069TIP3    H1 6143   5.330   0.887   3.911
 2069TIP3    H2 6144   5.450   0.962   3.857
 2070TIP3   OH2 6145   5.206   0.419   2.466
 2070TIP3    H1 6146   5.263   0.489   2.433
 2070TIP3    H2 6147   5.253   0.382   2.540
 2071TIP3   OH2 6148   5.353   0.307   2.663
 2071TIP3    H1 6149   5.285   0.292   2.729
 2071TIP3    H2 6150   5.424   0.350   2.712
 2072TIP3   OH2 6151   5.404   0.661   3.104
 2072TIP3    H1 6152   5.445   0.593   3.050
 2072TIP3    H2 6153   5.404   0.739   3.048
 2073TIP3   OH2 6154   5.209   0.934   3.298
 2073TIP3    H1 6155   5.140   0.981   3.345
 2073TIP3    H2 6156   5.164   0.894   3.223
 2074TIP3   OH2 6157   5.251   0.200   2.308
 2074TIP3    H1 6158   5.182   0.199   2.241
 2074TIP3    H2 6159   5.238   0.283   2.354
 2075TIP3   OH2 6160   2.241   7.897   2.250
 2075TIP3    H1 6161   2.215   7.978   2.207
 2075TIP3    H2 6162   2.253   7.835   2.177
 2076TIP3   OH2 6163   5.147   0.214   2.812
 2076TIP3    H1 6164   5.157   0.120   2.798
 2076TIP3    H2 6165   5.127   0.222   2.906
 2077TIP3   OH2 6166   3.756   0.178   3.560
 2077TIP3    H1 6167   3.748   0.156   3.468
 2077TIP3    H2 6168   3.849   0.190   3.574
 2078TIP3   OH2 6169   5.416   0.534   3.656
 2078TIP3    H1 6170   5.492   0.479   3.639
 2078TIP3    H2 6171   5.409   0.589   3.578
 2079TIP3   OH2 6172   5.626   0.357   3.663
 2079TIP3    H1 6173   5.566   0.286   3.685
 2079TIP3    H2 6174   5.695   0.353   3.729
 2080TIP3   OH2 6175   2.317   7.967   2.718
 2080TIP3    H1 6176   2.375   7.896   2.748
 2080TIP3    H2 6177   2.346   7.985   2.628
 2081TIP3   OH2 6178   5.276   0.082   3.203
 2081TIP3    H1 6179   5.353   0.118   3.159
 2081TIP3    H2 6180   5.289   0.101   3.295
 2082TIP3   OH2 6181   5.359   0.179   3.443
 2082TIP3    H1 6182   5.284   0.209   3.494
 2082TIP3    H2 6183   5.396   0.259   3.405
 2083TIP3   OH2 6184   1.075   7.845   4.250
 2083TIP3    H1 6185   1.127   7.770   4.220
 2083TIP3    H2 6186   1.026   7.812   4.326
 2084TIP3   OH2 6187   0.882   7.884   3.613
 2084TIP3    H1 6188   0.924   7.855   3.532
 2084TIP3    H2 6189   0.929   7.963   3.638
 2085TIP3   OH2 6190   4.905   1.058   2.649
 2085TIP3    H1 6191   4.954   1.042   2.569
 2085TIP3    H2 6192   4.946   1.136   2.687
 2086TIP3   OH2 6193   3.981   0.848   4.003
 2086TIP3    H1 6194   3.900   0.898   3.991
 2086TIP3    H2 6195   3.982   0.826   4.096
 2087TIP3   OH2 6196   4.201   0.894   3.576
 2087TIP3    H1 6197   4.148   0.969   3.547
 2087TIP3    H2 6198   4.285   0.906   3.532
 2088TIP3   OH2 6199   4.600   1.124   3.710
 2088TIP3    H1 6200   4.636   1.120   3.799
 2088TIP3    H2 6201   4.661   1.180   3.663
 2089TIP3   OH2 6202   4.790   1.286   3.589
 2089TIP3    H1 6203   4.855   1.236   3.540
 2089TIP3    H2 6204   4.842   1.344   3.645
 2090TIP3   OH2 6205   3.852   1.108   3.594
 2090TIP3    H1 6206   3.783   1.157   3.549
 2090TIP3    H2 6207   3.826   1.107   3.686
 2091TIP3   OH2 6208   4.096   1.128   3.473
 2091TIP3    H1 6209   4.012   1.126   3.520
 2091TIP3    H2 6210   4.072   1.151   3.383
 2092TIP3   OH2 6211   4.505   1.146   3.265
 2092TIP3    H1 6212   4.431   1.157   3.205
 2092TIP3    H2 6213   4.515   1.232   3.307
 2093TIP3   OH2 6214   4.768   1.079   3.312
 2093TIP3    H1 6215   4.676   1.101   3.294
 2093TIP3    H2 6216   4.818   1.147   3.268
 2094TIP3   OH2 6217   4.969   1.251   3.217
 2094TIP3    H1 6218   4.969   1.339   3.179
 2094TIP3    H2 6219   4.998   1.194   3.146
 2095TIP3   OH2 6220   3.765   0.914   3.348
 2095TIP3    H1 6221   3.793   0.891   3.437
 2095TIP3    H2 6222   3.837   0.886   3.292
 2096TIP3   OH2 6223   3.970   0.810   3.201
 2096TIP3    H1 6224   3.980   0.726   3.246
 2096TIP3    H2 6225   4.056   0.851   3.206
 2097TIP3   OH2 6226   4.239   0.889   3.227
 2097TIP3    H1 6227   4.256   0.795   3.214
 2097TIP3    H2 6228   4.293   0.913   3.302
 2098TIP3   OH2 6229   3.530   0.716   2.730
 2098TIP3    H1 6230   3.446   0.686   2.696
 2098TIP3    H2 6231   3.538   0.806   2.698
 2099TIP3   OH2 6232   4.334   0.870   2.323
 2099TIP3    H1 6233   4.418   0.894   2.285
 2099TIP3    H2 6234   4.296   0.807   2.260
 2100TIP3   OH2 6235   5.050   1.005   2.417
 2100TIP3    H1 6236   5.036   0.911   2.411
 2100TIP3    H2 6237   5.006   1.041   2.340
 2101TIP3   OH2 6238   3.634   0.711   2.392
 2101TIP3    H1 6239   3.635   0.730   2.485
 2101TIP3    H2 6240   3.718   0.667   2.375
 2102TIP3   OH2 6241   5.258   1.150   3.602
 2102TIP3    H1 6242   5.183   1.118   3.552
 2102TIP3    H2 6243   5.243   1.244   3.610
 2103TIP3   OH2 6244   6.525   0.511   2.370
 2103TIP3    H1 6245   6.503   0.603   2.355
 2103TIP3    H2 6246   6.457   0.463   2.322
 2104TIP3   OH2 6247   6.527   0.565   2.746
 2104TIP3    H1 6248   6.567   0.543   2.830
 2104TIP3    H2 6249   6.492   0.482   2.714
 2105TIP3   OH2 6250   5.819   0.453   3.106
 2105TIP3    H1 6251   5.840   0.394   3.179
 2105TIP3    H2 6252   5.895   0.511   3.100
 2106TIP3   OH2 6253   6.800   0.851   2.437
 2106TIP3    H1 6254   6.776   0.793   2.509
 2106TIP3    H2 6255   6.824   0.933   2.480
 2107TIP3   OH2 6256   5.827   0.828   2.813
 2107TIP3    H1 6257   5.806   0.735   2.813
 2107TIP3    H2 6258   5.921   0.832   2.795
 2108TIP3   OH2 6259   5.472   0.068   2.612
 2108TIP3    H1 6260   5.433   0.155   2.626
 2108TIP3    H2 6261   5.412   0.024   2.553
 2109TIP3   OH2 6262   5.581   0.392   2.789
 2109TIP3    H1 6263   5.641   0.320   2.809
 2109TIP3    H2 6264   5.639   0.466   2.770
 2110TIP3   OH2 6265   6.456   1.264   2.452
 2110TIP3    H1 6266   6.485   1.199   2.387
 2110TIP3    H2 6267   6.451   1.216   2.534
 2111TIP3   OH2 6268   6.334   0.765   2.772
 2111TIP3    H1 6269   6.379   0.687   2.738
 2111TIP3    H2 6270   6.405   0.823   2.801
 2112TIP3   OH2 6271   6.725   0.271   2.807
 2112TIP3    H1 6272   6.726   0.175   2.803
 2112TIP3    H2 6273   6.707   0.299   2.718
 2113TIP3   OH2 6274   3.334   7.838   2.753
 2113TIP3    H1 6275   3.259   7.895   2.770
 2113TIP3    H2 6276   3.301   7.749   2.768
 2114TIP3   OH2 6277   0.725   2.476   1.928
 2114TIP3    H1 6278   0.694   2.498   2.017
 2114TIP3    H2 6279   0.789   2.544   1.908
 2115TIP3   OH2 6280   5.754   0.200   2.875
 2115TIP3    H1 6281   5.798   0.181   2.958
 2115TIP3    H2 6282   5.817   0.171   2.808
 2116TIP3   OH2 6283   6.153   0.345   2.683
 2116TIP3    H1 6284   6.249   0.340   2.683
 2116TIP3    H2 6285   6.126   0.270   2.630
 2117TIP3   OH2 6286   7.364   0.266   2.944
 2117TIP3    H1 6287   7.289   0.324   2.955
 2117TIP3    H2 6288   7.416   0.279   3.023
 2118TIP3   OH2 6289   6.412   0.736   2.245
 2118TIP3    H1 6290   6.392   0.720   2.153
 2118TIP3    H2 6291   6.367   0.818   2.265
 2119TIP3   OH2 6292   6.190   0.689   2.994
 2119TIP3    H1 6293   6.129   0.756   3.026
 2119TIP3    H2 6294   6.231   0.728   2.917
 2120TIP3   OH2 6295   5.924   0.057   3.046
 2120TIP3    H1 6296   5.996   0.120   3.050
 2120TIP3    H2 6297   5.937   0.011   2.964
 2121TIP3   OH2 6298   6.019   0.882   3.094
 2121TIP3    H1 6299   6.005   0.971   3.062
 2121TIP3    H2 6300   5.940   0.861   3.144
 2122TIP3   OH2 6301   5.401   0.589   2.373
 2122TIP3    H1 6302   5.363   0.596   2.285
 2122TIP3    H2 6303   5.431   0.678   2.393
 2123TIP3   OH2 6304   6.845   1.087   2.584
 2123TIP3    H1 6305   6.758   1.077   2.623
 2123TIP3    H2 6306   6.842   1.171   2.538
 2124TIP3   OH2 6307   6.547   1.106   2.241
 2124TIP3    H1 6308   6.600   1.028   2.226
 2124TIP3    H2 6309   6.604   1.179   2.215
 2125TIP3   OH2 6310   6.707   0.894   2.179
 2125TIP3    H1 6311   6.692   0.810   2.137
 2125TIP3    H2 6312   6.744   0.872   2.265
 2126TIP3   OH2 6313   7.061   0.975   2.945
 2126TIP3    H1 6314   7.051   0.902   2.884
 2126TIP3    H2 6315   7.041   1.053   2.893
 2127TIP3   OH2 6316   6.361   0.377   2.195
 2127TIP3    H1 6317   6.280   0.425   2.177
 2127TIP3    H2 6318   6.399   0.361   2.109
 2128TIP3   OH2 6319   7.244   0.642   2.778
 2128TIP3    H1 6320   7.161   0.689   2.771
 2128TIP3    H2 6321   7.284   0.649   2.691
 2129TIP3   OH2 6322   6.722   0.446   2.183
 2129TIP3    H1 6323   6.668   0.470   2.258
 2129TIP3    H2 6324   6.803   0.413   2.221
 2130TIP3   OH2 6325   6.929   0.577   3.070
 2130TIP3    H1 6326   6.886   0.662   3.057
 2130TIP3    H2 6327   6.863   0.513   3.043
 2131TIP3   OH2 6328   5.932   0.464   2.560
 2131TIP3    H1 6329   5.890   0.401   2.502
 2131TIP3    H2 6330   6.010   0.419   2.592
 2132TIP3   OH2 6331   6.081   0.868   2.703
 2132TIP3    H1 6332   6.056   0.854   2.612
 2132TIP3    H2 6333   6.169   0.831   2.710
 2133TIP3   OH2 6334   6.051   0.468   2.907
 2133TIP3    H1 6335   6.090   0.433   2.828
 2133TIP3    H2 6336   6.104   0.545   2.929
 2134TIP3   OH2 6337   6.607   1.078   2.714
 2134TIP3    H1 6338   6.588   1.157   2.764
 2134TIP3    H2 6339   6.591   1.006   2.776
 2135TIP3   OH2 6340   6.212   0.979   3.264
 2135TIP3    H1 6341   6.154   1.038   3.311
 2135TIP3    H2 6342   6.154   0.931   3.205
 2136TIP3   OH2 6343   6.566   0.310   2.002
 2136TIP3    H1 6344   6.625   0.358   2.060
 2136TIP3    H2 6345   6.581   0.350   1.916
 2137TIP3   OH2 6346   5.972   0.561   3.358
 2137TIP3    H1 6347   5.970   0.648   3.397
 2137TIP3    H2 6348   5.884   0.526   3.374
 2138TIP3   OH2 6349   6.296   0.992   2.251
 2138TIP3    H1 6350   6.381   1.036   2.254
 2138TIP3    H2 6351   6.238   1.055   2.208
 2139TIP3   OH2 6352   6.016   1.148   3.366
 2139TIP3    H1 6353   5.992   1.160   3.274
 2139TIP3    H2 6354   5.934   1.127   3.410
 2140TIP3   OH2 6355   5.789   0.297   2.386
 2140TIP3    H1 6356   5.718   0.348   2.346
 2140TIP3    H2 6357   5.749   0.212   2.405
 2141TIP3   OH2 6358   6.796   0.920   1.662
 2141TIP3    H1 6359   6.830   1.007   1.638
 2141TIP3    H2 6360   6.870   0.861   1.647
 2142TIP3   OH2 6361   5.605   0.697   3.296
 2142TIP3    H1 6362   5.534   0.681   3.234
 2142TIP3    H2 6363   5.639   0.610   3.317
 2143TIP3   OH2 6364   5.446   0.895   2.959
 2143TIP3    H1 6365   5.535   0.925   2.978
 2143TIP3    H2 6366   5.391   0.971   2.979
 2144TIP3   OH2 6367   7.300   1.353   2.989
 2144TIP3    H1 6368   7.303   1.257   2.990
 2144TIP3    H2 6369   7.220   1.375   3.037
 2145TIP3   OH2 6370   6.409   1.116   3.127
 2145TIP3    H1 6371   6.407   1.206   3.158
 2145TIP3    H2 6372   6.339   1.072   3.175
 2146TIP3   OH2 6373   6.187   1.217   2.085
 2146TIP3    H1 6374   6.144   1.203   2.001
 2146TIP3    H2 6375   6.152   1.301   2.116
 2147TIP3   OH2 6376   5.626   1.076   2.451
 2147TIP3    H1 6377   5.663   1.066   2.539
 2147TIP3    H2 6378   5.570   0.999   2.439
 2148TIP3   OH2 6379   6.375   1.143   1.720
 2148TIP3    H1 6380   6.430   1.076   1.678
 2148TIP3    H2 6381   6.417   1.157   1.805
 2149TIP3   OH2 6382   6.441   1.193   1.983
 2149TIP3    H1 6383   6.356   1.196   2.027
 2149TIP3    H2 6384   6.500   1.155   2.048
 2150TIP3   OH2 6385   7.117   0.502   3.251
 2150TIP3    H1 6386   7.041   0.530   3.200
 2150TIP3    H2 6387   7.137   0.414   3.217
 2151TIP3   OH2 6388   5.801   0.888   3.264
 2151TIP3    H1 6389   5.850   0.878   3.345
 2151TIP3    H2 6390   5.730   0.824   3.271
 2152TIP3   OH2 6391   7.092   0.227   3.212
 2152TIP3    H1 6392   7.020   0.186   3.260
 2152TIP3    H2 6393   7.058   0.237   3.123
 2153TIP3   OH2 6394   6.092   0.273   3.091
 2153TIP3    H1 6395   6.027   0.279   3.160
 2153TIP3    H2 6396   6.066   0.340   3.027
 2154TIP3   OH2 6397   6.019   0.159   2.537
 2154TIP3    H1 6398   5.924   0.148   2.539
 2154TIP3    H2 6399   6.044   0.135   2.448
 2155TIP3   OH2 6400   6.550   0.188   2.269
 2155TIP3    H1 6401   6.479   0.252   2.271
 2155TIP3    H2 6402   6.576   0.184   2.177
 2156TIP3   OH2 6403   6.669   0.510   3.402
 2156TIP3    H1 6404   6.636   0.423   3.422
 2156TIP3    H2 6405   6.764   0.503   3.411
 2157TIP3   OH2 6406   6.664   0.339   2.542
 2157TIP3    H1 6407   6.605   0.393   2.489
 2157TIP3    H2 6408   6.628   0.251   2.536
 2158TIP3   OH2 6409   5.888   0.248   3.279
 2158TIP3    H1 6410   5.930   0.261   3.364
 2158TIP3    H2 6411   5.809   0.197   3.299
 2159TIP3   OH2 6412   2.808   7.933   2.395
 2159TIP3    H1 6413   2.748   7.923   2.321
 2159TIP3    H2 6414   2.770   7.877   2.463
 2160TIP3   OH2 6415   6.665   0.481   2.971
 2160TIP3    H1 6416   6.694   0.411   2.912
 2160TIP3    H2 6417   6.635   0.435   3.049
 2161TIP3   OH2 6418   5.750   0.066   2.596
 2161TIP3    H1 6419   5.659   0.087   2.617
 2161TIP3    H2 6420   5.744   0.003   2.523
 2162TIP3   OH2 6421   6.050   0.072   2.275
 2162TIP3    H1 6422   6.119   0.006   2.267
 2162TIP3    H2 6423   5.982   0.043   2.214
 2163TIP3   OH2 6424   5.856   0.027   2.086
 2163TIP3    H1 6425   5.765  -0.002   2.087
 2163TIP3    H2 6426   5.872   0.052   1.994
 2164TIP3   OH2 6427   7.013   1.679   3.086
 2164TIP3    H1 6428   7.009   1.698   2.992
 2164TIP3    H2 6429   7.091   1.726   3.117
 2165TIP3   OH2 6430   5.966   0.809   3.494
 2165TIP3    H1 6431   6.044   0.831   3.544
 2165TIP3    H2 6432   5.895   0.811   3.559
 2166TIP3   OH2 6433   6.423   0.311   2.720
 2166TIP3    H1 6434   6.471   0.235   2.687
 2166TIP3    H2 6435   6.411   0.294   2.813
 2167TIP3   OH2 6436   6.345   0.317   2.993
 2167TIP3    H1 6437   6.264   0.304   3.041
 2167TIP3    H2 6438   6.387   0.391   3.035
 2168TIP3   OH2 6439   6.128   0.526   2.134
 2168TIP3    H1 6440   6.065   0.454   2.129
 2168TIP3    H2 6441   6.107   0.570   2.216
 2169TIP3   OH2 6442   7.012   0.788   2.751
 2169TIP3    H1 6443   7.046   0.835   2.675
 2169TIP3    H2 6444   6.925   0.758   2.724
 2170TIP3   OH2 6445   6.518   0.844   3.158
 2170TIP3    H1 6446   6.552   0.852   3.246
 2170TIP3    H2 6447   6.477   0.929   3.140
 2171TIP3   OH2 6448   5.808   0.551   2.788
 2171TIP3    H1 6449   5.846   0.531   2.703
 2171TIP3    H2 6450   5.871   0.515   2.851
 2172TIP3   OH2 6451   6.288   0.688   1.985
 2172TIP3    H1 6452   6.238   0.770   1.986
 2172TIP3    H2 6453   6.235   0.627   2.036
 2173TIP3   OH2 6454   5.707   0.462   3.408
 2173TIP3    H1 6455   5.717   0.451   3.503
 2173TIP3    H2 6456   5.625   0.418   3.387
 2174TIP3   OH2 6457   6.420   0.609   3.460
 2174TIP3    H1 6458   6.354   0.546   3.430
 2174TIP3    H2 6459   6.503   0.575   3.424
 2175TIP3   OH2 6460   6.689   1.103   3.071
 2175TIP3    H1 6461   6.594   1.107   3.067
 2175TIP3    H2 6462   6.713   1.156   3.147
 2176TIP3   OH2 6463   7.311   1.074   3.000
 2176TIP3    H1 6464   7.219   1.048   2.996
 2176TIP3    H2 6465   7.348   1.045   2.917
 2177TIP3   OH2 6466   6.782   1.019   1.934
 2177TIP3    H1 6467   6.763   0.969   2.014
 2177TIP3    H2 6468   6.771   0.956   1.863
 2178TIP3   OH2 6469   6.765   0.686   2.664
 2178TIP3    H1 6470   6.677   0.650   2.679
 2178TIP3    H2 6471   6.813   0.615   2.621
 2179TIP3   OH2 6472   5.937   0.871   2.461
 2179TIP3    H1 6473   5.933   0.946   2.401
 2179TIP3    H2 6474   5.846   0.859   2.490
 2180TIP3   OH2 6475   5.475   0.185   2.150
 2180TIP3    H1 6476   5.523   0.265   2.173
 2180TIP3    H2 6477   5.396   0.189   2.204
 2181TIP3   OH2 6478   6.034   0.632   2.364
 2181TIP3    H1 6479   6.013   0.722   2.391
 2181TIP3    H2 6480   6.000   0.577   2.435
 2182TIP3   OH2 6481   6.225   1.191   2.919
 2182TIP3    H1 6482   6.258   1.264   2.867
 2182TIP3    H2 6483   6.301   1.159   2.967
 2183TIP3   OH2 6484   5.857   1.087   2.301
 2183TIP3    H1 6485   5.771   1.094   2.344
 2183TIP3    H2 6486   5.894   1.175   2.309
 2184TIP3   OH2 6487   6.575   0.857   2.881
 2184TIP3    H1 6488   6.570   0.841   2.976
 2184TIP3    H2 6489   6.642   0.796   2.850
 2185TIP3   OH2 6490   6.515   0.717   1.826
 2185TIP3    H1 6491   6.591   0.705   1.883
 2185TIP3    H2 6492   6.440   0.714   1.885
 2186TIP3   OH2 6493   6.828   1.355   2.927
 2186TIP3    H1 6494   6.750   1.300   2.933
 2186TIP3    H2 6495   6.809   1.416   2.855
 2187TIP3   OH2 6496   6.871   1.176   1.589
 2187TIP3    H1 6497   6.874   1.216   1.503
 2187TIP3    H2 6498   6.808   1.229   1.638
 2188TIP3   OH2 6499   6.710   0.667   2.017
 2188TIP3    H1 6500   6.710   0.589   2.072
 2188TIP3    H2 6501   6.802   0.682   1.997
 2189TIP3   OH2 6502   5.655   1.082   3.078
 2189TIP3    H1 6503   5.708   1.024   3.133
 2189TIP3    H2 6504   5.666   1.169   3.118
 2190TIP3   OH2 6505   5.890   0.680   1.708
 2190TIP3    H1 6506   5.932   0.595   1.693
 2190TIP3    H2 6507   5.886   0.688   1.803
 2191TIP3   OH2 6508   5.876   0.712   1.982
 2191TIP3    H1 6509   5.942   0.673   2.039
 2191TIP3    H2 6510   5.872   0.804   2.010
 2192TIP3   OH2 6511   5.584   0.416   2.257
 2192TIP3    H1 6512   5.520   0.465   2.309
 2192TIP3    H2 6513   5.606   0.475   2.185
 2193TIP3   OH2 6514   6.128   0.905   1.977
 2193TIP3    H1 6515   6.045   0.928   2.018
 2193TIP3    H2 6516   6.152   0.984   1.927
 2194TIP3   OH2 6517   6.379  -0.018   2.332
 2194TIP3    H1 6518   6.443   0.053   2.324
 2194TIP3    H2 6519   6.345  -0.010   2.421
 2195TIP3   OH2 6520   6.587   0.317   3.174
 2195TIP3    H1 6521   6.516   0.342   3.233
 2195TIP3    H2 6522   6.650   0.271   3.230
 2196TIP3   OH2 6523   5.869   0.979   2.049
 2196TIP3    H1 6524   5.855   1.057   1.995
 2196TIP3    H2 6525   5.861   1.011   2.139
 2197TIP3   OH2 6526   6.895   0.474   2.551
 2197TIP3    H1 6527   6.817   0.418   2.554
 2197TIP3    H2 6528   6.957   0.432   2.610
 2198TIP3   OH2 6529   5.638   0.591   2.058
 2198TIP3    H1 6530   5.569   0.656   2.062
 2198TIP3    H2 6531   5.714   0.638   2.023
 2199TIP3   OH2 6532   2.756   7.961   2.096
 2199TIP3    H1 6533   2.719   8.046   2.120
 2199TIP3    H2 6534   2.683   7.914   2.056
 2200TIP3   OH2 6535   6.857   1.350   2.498
 2200TIP3    H1 6536   6.813   1.402   2.431
 2200TIP3    H2 6537   6.950   1.366   2.484
 2201TIP3   OH2 6538   5.452   0.866   2.387
 2201TIP3    H1 6539   5.369   0.899   2.423
 2201TIP3    H2 6540   5.437   0.860   2.293
 2202TIP3   OH2 6541   5.645   1.382   3.493
 2202TIP3    H1 6542   5.729   1.381   3.541
 2202TIP3    H2 6543   5.618   1.291   3.491
 2203TIP3   OH2 6544   6.115   1.259   3.603
 2203TIP3    H1 6545   6.174   1.332   3.583
 2203TIP3    H2 6546   6.089   1.225   3.517
 2204TIP3   OH2 6547   6.078   0.917   1.663
 2204TIP3    H1 6548   6.071   0.835   1.712
 2204TIP3    H2 6549   6.156   0.905   1.608
 2205TIP3   OH2 6550   6.738   1.238   3.309
 2205TIP3    H1 6551   6.754   1.169   3.374
 2205TIP3    H2 6552   6.814   1.295   3.316
 2206TIP3   OH2 6553   6.532   0.964   1.582
 2206TIP3    H1 6554   6.609   0.925   1.624
 2206TIP3    H2 6555   6.568   1.019   1.513
 2207TIP3   OH2 6556   5.759   0.803   3.684
 2207TIP3    H1 6557   5.783   0.710   3.685
 2207TIP3    H2 6558   5.672   0.805   3.642
 2208TIP3   OH2 6559   5.750   0.362   1.872
 2208TIP3    H1 6560   5.749   0.392   1.963
 2208TIP3    H2 6561   5.834   0.394   1.838
 2209TIP3   OH2 6562   6.376   0.877   3.458
 2209TIP3    H1 6563   6.322   0.897   3.381
 2209TIP3    H2 6564   6.394   0.784   3.451
 2210TIP3   OH2 6565   6.211   0.646   1.716
 2210TIP3    H1 6566   6.250   0.660   1.802
 2210TIP3    H2 6567   6.211   0.551   1.704
 2211TIP3   OH2 6568   6.857   0.862   3.096
 2211TIP3    H1 6569   6.930   0.901   3.047
 2211TIP3    H2 6570   6.786   0.927   3.089
 2212TIP3   OH2 6571   5.865   0.552   3.643
 2212TIP3    H1 6572   5.958   0.540   3.622
 2212TIP3    H2 6573   5.851   0.495   3.719
 2213TIP3   OH2 6574   5.950   0.321   2.155
 2213TIP3    H1 6575   5.893   0.327   2.231
 2213TIP3    H2 6576   5.991   0.235   2.163
 2214TIP3   OH2 6577   6.222   0.451   3.334
 2214TIP3    H1 6578   6.136   0.492   3.337
 2214TIP3    H2 6579   6.265   0.491   3.258
 2215TIP3   OH2 6580   6.728   0.787   3.475
 2215TIP3    H1 6581   6.707   0.723   3.407
 2215TIP3    H2 6582   6.740   0.735   3.554
 2216TIP3   OH2 6583   6.346   0.203   3.339
 2216TIP3    H1 6584   6.288   0.133   3.309
 2216TIP3    H2 6585   6.294   0.283   3.331
 2217TIP3   OH2 6586   6.384   0.560   3.135
 2217TIP3    H1 6587   6.459   0.620   3.137
 2217TIP3    H2 6588   6.318   0.606   3.085
 2218TIP3   OH2 6589   6.925   0.428   3.456
 2218TIP3    H1 6590   6.954   0.398   3.542
 2218TIP3    H2 6591   7.005   0.461   3.414
 2219TIP3   OH2 6592   7.047   0.785   3.299
 2219TIP3    H1 6593   6.966   0.784   3.248
 2219TIP3    H2 6594   7.068   0.878   3.310
 2220TIP3   OH2 6595   6.190   0.366   3.715
 2220TIP3    H1 6596   6.108   0.317   3.713
 2220TIP3    H2 6597   6.256   0.303   3.686
 2221TIP3   OH2 6598   6.588   0.257   3.465
 2221TIP3    H1 6599   6.589   0.245   3.560
 2221TIP3    H2 6600   6.504   0.219   3.438
 2222TIP3   OH2 6601   5.858   1.187   1.872
 2222TIP3    H1 6602   5.952   1.181   1.856
 2222TIP3    H2 6603   5.824   1.240   1.800
 2223TIP3   OH2 6604   5.294   0.505   2.121
 2223TIP3    H1 6605   5.337   0.586   2.094
 2223TIP3    H2 6606   5.306   0.445   2.047
 2224TIP3   OH2 6607   5.249   1.168   2.508
 2224TIP3    H1 6608   5.184   1.112   2.465
 2224TIP3    H2 6609   5.291   1.111   2.572
 2225TIP3   OH2 6610   5.383   1.016   2.692
 2225TIP3    H1 6611   5.377   0.939   2.749
 2225TIP3    H2 6612   5.439   1.077   2.740
 2226TIP3   OH2 6613   7.124   1.404   2.487
 2226TIP3    H1 6614   7.145   1.437   2.574
 2226TIP3    H2 6615   7.184   1.450   2.428
 2227TIP3   OH2 6616   7.136   1.438   2.769
 2227TIP3    H1 6617   7.095   1.351   2.766
 2227TIP3    H2 6618   7.212   1.427   2.826
 2228TIP3   OH2 6619   7.225   1.075   3.350
 2228TIP3    H1 6620   7.154   1.097   3.410
 2228TIP3    H2 6621   7.265   1.160   3.329
 2229TIP3   OH2 6622   6.979   0.698   1.994
 2229TIP3    H1 6623   7.048   0.761   1.970
 2229TIP3    H2 6624   7.023   0.636   2.052
 2230TIP3   OH2 6625   7.108   0.531   2.172
 2230TIP3    H1 6626   7.048   0.463   2.202
 2230TIP3    H2 6627   7.176   0.535   2.239
 2231TIP3   OH2 6628   7.190   0.903   2.570
 2231TIP3    H1 6629   7.200   0.844   2.495
 2231TIP3    H2 6630   7.195   0.991   2.532
 2232TIP3   OH2 6631   7.004   1.191   2.786
 2232TIP3    H1 6632   6.936   1.238   2.834
 2232TIP3    H2 6633   6.959   1.152   2.712
 2233TIP3   OH2 6634   6.952   0.349   2.316
 2233TIP3    H1 6635   7.029   0.296   2.339
 2233TIP3    H2 6636   6.936   0.403   2.394
 2234TIP3   OH2 6637   5.557   0.423   3.057
 2234TIP3    H1 6638   5.550   0.417   2.962
 2234TIP3    H2 6639   5.649   0.442   3.073
 2235TIP3   OH2 6640   7.280   0.825   3.151
 2235TIP3    H1 6641   7.334   0.808   3.074
 2235TIP3    H2 6642   7.271   0.920   3.153
 2236TIP3   OH2 6643   7.391   0.606   3.294
 2236TIP3    H1 6644   7.407   0.515   3.271
 2236TIP3    H2 6645   7.477   0.647   3.294
 2237TIP3   OH2 6646   7.084   0.366   2.707
 2237TIP3    H1 6647   7.171   0.382   2.670
 2237TIP3    H2 6648   7.097   0.369   2.801
 2238TIP3   OH2 6649   7.161   0.454   2.959
 2238TIP3    H1 6650   7.078   0.490   2.989
 2238TIP3    H2 6651   7.197   0.521   2.901
 2239TIP3   OH2 6652   5.713   0.084   3.746
 2239TIP3    H1 6653   5.754   0.002   3.717
 2239TIP3    H2 6654   5.679   0.064   3.833
 2240TIP3   OH2 6655   5.519   0.151   3.099
 2240TIP3    H1 6656   5.579   0.108   3.038
 2240TIP3    H2 6657   5.537   0.244   3.089
 2241TIP3   OH2 6658   6.688   1.314   2.145
 2241TIP3    H1 6659   6.745   1.309   2.068
 2241TIP3    H2 6660   6.725   1.385   2.197
 2242TIP3   OH2 6661   5.791   1.101   3.525
 2242TIP3    H1 6662   5.698   1.092   3.504
 2242TIP3    H2 6663   5.797   1.078   3.617
 2243TIP3   OH2 6664   6.002   1.161   3.079
 2243TIP3    H1 6665   5.947   1.232   3.045
 2243TIP3    H2 6666   6.084   1.169   3.030
 2244TIP3   OH2 6667   6.402   1.381   3.221
 2244TIP3    H1 6668   6.441   1.382   3.309
 2244TIP3    H2 6669   6.460   1.436   3.169
 2245TIP3   OH2 6670   6.582   1.540   3.083
 2245TIP3    H1 6671   6.643   1.495   3.024
 2245TIP3    H2 6672   6.637   1.598   3.135
 2246TIP3   OH2 6673   5.656   1.390   3.114
 2246TIP3    H1 6674   5.565   1.404   3.088
 2246TIP3    H2 6675   5.674   1.460   3.177
 2247TIP3   OH2 6676   5.887   1.385   2.965
 2247TIP3    H1 6677   5.804   1.389   3.011
 2247TIP3    H2 6678   5.866   1.409   2.875
 2248TIP3   OH2 6679   6.302   1.400   2.755
 2248TIP3    H1 6680   6.231   1.411   2.692
 2248TIP3    H2 6681   6.312   1.487   2.794
 2249TIP3   OH2 6682   6.565   1.335   2.810
 2249TIP3    H1 6683   6.474   1.355   2.789
 2249TIP3    H2 6684   6.616   1.399   2.760
 2250TIP3   OH2 6685   6.763   1.507   2.704
 2250TIP3    H1 6686   6.764   1.595   2.667
 2250TIP3    H2 6687   6.793   1.451   2.632
 2251TIP3   OH2 6688   5.568   1.178   2.830
 2251TIP3    H1 6689   5.592   1.152   2.919
 2251TIP3    H2 6690   5.638   1.143   2.775
 2252TIP3   OH2 6691   5.768   1.062   2.689
 2252TIP3    H1 6692   5.780   0.980   2.736
 2252TIP3    H2 6693   5.855   1.103   2.691
 2253TIP3   OH2 6694   6.038   1.145   2.713
 2253TIP3    H1 6695   6.055   1.052   2.697
 2253TIP3    H2 6696   6.092   1.166   2.790
 2254TIP3   OH2 6697   6.122   1.138   1.818
 2254TIP3    H1 6698   6.209   1.162   1.785
 2254TIP3    H2 6699   6.091   1.071   1.758
 2255TIP3   OH2 6700   6.843   1.280   1.916
 2255TIP3    H1 6701   6.829   1.186   1.922
 2255TIP3    H2 6702   6.796   1.307   1.838
 2256TIP3   OH2 6703   5.448   0.994   1.863
 2256TIP3    H1 6704   5.399   0.943   1.927
 2256TIP3    H2 6705   5.517   1.037   1.915
 2257TIP3   OH2 6706   7.048   1.406   3.094
 2257TIP3    H1 6707   6.975   1.376   3.040
 2257TIP3    H2 6708   7.038   1.501   3.098
 2258TIP3   OH2 6709   7.590   1.091   2.318
 2258TIP3    H1 6710   7.581   0.998   2.299
 2258TIP3    H2 6711   7.626   1.093   2.407
 2259TIP3   OH2 6712   7.375   0.590   2.265
 2259TIP3    H1 6713   7.419   0.511   2.234
 2259TIP3    H2 6714   7.348   0.636   2.185
 2260TIP3   OH2 6715   7.202   0.852   1.932
 2260TIP3    H1 6716   7.249   0.829   1.851
 2260TIP3    H2 6717   7.216   0.946   1.943
 2261TIP3   OH2 6718   7.769   1.464   2.861
 2261TIP3    H1 6719   7.750   1.428   2.774
 2261TIP3    H2 6720   7.701   1.427   2.918
 2262TIP3   OH2 6721   7.385   0.947   2.769
 2262TIP3    H1 6722   7.315   0.921   2.708
 2262TIP3    H2 6723   7.404   0.867   2.818
 2263TIP3   OH2 6724   7.238   1.151   2.454
 2263TIP3    H1 6725   7.325   1.185   2.475
 2263TIP3    H2 6726   7.179   1.225   2.470
 2264TIP3   OH2 6727   7.413   1.353   1.945
 2264TIP3    H1 6728   7.477   1.344   2.016
 2264TIP3    H2 6729   7.378   1.265   1.934
 2265TIP3   OH2 6730   7.564   1.152   2.719
 2265TIP3    H1 6731   7.629   1.138   2.787
 2265TIP3    H2 6732   7.501   1.080   2.730
 2266TIP3   OH2 6733   7.720   1.080   2.936
 2266TIP3    H1 6734   7.810   1.069   2.966
 2266TIP3    H2 6735   7.667   1.079   3.016
 2267TIP3   OH2 6736   7.456   0.753   2.955
 2267TIP3    H1 6737   7.531   0.746   3.013
 2267TIP3    H2 6738   7.441   0.664   2.923
 2268TIP3   OH2 6739   7.432   1.338   2.562
 2268TIP3    H1 6740   7.486   1.280   2.615
 2268TIP3    H2 6741   7.456   1.426   2.590
 2269TIP3   OH2 6742   7.247   1.125   1.929
 2269TIP3    H1 6743   7.205   1.170   2.002
 2269TIP3    H2 6744   7.201   1.156   1.851
 2270TIP3   OH2 6745   7.433   1.647   2.977
 2270TIP3    H1 6746   7.512   1.650   3.031
 2270TIP3    H2 6747   7.416   1.553   2.966
 2271TIP3   OH2 6748   7.543   1.047   3.152
 2271TIP3    H1 6749   7.559   0.953   3.154
 2271TIP3    H2 6750   7.461   1.057   3.105
 2272TIP3   OH2 6751   7.643   0.770   3.159
 2272TIP3    H1 6752   7.714   0.706   3.151
 2272TIP3    H2 6753   7.661   0.815   3.242
 2273TIP3   OH2 6754   7.046   1.432   2.011
 2273TIP3    H1 6755   6.980   1.379   1.965
 2273TIP3    H2 6756   7.088   1.370   2.070
 2274TIP3   OH2 6757   7.180   1.255   2.174
 2274TIP3    H1 6758   7.169   1.186   2.239
 2274TIP3    H2 6759   7.240   1.317   2.215
 2275TIP3   OH2 6760   7.383   0.658   2.532
 2275TIP3    H1 6761   7.375   0.635   2.439
 2275TIP3    H2 6762   7.461   0.714   2.536
 2276TIP3   OH2 6763   7.448   0.355   3.216
 2276TIP3    H1 6764   7.542   0.372   3.204
 2276TIP3    H2 6765   7.445   0.269   3.258
 2277TIP3   OH2 6766   7.337   0.392   2.594
 2277TIP3    H1 6767   7.383   0.354   2.518
 2277TIP3    H2 6768   7.359   0.485   2.591
 2278TIP3   OH2 6769   7.571   1.373   3.033
 2278TIP3    H1 6770   7.481   1.357   3.006
 2278TIP3    H2 6771   7.573   1.349   3.126
 2279TIP3   OH2 6772   7.447   1.626   2.607
 2279TIP3    H1 6773   7.359   1.650   2.581
 2279TIP3    H2 6774   7.478   1.701   2.659
 2280TIP3   OH2 6775   7.645   1.534   2.429
 2280TIP3    H1 6776   7.586   1.571   2.495
 2280TIP3    H2 6777   7.650   1.601   2.361
 2281TIP3   OH2 6778   7.356   1.426   2.309
 2281TIP3    H1 6779   7.385   1.406   2.398
 2281TIP3    H2 6780   7.430   1.401   2.253
 2282TIP3   OH2 6781   7.570   1.323   2.174
 2282TIP3    H1 6782   7.577   1.238   2.217
 2282TIP3    H2 6783   7.643   1.374   2.209
 2283TIP3   OH2 6784   7.131   1.206   1.688
 2283TIP3    H1 6785   7.042   1.176   1.667
 2283TIP3    H2 6786   7.128   1.300   1.672
 2284TIP3   OH2 6787   7.228   1.162   1.419
 2284TIP3    H1 6788   7.204   1.179   1.510
 2284TIP3    H2 6789   7.322   1.144   1.422
 2285TIP3   OH2 6790   0.790   1.596   3.532
 2285TIP3    H1 6791   0.750   1.674   3.492
 2285TIP3    H2 6792   0.723   1.564   3.592
 2286TIP3   OH2 6793   0.788   1.573   3.941
 2286TIP3    H1 6794   0.837   1.560   4.023
 2286TIP3    H2 6795   0.749   1.488   3.922
 2287TIP3   OH2 6796   0.071   1.442   4.303
 2287TIP3    H1 6797   0.106   1.382   4.369
 2287TIP3    H2 6798   0.147   1.468   4.251
 2288TIP3   OH2 6799   1.052   1.882   3.616
 2288TIP3    H1 6800   1.036   1.815   3.682
 2288TIP3    H2 6801   1.068   1.962   3.666
 2289TIP3   OH2 6802   0.079   1.858   3.995
 2289TIP3    H1 6803   0.059   1.764   4.002
 2289TIP3    H2 6804   0.174   1.862   3.987
 2290TIP3   OH2 6805   0.705   2.304   3.628
 2290TIP3    H1 6806   0.733   2.239   3.563
 2290TIP3    H2 6807   0.698   2.255   3.710
 2291TIP3   OH2 6808   0.596   1.793   3.959
 2291TIP3    H1 6809   0.639   1.714   3.927
 2291TIP3    H2 6810   0.667   1.849   3.989
 2292TIP3   OH2 6811   1.634   1.124   3.956
 2292TIP3    H1 6812   1.648   1.210   3.997
 2292TIP3    H2 6813   1.661   1.137   3.865
 2293TIP3   OH2 6814   1.022   1.307   4.002
 2293TIP3    H1 6815   1.085   1.238   4.022
 2293TIP3    H2 6816   0.977   1.278   3.923
 2294TIP3   OH2 6817   1.059   1.066   3.580
 2294TIP3    H1 6818   1.126   1.073   3.647
 2294TIP3    H2 6819   1.102   1.095   3.500
 2295TIP3   OH2 6820   0.400   1.349   3.896
 2295TIP3    H1 6821   0.494   1.365   3.898
 2295TIP3    H2 6822   0.391   1.255   3.885
 2296TIP3   OH2 6823   1.683   1.341   4.133
 2296TIP3    H1 6824   1.592   1.371   4.131
 2296TIP3    H2 6825   1.717   1.375   4.216
 2297TIP3   OH2 6826   0.373   0.987   4.411
 2297TIP3    H1 6827   0.284   1.017   4.398
 2297TIP3    H2 6828   0.386   0.987   4.506
 2298TIP3   OH2 6829   0.655   1.796   3.403
 2298TIP3    H1 6830   0.642   1.779   3.309
 2298TIP3    H2 6831   0.601   1.873   3.421
 2299TIP3   OH2 6832   0.425   1.719   4.165
 2299TIP3    H1 6833   0.368   1.788   4.198
 2299TIP3    H2 6834   0.473   1.760   4.093
 2300TIP3   OH2 6835   1.214   1.098   3.798
 2300TIP3    H1 6836   1.267   1.024   3.828
 2300TIP3    H2 6837   1.263   1.176   3.825
 2301TIP3   OH2 6838   0.200   1.039   4.171
 2301TIP3    H1 6839   0.255   1.114   4.194
 2301TIP3    H2 6840   0.245   0.998   4.097
 2302TIP3   OH2 6841   0.261   1.913   4.271
 2302TIP3    H1 6842   0.248   2.003   4.240
 2302TIP3    H2 6843   0.183   1.895   4.323
 2303TIP3   OH2 6844   1.079   2.125   3.763
 2303TIP3    H1 6845   0.994   2.122   3.807
 2303TIP3    H2 6846   1.078   2.207   3.715
 2304TIP3   OH2 6847   1.433   1.053   4.143
 2304TIP3    H1 6848   1.343   1.069   4.113
 2304TIP3    H2 6849   1.487   1.065   4.065
 2305TIP3   OH2 6850   0.710   0.588   4.138
 2305TIP3    H1 6851   0.733   0.540   4.059
 2305TIP3    H2 6852   0.614   0.584   4.142
 2306TIP3   OH2 6853   0.793   2.142   3.419
 2306TIP3    H1 6854   0.843   2.062   3.405
 2306TIP3    H2 6855   0.852   2.213   3.393
 2307TIP3   OH2 6856   0.960   1.935   3.358
 2307TIP3    H1 6857   0.961   1.855   3.306
 2307TIP3    H2 6858   0.995   1.910   3.443
 2308TIP3   OH2 6859   1.320   2.017   4.102
 2308TIP3    H1 6860   1.304   1.940   4.047
 2308TIP3    H2 6861   1.309   2.092   4.043
 2309TIP3   OH2 6862   1.504   1.681   3.976
 2309TIP3    H1 6863   1.419   1.724   3.973
 2309TIP3    H2 6864   1.539   1.692   3.887
 2310TIP3   OH2 6865   0.969   1.510   3.345
 2310TIP3    H1 6866   0.913   1.544   3.415
 2310TIP3    H2 6867   1.049   1.483   3.390
 2311TIP3   OH2 6868   1.201   1.547   4.284
 2311TIP3    H1 6869   1.198   1.629   4.332
 2311TIP3    H2 6870   1.119   1.546   4.234
 2312TIP3   OH2 6871   0.192   1.487   3.773
 2312TIP3    H1 6872   0.170   1.434   3.696
 2312TIP3    H2 6873   0.269   1.443   3.810
 2313TIP3   OH2 6874   0.342   1.905   3.891
 2313TIP3    H1 6875   0.314   1.889   3.801
 2313TIP3    H2 6876   0.429   1.865   3.896
 2314TIP3   OH2 6877   0.289   1.486   4.119
 2314TIP3    H1 6878   0.328   1.450   4.039
 2314TIP3    H2 6879   0.338   1.566   4.135
 2315TIP3   OH2 6880   0.852   2.130   3.914
 2315TIP3    H1 6881   0.836   2.202   3.975
 2315TIP3    H2 6882   0.840   2.051   3.967
 2316TIP3   OH2 6883   0.458   2.007   4.438
 2316TIP3    H1 6884   0.401   2.067   4.487
 2316TIP3    H2 6885   0.399   1.959   4.381
 2317TIP3   OH2 6886   0.231   1.574   4.559
 2317TIP3    H1 6887   0.234   1.663   4.596
 2317TIP3    H2 6888   0.138   1.555   4.553
 2318TIP3   OH2 6889   0.531   2.051   3.403
 2318TIP3    H1 6890   0.622   2.078   3.418
 2318TIP3    H2 6891   0.485   2.132   3.381
 2319TIP3   OH2 6892   0.251   2.174   4.528
 2319TIP3    H1 6893   0.231   2.183   4.435
 2319TIP3    H2 6894   0.168   2.147   4.568
 2320TIP3   OH2 6895   1.117   1.965   2.782
 2320TIP3    H1 6896   1.120   2.059   2.766
 2320TIP3    H2 6897   1.205   1.934   2.761
 2321TIP3   OH2 6898   8.366   1.707   4.446
 2321TIP3    H1 6899   8.336   1.665   4.365
 2321TIP3    H2 6900   8.399   1.634   4.499
 2322TIP3   OH2 6901   8.237   1.901   4.046
 2322TIP3    H1 6902   8.329   1.911   4.069
 2322TIP3    H2 6903   8.191   1.958   4.107
 2323TIP3   OH2 6904   1.554   2.377   4.173
 2323TIP3    H1 6905   1.557   2.282   4.186
 2323TIP3    H2 6906   1.476   2.405   4.221
 2324TIP3   OH2 6907   0.660   2.151   4.322
 2324TIP3    H1 6908   0.654   2.223   4.385
 2324TIP3    H2 6909   0.589   2.092   4.346
 2325TIP3   OH2 6910   0.442   2.275   3.266
 2325TIP3    H1 6911   0.401   2.252   3.183
 2325TIP3    H2 6912   0.404   2.360   3.289
 2326TIP3   OH2 6913   8.359   2.115   3.639
 2326TIP3    H1 6914   8.423   2.105   3.710
 2326TIP3    H2 6915   8.278   2.078   3.674
 2327TIP3   OH2 6916   0.633   2.172   2.896
 2327TIP3    H1 6917   0.702   2.120   2.856
 2327TIP3    H2 6918   0.666   2.193   2.983
 2328TIP3   OH2 6919   0.693   2.243   3.157
 2328TIP3    H1 6920   0.608   2.248   3.201
 2328TIP3    H2 6921   0.752   2.206   3.223
 2329TIP3   OH2 6922   1.445   1.497   4.446
 2329TIP3    H1 6923   1.365   1.509   4.396
 2329TIP3    H2 6924   1.464   1.403   4.440
 2330TIP3   OH2 6925   0.054   1.909   4.452
 2330TIP3    H1 6926   0.104   1.885   4.530
 2330TIP3    H2 6927  -0.016   1.843   4.449
 2331TIP3   OH2 6928   0.380   0.788   4.223
 2331TIP3    H1 6929   0.383   0.701   4.263
 2331TIP3    H2 6930   0.363   0.848   4.296
 2332TIP3   OH2 6931   0.976   0.945   4.534
 2332TIP3    H1 6932   1.017   0.869   4.492
 2332TIP3    H2 6933   0.893   0.912   4.567
 2333TIP3   OH2 6934   1.199   1.288   4.385
 2333TIP3    H1 6935   1.166   1.290   4.474
 2333TIP3    H2 6936   1.187   1.378   4.353
 2334TIP3   OH2 6937   0.371   1.260   4.254
 2334TIP3    H1 6938   0.330   1.264   4.340
 2334TIP3    H2 6939   0.342   1.340   4.210
 2335TIP3   OH2 6940   0.766   1.287   3.531
 2335TIP3    H1 6941   0.698   1.244   3.479
 2335TIP3    H2 6942   0.808   1.347   3.471
 2336TIP3   OH2 6943   0.918   1.492   4.598
 2336TIP3    H1 6944   0.896   1.422   4.660
 2336TIP3    H2 6945   1.010   1.510   4.615
 2337TIP3   OH2 6946   0.920   1.225   3.755
 2337TIP3    H1 6947   0.847   1.264   3.707
 2337TIP3    H2 6948   0.965   1.170   3.691
 2338TIP3   OH2 6949   0.222   1.286   4.486
 2338TIP3    H1 6950   0.256   1.360   4.536
 2338TIP3    H2 6951   0.185   1.227   4.552
 2339TIP3   OH2 6952   0.943   1.505   4.167
 2339TIP3    H1 6953   0.974   1.437   4.107
 2339TIP3    H2 6954   0.901   1.457   4.238
 2340TIP3   OH2 6955   0.562   1.056   3.834
 2340TIP3    H1 6956   0.476   1.014   3.828
 2340TIP3    H2 6957   0.603   1.015   3.910
 2341TIP3   OH2 6958   1.157   1.075   4.104
 2341TIP3    H1 6959   1.103   1.088   4.182
 2341TIP3    H2 6960   1.100   1.030   4.042
 2342TIP3   OH2 6961   1.259   2.728   4.258
 2342TIP3    H1 6962   1.254   2.746   4.164
 2342TIP3    H2 6963   1.337   2.774   4.288
 2343TIP3   OH2 6964   0.207   1.826   4.683
 2343TIP3    H1 6965   0.290   1.846   4.726
 2343TIP3    H2 6966   0.142   1.834   4.753
 2344TIP3   OH2 6967   0.672   1.313   3.928
 2344TIP3    H1 6968   0.662   1.231   3.880
 2344TIP3    H2 6969   0.673   1.287   4.020
 2345TIP3   OH2 6970   0.647   1.254   4.195
 2345TIP3    H1 6971   0.554   1.262   4.217
 2345TIP3    H2 6972   0.691   1.313   4.255
 2346TIP3   OH2 6973   1.266   1.812   3.926
 2346TIP3    H1 6974   1.302   1.861   3.852
 2346TIP3    H2 6975   1.186   1.772   3.892
 2347TIP3   OH2 6976   0.800   1.883   4.344
 2347TIP3    H1 6977   0.852   1.862   4.422
 2347TIP3    H2 6978   0.754   1.964   4.367
 2348TIP3   OH2 6979   0.053   1.581   3.998
 2348TIP3    H1 6980   0.078   1.556   3.909
 2348TIP3    H2 6981   0.120   1.543   4.054
 2349TIP3   OH2 6982   0.574   1.742   3.136
 2349TIP3    H1 6983   0.515   1.817   3.135
 2349TIP3    H2 6984   0.517   1.667   3.152
 2350TIP3   OH2 6985   8.459   1.527   4.636
 2350TIP3    H1 6986   8.505   1.530   4.720
 2350TIP3    H2 6987   8.369   1.504   4.659
 2351TIP3   OH2 6988   0.687   1.643   4.627
 2351TIP3    H1 6989   0.619   1.582   4.599
 2351TIP3    H2 6990   0.769   1.600   4.603
 2352TIP3   OH2 6991   0.925   2.189   4.230
 2352TIP3    H1 6992   0.833   2.163   4.241
 2352TIP3    H2 6993   0.953   2.216   4.317
 2353TIP3   OH2 6994   1.337   1.221   3.118
 2353TIP3    H1 6995   1.266   1.166   3.085
 2353TIP3    H2 6996   1.323   1.306   3.075
 2354TIP3   OH2 6997   1.564   2.093   4.198
 2354TIP3    H1 6998   1.470   2.080   4.189
 2354TIP3    H2 6999   1.600   2.065   4.114
 2355TIP3   OH2 7000   1.057   2.042   3.057
 2355TIP3    H1 7001   1.021   1.984   3.124
 2355TIP3    H2 7002   1.067   1.987   2.979
 2356TIP3   OH2 7003   1.034   1.683   3.824
 2356TIP3    H1 7004   0.945   1.658   3.849
 2356TIP3    H2 7005   1.071   1.603   3.787
 2357TIP3   OH2 7006   0.191   1.909   3.654
 2357TIP3    H1 7007   0.188   1.980   3.590
 2357TIP3    H2 7008   0.108   1.915   3.701
 2358TIP3   OH2 7009   0.343   1.678   3.632
 2358TIP3    H1 7010   0.296   1.760   3.617
 2358TIP3    H2 7011   0.283   1.625   3.684
 2359TIP3   OH2 7012   0.478   2.234   4.095
 2359TIP3    H1 7013   0.508   2.309   4.044
 2359TIP3    H2 7014   0.557   2.202   4.139
 2360TIP3   OH2 7015   0.113   2.133   3.514
 2360TIP3    H1 7016   0.019   2.137   3.532
 2360TIP3    H2 7017   0.140   2.224   3.503
 2361TIP3   OH2 7018   0.833   1.896   4.069
 2361TIP3    H1 7019   0.824   1.887   4.163
 2361TIP3    H2 7020   0.901   1.834   4.045
 2362TIP3   OH2 7021   0.813   1.734   2.969
 2362TIP3    H1 7022   0.874   1.732   3.043
 2362TIP3    H2 7023   0.726   1.739   3.009
 2363TIP3   OH2 7024   1.093   2.384   4.107
 2363TIP3    H1 7025   1.021   2.325   4.127
 2363TIP3    H2 7026   1.058   2.441   4.038
 2364TIP3   OH2 7027   1.126   2.238   2.738
 2364TIP3    H1 7028   1.133   2.293   2.660
 2364TIP3    H2 7029   1.058   2.280   2.791
 2365TIP3   OH2 7030   1.000   1.723   3.175
 2365TIP3    H1 7031   0.979   1.645   3.226
 2365TIP3    H2 7032   1.093   1.713   3.152
 2366TIP3   OH2 7033   8.431   2.117   4.228
 2366TIP3    H1 7034   8.460   2.056   4.296
 2366TIP3    H2 7035   8.439   2.204   4.268
 2367TIP3   OH2 7036   0.998   1.116   4.326
 2367TIP3    H1 7037   1.074   1.168   4.351
 2367TIP3    H2 7038   0.983   1.057   4.400
 2368TIP3   OH2 7039   0.401   1.949   3.169
 2368TIP3    H1 7040   0.421   1.980   3.257
 2368TIP3    H2 7041   0.381   2.028   3.119
 2369TIP3   OH2 7042   0.843   1.351   4.370
 2369TIP3    H1 7043   0.868   1.390   4.453
 2369TIP3    H2 7044   0.885   1.265   4.369
 2370TIP3   OH2 7045   1.463   1.228   4.358
 2370TIP3    H1 7046   1.368   1.236   4.371
 2370TIP3    H2 7047   1.472   1.172   4.281
 2371TIP3   OH2 7048   1.130   1.429   3.739
 2371TIP3    H1 7049   1.059   1.368   3.757
 2371TIP3    H2 7050   1.203   1.397   3.793
 2372TIP3   OH2 7051   1.106   2.387   3.675
 2372TIP3    H1 7052   1.064   2.440   3.607
 2372TIP3    H2 7053   1.200   2.402   3.661
 2373TIP3   OH2 7054   8.424   2.373   4.684
 2373TIP3    H1 7055   8.490   2.419   4.735
 2373TIP3    H2 7056   8.463   2.288   4.665
 2374TIP3   OH2 7057   0.357   2.357   4.706
 2374TIP3    H1 7058   0.446   2.323   4.716
 2374TIP3    H2 7059   0.316   2.299   4.642
 2375TIP3   OH2 7060   0.968   2.341   4.475
 2375TIP3    H1 7061   0.938   2.266   4.527
 2375TIP3    H2 7062   1.060   2.351   4.500
 2376TIP3   OH2 7063   0.834   2.039   2.764
 2376TIP3    H1 7064   0.921   2.006   2.785
 2376TIP3    H2 7065   0.809   1.993   2.684
 2377TIP3   OH2 7066   8.473   1.813   4.856
 2377TIP3    H1 7067   8.497   1.722   4.843
 2377TIP3    H2 7068   8.407   1.831   4.789
 2378TIP3   OH2 7069   0.626   1.917   4.636
 2378TIP3    H1 7070   0.573   1.933   4.558
 2378TIP3    H2 7071   0.658   1.828   4.626
 2379TIP3   OH2 7072   1.103   1.963   4.263
 2379TIP3    H1 7073   1.178   1.988   4.210
 2379TIP3    H2 7074   1.034   2.024   4.237
 2380TIP3   OH2 7075   0.088   1.563   4.878
 2380TIP3    H1 7076   0.141   1.484   4.880
 2380TIP3    H2 7077   0.106   1.605   4.963
 2381TIP3   OH2 7078   0.485   1.470   4.528
 2381TIP3    H1 7079   0.401   1.515   4.534
 2381TIP3    H2 7080   0.519   1.493   4.441
 2382TIP3   OH2 7081   0.977   1.839   4.598
 2382TIP3    H1 7082   1.056   1.806   4.554
 2382TIP3    H2 7083   0.973   1.790   4.680
 2383TIP3   OH2 7084   0.595   1.241   4.632
 2383TIP3    H1 7085   0.612   1.183   4.558
 2383TIP3    H2 7086   0.558   1.320   4.592
 2384TIP3   OH2 7087   0.632   1.076   4.412
 2384TIP3    H1 7088   0.660   1.117   4.330
 2384TIP3    H2 7089   0.543   1.047   4.395
 2385TIP3   OH2 7090   0.601   1.556   4.299
 2385TIP3    H1 7091   0.688   1.593   4.288
 2385TIP3    H2 7092   0.543   1.616   4.251
 2386TIP3   OH2 7093   1.186   1.522   4.684
 2386TIP3    H1 7094   1.198   1.427   4.682
 2386TIP3    H2 7095   1.274   1.557   4.672
 2387TIP3   OH2 7096   1.224   1.787   4.429
 2387TIP3    H1 7097   1.172   1.848   4.378
 2387TIP3    H2 7098   1.314   1.799   4.397
 2388TIP3   OH2 7099   0.497   1.332   4.888
 2388TIP3    H1 7100   0.404   1.341   4.907
 2388TIP3    H2 7101   0.501   1.301   4.798
 2389TIP3   OH2 7102   0.710   0.879   4.590
 2389TIP3    H1 7103   0.681   0.951   4.535
 2389TIP3    H2 7104   0.714   0.803   4.531
 2390TIP3   OH2 7105   0.842   1.278   4.751
 2390TIP3    H1 7106   0.832   1.261   4.845
 2390TIP3    H2 7107   0.757   1.256   4.713
 2391TIP3   OH2 7108   1.100   1.255   4.633
 2391TIP3    H1 7109   1.017   1.236   4.677
 2391TIP3    H2 7110   1.165   1.207   4.683
 2392TIP3   OH2 7111   1.336   1.190   4.767
 2392TIP3    H1 7112   1.352   1.097   4.782
 2392TIP3    H2 7113   1.329   1.228   4.855
 2393TIP3   OH2 7114   0.738   0.794   4.847
 2393TIP3    H1 7115   0.818   0.743   4.836
 2393TIP3    H2 7116   0.716   0.824   4.759
 2394TIP3   OH2 7117   0.884   1.000   4.950
 2394TIP3    H1 7118   0.838   0.925   4.914
 2394TIP3    H2 7119   0.816   1.067   4.962
 2395TIP3   OH2 7120   8.161   2.044   3.816
 2395TIP3    H1 7121   8.177   1.977   3.883
 2395TIP3    H2 7122   8.165   2.127   3.864
 2396TIP3   OH2 7123   1.377   2.444   3.668
 2396TIP3    H1 7124   1.392   2.473   3.758
 2396TIP3    H2 7125   1.427   2.505   3.614
 2397TIP3   OH2 7126   1.390   2.478   3.947
 2397TIP3    H1 7127   1.350   2.392   3.941
 2397TIP3    H2 7128   1.461   2.467   4.011
 2398TIP3   OH2 7129   1.441   2.178   4.528
 2398TIP3    H1 7130   1.373   2.184   4.595
 2398TIP3    H2 7131   1.490   2.260   4.535
 2399TIP3   OH2 7132   1.274   1.684   3.125
 2399TIP3    H1 7133   1.329   1.758   3.097
 2399TIP3    H2 7134   1.319   1.650   3.202
 2400TIP3   OH2 7135   1.402   1.554   3.333
 2400TIP3    H1 7136   1.333   1.517   3.389
 2400TIP3    H2 7137   1.466   1.590   3.394
 2401TIP3   OH2 7138   1.447   1.952   3.766
 2401TIP3    H1 7139   1.499   1.884   3.723
 2401TIP3    H2 7140   1.448   2.026   3.705
 2402TIP3   OH2 7141   1.260   2.234   3.945
 2402TIP3    H1 7142   1.195   2.277   3.999
 2402TIP3    H2 7143   1.210   2.192   3.875
 2403TIP3   OH2 7144   1.284   1.456   2.974
 2403TIP3    H1 7145   1.209   1.464   2.915
 2403TIP3    H2 7146   1.278   1.533   3.031
 2404TIP3   OH2 7147   1.202   1.419   3.473
 2404TIP3    H1 7148   1.212   1.325   3.458
 2404TIP3    H2 7149   1.180   1.427   3.566
 2405TIP3   OH2 7150   8.332   1.537   4.199
 2405TIP3    H1 7151   8.373   1.569   4.119
 2405TIP3    H2 7152   8.402   1.490   4.245
 2406TIP3   OH2 7153   1.481   1.829   4.331
 2406TIP3    H1 7154   1.546   1.761   4.315
 2406TIP3    H2 7155   1.502   1.897   4.266
 2407TIP3   OH2 7156   1.657   1.619   4.322
 2407TIP3    H1 7157   1.585   1.575   4.367
 2407TIP3    H2 7158   1.733   1.565   4.342
 2408TIP3   OH2 7159   1.243   1.150   3.386
 2408TIP3    H1 7160   1.281   1.064   3.400
 2408TIP3    H2 7161   1.280   1.180   3.303
 2409TIP3   OH2 7162   1.349   1.323   3.877
 2409TIP3    H1 7163   1.433   1.336   3.832
 2409TIP3    H2 7164   1.365   1.354   3.966
 2410TIP3   OH2 7165   1.423   1.454   4.112
 2410TIP3    H1 7166   1.348   1.482   4.165
 2410TIP3    H2 7167   1.453   1.535   4.070
 2411TIP3   OH2 7168   1.883   1.059   4.641
 2411TIP3    H1 7169   1.948   0.998   4.606
 2411TIP3    H2 7170   1.852   1.108   4.564
 2412TIP3   OH2 7171   1.328   0.885   3.418
 2412TIP3    H1 7172   1.371   0.865   3.501
 2412TIP3    H2 7173   1.259   0.818   3.409
 2413TIP3   OH2 7174   1.735   1.182   4.448
 2413TIP3    H1 7175   1.659   1.219   4.494
 2413TIP3    H2 7176   1.699   1.111   4.396
 2414TIP3   OH2 7177   0.938   2.344   3.317
 2414TIP3    H1 7178   0.995   2.340   3.241
 2414TIP3    H2 7179   0.973   2.417   3.369
 2415TIP3   OH2 7180   8.518   2.115   4.686
 2415TIP3    H1 7181   8.457   2.048   4.656
 2415TIP3    H2 7182   8.519   2.106   4.781
 2416TIP3   OH2 7183   0.254   2.188   4.247
 2416TIP3    H1 7184   0.198   2.259   4.215
 2416TIP3    H2 7185   0.337   2.201   4.201
 2417TIP3   OH2 7186   0.847   2.545   4.234
 2417TIP3    H1 7187   0.826   2.481   4.165
 2417TIP3    H2 7188   0.872   2.624   4.187
 2418TIP3   OH2 7189   1.650   0.937   4.342
 2418TIP3    H1 7190   1.568   0.927   4.295
 2418TIP3    H2 7191   1.694   0.853   4.332
 2419TIP3   OH2 7192   8.454   2.390   4.307
 2419TIP3    H1 7193   8.365   2.392   4.270
 2419TIP3    H2 7194   8.457   2.464   4.367
 2420TIP3   OH2 7195   0.162   2.425   4.133
 2420TIP3    H1 7196   0.081   2.418   4.185
 2420TIP3    H2 7197   0.132   2.441   4.044
 2421TIP3   OH2 7198   0.549   2.447   3.930
 2421TIP3    H1 7199   0.480   2.449   3.864
 2421TIP3    H2 7200   0.553   2.537   3.964
 2422TIP3   OH2 7201   0.806   2.398   4.008
 2422TIP3    H1 7202   0.718   2.407   3.970
 2422TIP3    H2 7203   0.864   2.444   3.947
 2423TIP3   OH2 7204   1.011   2.535   3.884
 2423TIP3    H1 7205   1.016   2.624   3.849
 2423TIP3    H2 7206   1.042   2.479   3.813
 2424TIP3   OH2 7207   8.325   2.215   3.980
 2424TIP3    H1 7208   8.331   2.191   4.073
 2424TIP3    H2 7209   8.395   2.165   3.938
 2425TIP3   OH2 7210   0.031   2.084   3.853
 2425TIP3    H1 7211   0.040   2.007   3.909
 2425TIP3    H2 7212   0.115   2.128   3.858
 2426TIP3   OH2 7213   0.295   2.181   3.886
 2426TIP3    H1 7214   0.315   2.089   3.875
 2426TIP3    H2 7215   0.341   2.206   3.966
 2427TIP3   OH2 7216   0.751   0.816   3.899
 2427TIP3    H1 7217   0.823   0.879   3.905
 2427TIP3    H2 7218   0.734   0.809   3.805
 2428TIP3   OH2 7219   1.338   0.869   3.869
 2428TIP3    H1 7220   1.394   0.845   3.795
 2428TIP3    H2 7221   1.262   0.811   3.862
 2429TIP3   OH2 7222   1.482   0.820   3.640
 2429TIP3    H1 7223   1.539   0.753   3.601
 2429TIP3    H2 7224   1.526   0.903   3.622
 2430TIP3   OH2 7225   1.103   0.721   3.855
 2430TIP3    H1 7226   1.043   0.752   3.787
 2430TIP3    H2 7227   1.049   0.662   3.908
 2431TIP3   OH2 7228   0.380   2.184   3.012
 2431TIP3    H1 7229   0.464   2.178   2.967
 2431TIP3    H2 7230   0.316   2.192   2.941
 2432TIP3   OH2 7231   1.090   2.311   3.084
 2432TIP3    H1 7232   1.082   2.216   3.078
 2432TIP3    H2 7233   1.045   2.345   3.007
 2433TIP3   OH2 7234   1.414   0.929   4.803
 2433TIP3    H1 7235   1.442   0.900   4.889
 2433TIP3    H2 7236   1.494   0.926   4.749
 2434TIP3   OH2 7237   1.307   2.454   4.271
 2434TIP3    H1 7238   1.238   2.422   4.213
 2434TIP3    H2 7239   1.296   2.549   4.272
 2435TIP3   OH2 7240   2.579   1.836   3.022
 2435TIP3    H1 7241   2.550   1.922   2.992
 2435TIP3    H2 7242   2.511   1.776   2.992
 2436TIP3   OH2 7243   2.573   1.826   3.436
 2436TIP3    H1 7244   2.619   1.802   3.517
 2436TIP3    H2 7245   2.529   1.745   3.409
 2437TIP3   OH2 7246   1.878   1.689   3.779
 2437TIP3    H1 7247   1.916   1.636   3.850
 2437TIP3    H2 7248   1.954   1.716   3.726
 2438TIP3   OH2 7249   2.844   2.137   3.111
 2438TIP3    H1 7250   2.823   2.071   3.176
 2438TIP3    H2 7251   2.861   2.217   3.162
 2439TIP3   OH2 7252   1.868   2.109   3.464
 2439TIP3    H1 7253   1.849   2.015   3.474
 2439TIP3    H2 7254   1.964   2.112   3.459
 2440TIP3   OH2 7255   1.559   1.337   3.250
 2440TIP3    H1 7256   1.517   1.418   3.278
 2440TIP3    H2 7257   1.488   1.286   3.211
 2441TIP3   OH2 7258   1.633   1.634   3.473
 2441TIP3    H1 7259   1.682   1.555   3.498
 2441TIP3    H2 7260   1.700   1.698   3.451
 2442TIP3   OH2 7261   2.522   2.560   3.145
 2442TIP3    H1 7262   2.546   2.520   3.062
 2442TIP3    H2 7263   2.509   2.487   3.204
 2443TIP3   OH2 7264   2.391   2.048   3.443
 2443TIP3    H1 7265   2.436   1.967   3.417
 2443TIP3    H2 7266   2.461   2.105   3.475
 2444TIP3   OH2 7267   3.396   1.380   3.443
 2444TIP3    H1 7268   3.428   1.452   3.496
 2444TIP3    H2 7269   3.452   1.380   3.365
 2445TIP3   OH2 7270   2.793   1.522   3.483
 2445TIP3    H1 7271   2.881   1.484   3.483
 2445TIP3    H2 7272   2.761   1.510   3.394
 2446TIP3   OH2 7273   2.142   1.191   3.425
 2446TIP3    H1 7274   2.117   1.266   3.372
 2446TIP3    H2 7275   2.085   1.120   3.395
 2447TIP3   OH2 7276   2.856   1.316   3.093
 2447TIP3    H1 7277   2.922   1.296   3.159
 2447TIP3    H2 7278   2.897   1.382   3.037
 2448TIP3   OH2 7279   1.775   1.413   3.562
 2448TIP3    H1 7280   1.859   1.393   3.605
 2448TIP3    H2 7281   1.777   1.360   3.482
 2449TIP3   OH2 7282   2.198   1.609   3.380
 2449TIP3    H1 7283   2.292   1.588   3.386
 2449TIP3    H2 7284   2.158   1.529   3.347
 2450TIP3   OH2 7285   3.485   1.560   3.633
 2450TIP3    H1 7286   3.409   1.538   3.687
 2450TIP3    H2 7287   3.539   1.616   3.689
 2451TIP3   OH2 7288   2.130   1.204   3.888
 2451TIP3    H1 7289   2.079   1.239   3.815
 2451TIP3    H2 7290   2.074   1.218   3.965
 2452TIP3   OH2 7291   2.473   2.048   2.878
 2452TIP3    H1 7292   2.433   2.023   2.795
 2452TIP3    H2 7293   2.424   2.126   2.905
 2453TIP3   OH2 7294   2.227   1.971   3.654
 2453TIP3    H1 7295   2.171   2.041   3.689
 2453TIP3    H2 7296   2.275   2.012   3.582
 2454TIP3   OH2 7297   3.051   1.294   3.293
 2454TIP3    H1 7298   3.083   1.271   3.381
 2454TIP3    H2 7299   3.129   1.318   3.244
 2455TIP3   OH2 7300   2.024   1.306   3.652
 2455TIP3    H1 7301   2.082   1.380   3.673
 2455TIP3    H2 7302   2.069   1.262   3.580
 2456TIP3   OH2 7303   2.066   2.170   3.759
 2456TIP3    H1 7304   2.049   2.259   3.728
 2456TIP3    H2 7305   1.989   2.148   3.813
 2457TIP3   OH2 7306   1.439   1.884   3.013
 2457TIP3    H1 7307   1.402   1.904   2.927
 2457TIP3    H2 7308   1.461   1.969   3.049
 2458TIP3   OH2 7309   2.875   2.379   3.258
 2458TIP3    H1 7310   2.787   2.377   3.295
 2458TIP3    H2 7311   2.879   2.461   3.208
 2459TIP3   OH2 7312   3.167   1.269   3.560
 2459TIP3    H1 7313   3.152   1.338   3.624
 2459TIP3    H2 7314   3.250   1.291   3.519
 2460TIP3   OH2 7315   2.454   0.880   3.618
 2460TIP3    H1 7316   2.445   0.788   3.643
 2460TIP3    H2 7317   2.376   0.922   3.655
 2461TIP3   OH2 7318   2.590   2.422   2.911
 2461TIP3    H1 7319   2.639   2.340   2.899
 2461TIP3    H2 7320   2.648   2.490   2.875
 2462TIP3   OH2 7321   2.737   2.197   2.859
 2462TIP3    H1 7322   2.684   2.119   2.838
 2462TIP3    H2 7323   2.784   2.172   2.938
 2463TIP3   OH2 7324   3.121   2.279   3.574
 2463TIP3    H1 7325   3.161   2.227   3.504
 2463TIP3    H2 7326   3.101   2.363   3.532
 2464TIP3   OH2 7327   2.407   1.679   2.868
 2464TIP3    H1 7328   2.326   1.725   2.848
 2464TIP3    H2 7329   2.455   1.677   2.786
 2465TIP3   OH2 7330   2.378   1.481   2.561
 2465TIP3    H1 7331   2.441   1.536   2.610
 2465TIP3    H2 7332   2.433   1.416   2.518
 2466TIP3   OH2 7333   2.760   1.763   2.826
 2466TIP3    H1 7334   2.714   1.790   2.906
 2466TIP3    H2 7335   2.833   1.709   2.858
 2467TIP3   OH2 7336   2.965   1.784   3.805
 2467TIP3    H1 7337   2.974   1.872   3.842
 2467TIP3    H2 7338   2.888   1.789   3.749
 2468TIP3   OH2 7339   1.997   1.743   3.231
 2468TIP3    H1 7340   1.960   1.682   3.167
 2468TIP3    H2 7341   2.071   1.696   3.270
 2469TIP3   OH2 7342   2.135   2.150   3.378
 2469TIP3    H1 7343   2.113   2.144   3.285
 2469TIP3    H2 7344   2.223   2.114   3.384
 2470TIP3   OH2 7345   2.094   1.737   3.604
 2470TIP3    H1 7346   2.134   1.702   3.524
 2470TIP3    H2 7347   2.142   1.818   3.621
 2471TIP3   OH2 7348   2.632   2.380   3.385
 2471TIP3    H1 7349   2.611   2.456   3.439
 2471TIP3    H2 7350   2.625   2.305   3.444
 2472TIP3   OH2 7351   2.262   2.275   3.926
 2472TIP3    H1 7352   2.202   2.331   3.974
 2472TIP3    H2 7353   2.206   2.222   3.870
 2473TIP3   OH2 7354   2.587   1.634   2.659
 2473TIP3    H1 7355   2.651   1.687   2.707
 2473TIP3    H2 7356   2.614   1.642   2.567
 2474TIP3   OH2 7357   2.024   1.821   4.062
 2474TIP3    H1 7358   2.029   1.914   4.084
 2474TIP3    H2 7359   1.930   1.802   4.057
 2475TIP3   OH2 7360   2.345   2.294   2.915
 2475TIP3    H1 7361   2.425   2.345   2.921
 2475TIP3    H2 7362   2.284   2.350   2.866
 2476TIP3   OH2 7363   2.052   2.432   4.014
 2476TIP3    H1 7364   2.023   2.438   3.922
 2476TIP3    H2 7365   1.971   2.418   4.063
 2477TIP3   OH2 7366   3.097   0.845   2.704
 2477TIP3    H1 7367   3.022   0.864   2.760
 2477TIP3    H2 7368   3.116   0.928   2.660
 2478TIP3   OH2 7369   1.867   1.587   3.032
 2478TIP3    H1 7370   1.790   1.637   3.004
 2478TIP3    H2 7371   1.833   1.500   3.052
 2479TIP3   OH2 7372   2.912   2.208   2.235
 2479TIP3    H1 7373   2.916   2.304   2.233
 2479TIP3    H2 7374   3.003   2.180   2.230
 2480TIP3   OH2 7375   1.648   1.990   3.961
 2480TIP3    H1 7376   1.579   1.972   3.898
 2480TIP3    H2 7377   1.683   1.903   3.983
 2481TIP3   OH2 7378   1.489   2.190   3.615
 2481TIP3    H1 7379   1.580   2.214   3.636
 2481TIP3    H2 7380   1.438   2.266   3.642
 2482TIP3   OH2 7381   3.358   2.644   3.671
 2482TIP3    H1 7382   3.367   2.551   3.691
 2482TIP3    H2 7383   3.276   2.670   3.712
 2483TIP3   OH2 7384   2.460   2.410   3.794
 2483TIP3    H1 7385   2.457   2.500   3.824
 2483TIP3    H2 7386   2.392   2.365   3.843
 2484TIP3   OH2 7387   2.232   2.525   2.743
 2484TIP3    H1 7388   2.185   2.506   2.662
 2484TIP3    H2 7389   2.192   2.606   2.775
 2485TIP3   OH2 7390   1.668   2.371   3.119
 2485TIP3    H1 7391   1.712   2.363   3.203
 2485TIP3    H2 7392   1.617   2.291   3.110
 2486TIP3   OH2 7393   2.427   2.455   2.371
 2486TIP3    H1 7394   2.483   2.384   2.339
 2486TIP3    H2 7395   2.460   2.474   2.459
 2487TIP3   OH2 7396   2.485   2.499   2.638
 2487TIP3    H1 7397   2.401   2.503   2.683
 2487TIP3    H2 7398   2.546   2.466   2.705
 2488TIP3   OH2 7399   3.229   1.742   3.922
 2488TIP3    H1 7400   3.140   1.752   3.887
 2488TIP3    H2 7401   3.248   1.649   3.910
 2489TIP3   OH2 7402   1.850   2.174   3.931
 2489TIP3    H1 7403   1.900   2.162   4.011
 2489TIP3    H2 7404   1.777   2.113   3.938
 2490TIP3   OH2 7405   2.228   0.986   3.743
 2490TIP3    H1 7406   2.143   0.954   3.712
 2490TIP3    H2 7407   2.206   1.066   3.792
 2491TIP3   OH2 7408   2.804   1.141   3.914
 2491TIP3    H1 7409   2.883   1.121   3.964
 2491TIP3    H2 7410   2.737   1.155   3.981
 2492TIP3   OH2 7411   3.003   1.508   3.829
 2492TIP3    H1 7412   2.953   1.484   3.907
 2492TIP3    H2 7413   2.983   1.600   3.815
 2493TIP3   OH2 7414   2.653   1.636   2.395
 2493TIP3    H1 7415   2.624   1.612   2.307
 2493TIP3    H2 7416   2.743   1.666   2.384
 2494TIP3   OH2 7417   2.385   1.037   2.700
 2494TIP3    H1 7418   2.357   1.043   2.792
 2494TIP3    H2 7419   2.367   0.946   2.676
 2495TIP3   OH2 7420   2.182   1.515   3.749
 2495TIP3    H1 7421   2.135   1.520   3.832
 2495TIP3    H2 7422   2.159   1.595   3.703
 2496TIP3   OH2 7423   2.050   1.401   3.276
 2496TIP3    H1 7424   1.960   1.376   3.300
 2496TIP3    H2 7425   2.061   1.368   3.187
 2497TIP3   OH2 7426   2.536   1.473   2.998
 2497TIP3    H1 7427   2.488   1.546   2.957
 2497TIP3    H2 7428   2.601   1.448   2.932
 2498TIP3   OH2 7429   2.713   1.751   4.084
 2498TIP3    H1 7430   2.690   1.680   4.145
 2498TIP3    H2 7431   2.806   1.766   4.099
 2499TIP3   OH2 7432   2.689   1.490   3.230
 2499TIP3    H1 7433   2.626   1.511   3.161
 2499TIP3    H2 7434   2.746   1.424   3.192
 2500TIP3   OH2 7435   2.015   1.530   3.968
 2500TIP3    H1 7436   2.026   1.596   4.037
 2500TIP3    H2 7437   1.994   1.450   4.015
 2501TIP3   OH2 7438   2.055   1.008   2.675
 2501TIP3    H1 7439   2.059   1.010   2.771
 2501TIP3    H2 7440   1.970   1.046   2.654
 2502TIP3   OH2 7441   1.606   1.043   3.553
 2502TIP3    H1 7442   1.678   1.084   3.601
 2502TIP3    H2 7443   1.644   1.020   3.468
 2503TIP3   OH2 7444   1.564   1.057   3.073
 2503TIP3    H1 7445   1.601   1.082   2.988
 2503TIP3    H2 7446   1.490   1.116   3.086
 2504TIP3   OH2 7447   2.715   1.721   3.654
 2504TIP3    H1 7448   2.748   1.654   3.594
 2504TIP3    H2 7449   2.689   1.672   3.732
 2505TIP3   OH2 7450   2.407   1.196   3.329
 2505TIP3    H1 7451   2.321   1.176   3.366
 2505TIP3    H2 7452   2.444   1.261   3.388
 2506TIP3   OH2 7453   1.814   1.271   3.330
 2506TIP3    H1 7454   1.725   1.280   3.293
 2506TIP3    H2 7455   1.838   1.181   3.310
 2507TIP3   OH2 7456   2.076   1.280   3.033
 2507TIP3    H1 7457   2.171   1.291   3.021
 2507TIP3    H2 7458   2.039   1.300   2.947
 2508TIP3   OH2 7459   1.959   1.308   2.788
 2508TIP3    H1 7460   1.894   1.254   2.743
 2508TIP3    H2 7461   2.011   1.348   2.719
 2509TIP3   OH2 7462   3.039   2.980   3.736
 2509TIP3    H1 7463   3.027   2.986   3.641
 2509TIP3    H2 7464   3.121   3.026   3.753
 2510TIP3   OH2 7465   2.006   2.086   4.162
 2510TIP3    H1 7466   2.086   2.107   4.210
 2510TIP3    H2 7467   1.936   2.095   4.227
 2511TIP3   OH2 7468   2.470   1.541   3.424
 2511TIP3    H1 7469   2.549   1.517   3.375
 2511TIP3    H2 7470   2.487   1.510   3.513
 2512TIP3   OH2 7471   1.951   1.023   3.305
 2512TIP3    H1 7472   1.922   0.950   3.360
 2512TIP3    H2 7473   1.968   0.983   3.220
 2513TIP3   OH2 7474   2.456   1.457   3.709
 2513TIP3    H1 7475   2.369   1.495   3.723
 2513TIP3    H2 7476   2.514   1.509   3.766
 2514TIP3   OH2 7477   2.171   1.816   2.809
 2514TIP3    H1 7478   2.098   1.757   2.787
 2514TIP3    H2 7479   2.145   1.857   2.891
 2515TIP3   OH2 7480   3.093   1.997   3.343
 2515TIP3    H1 7481   3.106   2.086   3.310
 2515TIP3    H2 7482   2.998   1.987   3.349
 2516TIP3   OH2 7483   2.645   1.145   2.720
 2516TIP3    H1 7484   2.550   1.135   2.713
 2516TIP3    H2 7485   2.658   1.239   2.731
 2517TIP3   OH2 7486   2.588   2.148   3.829
 2517TIP3    H1 7487   2.636   2.132   3.911
 2517TIP3    H2 7488   2.548   2.234   3.842
 2518TIP3   OH2 7489   2.714   1.412   2.790
 2518TIP3    H1 7490   2.801   1.436   2.820
 2518TIP3    H2 7491   2.689   1.482   2.730
 2519TIP3   OH2 7492   1.859   1.819   3.460
 2519TIP3    H1 7493   1.899   1.804   3.374
 2519TIP3    H2 7494   1.926   1.790   3.522
 2520TIP3   OH2 7495   2.321   1.978   2.649
 2520TIP3    H1 7496   2.273   2.061   2.649
 2520TIP3    H2 7497   2.266   1.919   2.703
 2521TIP3   OH2 7498   1.750   1.759   4.091
 2521TIP3    H1 7499   1.755   1.737   4.184
 2521TIP3    H2 7500   1.673   1.711   4.059
 2522TIP3   OH2 7501   2.479   1.900   4.117
 2522TIP3    H1 7502   2.413   1.836   4.089
 2522TIP3    H2 7503   2.562   1.861   4.091
 2523TIP3   OH2 7504   2.722   2.442   3.696
 2523TIP3    H1 7505   2.630   2.418   3.712
 2523TIP3    H2 7506   2.752   2.478   3.780
 2524TIP3   OH2 7507   3.361   2.347   3.700
 2524TIP3    H1 7508   3.266   2.343   3.694
 2524TIP3    H2 7509   3.392   2.323   3.613
 2525TIP3   OH2 7510   2.838   2.288   2.526
 2525TIP3    H1 7511   2.819   2.234   2.603
 2525TIP3    H2 7512   2.864   2.226   2.458
 2526TIP3   OH2 7513   2.823   1.932   3.323
 2526TIP3    H1 7514   2.734   1.913   3.351
 2526TIP3    H2 7515   2.853   1.851   3.283
 2527TIP3   OH2 7516   1.988   2.170   3.132
 2527TIP3    H1 7517   1.983   2.244   3.072
 2527TIP3    H2 7518   1.903   2.170   3.178
 2528TIP3   OH2 7519   1.542   1.461   2.863
 2528TIP3    H1 7520   1.581   1.545   2.886
 2528TIP3    H2 7521   1.456   1.462   2.907
 2529TIP3   OH2 7522   2.068   1.926   3.032
 2529TIP3    H1 7523   2.050   2.015   3.063
 2529TIP3    H2 7524   2.045   1.870   3.106
 2530TIP3   OH2 7525   2.268   2.505   3.605
 2530TIP3    H1 7526   2.292   2.595   3.624
 2530TIP3    H2 7527   2.340   2.453   3.639
 2531TIP3   OH2 7528   1.900   2.389   2.971
 2531TIP3    H1 7529   1.814   2.391   3.013
 2531TIP3    H2 7530   1.931   2.479   2.973
 2532TIP3   OH2 7531   2.624   2.155   3.555
 2532TIP3    H1 7532   2.610   2.151   3.649
 2532TIP3    H2 7533   2.707   2.110   3.540
 2533TIP3   OH2 7534   2.634   2.017   2.418
 2533TIP3    H1 7535   2.683   1.996   2.498
 2533TIP3    H2 7536   2.549   1.973   2.430
 2534TIP3   OH2 7537   2.868   2.657   3.592
 2534TIP3    H1 7538   2.803   2.589   3.608
 2534TIP3    H2 7539   2.833   2.706   3.518
 2535TIP3   OH2 7540   2.921   2.486   2.231
 2535TIP3    H1 7541   2.942   2.542   2.156
 2535TIP3    H2 7542   2.854   2.535   2.279
 2536TIP3   OH2 7543   1.957   1.281   4.092
 2536TIP3    H1 7544   1.861   1.291   4.096
 2536TIP3    H2 7545   1.978   1.228   4.169
 2537TIP3   OH2 7546   2.790   1.958   2.633
 2537TIP3    H1 7547   2.774   1.895   2.703
 2537TIP3    H2 7548   2.886   1.960   2.624
 2538TIP3   OH2 7549   1.697   2.381   3.740
 2538TIP3    H1 7550   1.751   2.321   3.792
 2538TIP3    H2 7551   1.708   2.466   3.783
 2539TIP3   OH2 7552   1.963   2.004   2.440
 2539TIP3    H1 7553   1.975   1.914   2.412
 2539TIP3    H2 7554   1.949   1.999   2.534
 2540TIP3   OH2 7555   1.906   2.015   2.712
 2540TIP3    H1 7556   1.969   1.987   2.778
 2540TIP3    H2 7557   1.906   2.110   2.717
 2541TIP3   OH2 7558   1.640   1.712   2.928
 2541TIP3    H1 7559   1.575   1.761   2.978
 2541TIP3    H2 7560   1.659   1.768   2.852
 2542TIP3   OH2 7561   2.708   1.097   2.991
 2542TIP3    H1 7562   2.690   1.115   2.898
 2542TIP3    H2 7563   2.756   1.174   3.021
 2543TIP3   OH2 7564   2.176   2.206   2.646
 2543TIP3    H1 7565   2.090   2.228   2.682
 2543TIP3    H2 7566   2.198   2.281   2.591
 2544TIP3   OH2 7567   2.354   1.281   3.067
 2544TIP3    H1 7568   2.417   1.349   3.041
 2544TIP3    H2 7569   2.374   1.264   3.158
 2545TIP3   OH2 7570   2.656   1.572   3.879
 2545TIP3    H1 7571   2.657   1.645   3.942
 2545TIP3    H2 7572   2.717   1.508   3.916
 2546TIP3   OH2 7573   2.518   0.989   3.165
 2546TIP3    H1 7574   2.492   1.065   3.217
 2546TIP3    H2 7575   2.588   1.021   3.108
 2547TIP3   OH2 7576   1.923   2.288   2.718
 2547TIP3    H1 7577   1.901   2.360   2.659
 2547TIP3    H2 7578   1.913   2.324   2.806
 2548TIP3   OH2 7579   2.038   1.012   2.968
 2548TIP3    H1 7580   2.034   1.101   3.001
 2548TIP3    H2 7581   2.131   0.989   2.973
 2549TIP3   OH2 7582   3.270   1.479   3.789
 2549TIP3    H1 7583   3.176   1.476   3.807
 2549TIP3    H2 7584   3.301   1.391   3.811
 2550TIP3   OH2 7585   2.913   1.690   3.219
 2550TIP3    H1 7586   2.834   1.637   3.228
 2550TIP3    H2 7587   2.951   1.664   3.136
 2551TIP3   OH2 7588   1.659   1.884   2.707
 2551TIP3    H1 7589   1.729   1.948   2.717
 2551TIP3    H2 7590   1.693   1.821   2.644
 2552TIP3   OH2 7591   1.586   1.191   2.831
 2552TIP3    H1 7592   1.591   1.284   2.853
 2552TIP3    H2 7593   1.517   1.186   2.765
 2553TIP3   OH2 7594   2.912   2.638   3.165
 2553TIP3    H1 7595   2.874   2.689   3.094
 2553TIP3    H2 7596   3.007   2.652   3.157
 2554TIP3   OH2 7597   1.970   0.900   3.702
 2554TIP3    H1 7598   1.937   0.867   3.619
 2554TIP3    H2 7599   1.968   0.824   3.760
 2555TIP3   OH2 7600   1.487   2.154   3.090
 2555TIP3    H1 7601   1.443   2.191   3.166
 2555TIP3    H2 7602   1.445   2.196   3.015
 2556TIP3   OH2 7603   1.693   2.689   4.164
 2556TIP3    H1 7604   1.775   2.696   4.215
 2556TIP3    H2 7605   1.680   2.595   4.153
 2557TIP3   OH2 7606   2.156   2.604   4.202
 2557TIP3    H1 7607   2.247   2.577   4.215
 2557TIP3    H2 7608   2.124   2.547   4.133
 2558TIP3   OH2 7609   2.118   2.202   2.325
 2558TIP3    H1 7610   2.073   2.130   2.370
 2558TIP3    H2 7611   2.198   2.162   2.290
 2559TIP3   OH2 7612   2.787   2.540   3.942
 2559TIP3    H1 7613   2.785   2.472   4.008
 2559TIP3    H2 7614   2.861   2.595   3.965
 2560TIP3   OH2 7615   2.585   2.250   2.281
 2560TIP3    H1 7616   2.608   2.181   2.343
 2560TIP3    H2 7617   2.669   2.282   2.248
 2561TIP3   OH2 7618   1.798   2.088   4.350
 2561TIP3    H1 7619   1.819   1.995   4.361
 2561TIP3    H2 7620   1.711   2.088   4.310
 2562TIP3   OH2 7621   1.794   1.697   2.560
 2562TIP3    H1 7622   1.847   1.674   2.636
 2562TIP3    H2 7623   1.859   1.711   2.490
 2563TIP3   OH2 7624   2.418   2.175   4.132
 2563TIP3    H1 7625   2.372   2.195   4.050
 2563TIP3    H2 7626   2.451   2.086   4.120
 2564TIP3   OH2 7627   2.376   1.914   2.390
 2564TIP3    H1 7628   2.350   1.931   2.481
 2564TIP3    H2 7629   2.352   1.823   2.374
 2565TIP3   OH2 7630   2.896   2.207   3.719
 2565TIP3    H1 7631   2.974   2.234   3.672
 2565TIP3    H2 7632   2.835   2.280   3.710
 2566TIP3   OH2 7633   1.915   1.833   4.358
 2566TIP3    H1 7634   1.993   1.811   4.307
 2566TIP3    H2 7635   1.948   1.852   4.446
 2567TIP3   OH2 7636   1.967   1.633   2.768
 2567TIP3    H1 7637   1.944   1.603   2.856
 2567TIP3    H2 7638   2.014   1.558   2.729
 2568TIP3   OH2 7639   2.284   1.716   4.013
 2568TIP3    H1 7640   2.198   1.757   4.021
 2568TIP3    H2 7641   2.315   1.743   3.927
 2569TIP3   OH2 7642   2.104   1.448   2.604
 2569TIP3    H1 7643   2.077   1.457   2.513
 2569TIP3    H2 7644   2.200   1.456   2.602
 2570TIP3   OH2 7645   2.770   2.093   4.098
 2570TIP3    H1 7646   2.850   2.066   4.053
 2570TIP3    H2 7647   2.769   2.040   4.178
 2571TIP3   OH2 7648   2.878   1.757   2.287
 2571TIP3    H1 7649   2.874   1.717   2.201
 2571TIP3    H2 7650   2.886   1.851   2.269
 2572TIP3   OH2 7651   2.381   1.486   4.129
 2572TIP3    H1 7652   2.384   1.414   4.066
 2572TIP3    H2 7653   2.349   1.561   4.079
 2573TIP3   OH2 7654   2.392   1.279   3.924
 2573TIP3    H1 7655   2.414   1.327   3.844
 2573TIP3    H2 7656   2.300   1.256   3.914
 2574TIP3   OH2 7657   2.403   1.802   3.782
 2574TIP3    H1 7658   2.491   1.836   3.766
 2574TIP3    H2 7659   2.345   1.865   3.739
 2575TIP3   OH2 7660   2.982   1.767   4.179
 2575TIP3    H1 7661   3.027   1.683   4.190
 2575TIP3    H2 7662   3.052   1.831   4.168
 2576TIP3   OH2 7663   3.018   2.044   3.904
 2576TIP3    H1 7664   2.966   2.102   3.848
 2576TIP3    H2 7665   3.108   2.058   3.874
 2577TIP3   OH2 7666   2.261   1.572   4.368
 2577TIP3    H1 7667   2.194   1.507   4.390
 2577TIP3    H2 7668   2.291   1.546   4.281
 2578TIP3   OH2 7669   2.515   1.036   3.985
 2578TIP3    H1 7670   2.473   1.121   3.970
 2578TIP3    H2 7671   2.442   0.974   3.992
 2579TIP3   OH2 7672   2.642   1.526   4.224
 2579TIP3    H1 7673   2.645   1.514   4.319
 2579TIP3    H2 7674   2.552   1.506   4.200
 2580TIP3   OH2 7675   2.862   1.463   4.063
 2580TIP3    H1 7676   2.791   1.475   4.126
 2580TIP3    H2 7677   2.940   1.453   4.117
 2581TIP3   OH2 7678   3.094   1.454   4.229
 2581TIP3    H1 7679   3.114   1.361   4.238
 2581TIP3    H2 7680   3.090   1.487   4.319
 2582TIP3   OH2 7681   2.100   1.348   4.432
 2582TIP3    H1 7682   2.104   1.259   4.396
 2582TIP3    H2 7683   2.137   1.341   4.520
 2583TIP3   OH2 7684   2.586   1.042   4.260
 2583TIP3    H1 7685   2.659   0.980   4.261
 2583TIP3    H2 7686   2.555   1.040   4.169
 2584TIP3   OH2 7687   2.669   1.246   4.427
 2584TIP3    H1 7688   2.642   1.178   4.366
 2584TIP3    H2 7689   2.596   1.307   4.430
 2585TIP3   OH2 7690   1.917   2.499   2.535
 2585TIP3    H1 7691   2.008   2.477   2.512
 2585TIP3    H2 7692   1.884   2.546   2.459
 2586TIP3   OH2 7693   1.381   1.879   2.716
 2586TIP3    H1 7694   1.475   1.892   2.715
 2586TIP3    H2 7695   1.369   1.791   2.679
 2587TIP3   OH2 7696   1.296   2.464   3.179
 2587TIP3    H1 7697   1.229   2.411   3.135
 2587TIP3    H2 7698   1.339   2.404   3.239
 2588TIP3   OH2 7699   1.439   2.296   3.346
 2588TIP3    H1 7700   1.429   2.227   3.411
 2588TIP3    H2 7701   1.492   2.363   3.389
 2589TIP3   OH2 7702   3.179   2.702   3.156
 2589TIP3    H1 7703   3.196   2.733   3.245
 2589TIP3    H2 7704   3.227   2.763   3.100
 2590TIP3   OH2 7705   3.191   2.741   3.432
 2590TIP3    H1 7706   3.152   2.653   3.436
 2590TIP3    H2 7707   3.266   2.736   3.492
 2591TIP3   OH2 7708   3.223   2.422   4.007
 2591TIP3    H1 7709   3.155   2.433   4.074
 2591TIP3    H2 7710   3.277   2.501   4.015
 2592TIP3   OH2 7711   3.066   1.945   2.616
 2592TIP3    H1 7712   3.132   2.012   2.594
 2592TIP3    H2 7713   3.106   1.895   2.688
 2593TIP3   OH2 7714   3.179   1.779   2.808
 2593TIP3    H1 7715   3.117   1.722   2.854
 2593TIP3    H2 7716   3.240   1.809   2.876
 2594TIP3   OH2 7717   3.258   2.206   3.243
 2594TIP3    H1 7718   3.300   2.157   3.172
 2594TIP3    H2 7719   3.251   2.295   3.209
 2595TIP3   OH2 7720   3.047   2.504   3.442
 2595TIP3    H1 7721   2.984   2.553   3.494
 2595TIP3    H2 7722   2.996   2.464   3.373
 2596TIP3   OH2 7723   3.119   1.748   2.426
 2596TIP3    H1 7724   3.034   1.726   2.389
 2596TIP3    H2 7725   3.099   1.809   2.497
 2597TIP3   OH2 7726   2.867   1.388   2.394
 2597TIP3    H1 7727   2.847   1.355   2.306
 2597TIP3    H2 7728   2.932   1.326   2.428
 2598TIP3   OH2 7729   1.614   1.730   3.729
 2598TIP3    H1 7730   1.603   1.697   3.640
 2598TIP3    H2 7731   1.708   1.726   3.745
 2599TIP3   OH2 7732   3.283   2.088   3.819
 2599TIP3    H1 7733   3.342   2.016   3.799
 2599TIP3    H2 7734   3.319   2.163   3.772
 2600TIP3   OH2 7735   3.436   1.859   3.787
 2600TIP3    H1 7736   3.364   1.819   3.835
 2600TIP3    H2 7737   3.513   1.808   3.812
 2601TIP3   OH2 7738   2.929   1.099   2.384
 2601TIP3    H1 7739   2.990   1.084   2.457
 2601TIP3    H2 7740   2.844   1.072   2.418
 2602TIP3   OH2 7741   1.841   1.421   4.369
 2602TIP3    H1 7742   1.935   1.414   4.386
 2602TIP3    H2 7743   1.804   1.340   4.406
 2603TIP3   OH2 7744   3.686   1.279   4.120
 2603TIP3    H1 7745   3.712   1.213   4.056
 2603TIP3    H2 7746   3.651   1.350   4.068
 2604TIP3   OH2 7747   3.142   1.087   2.886
 2604TIP3    H1 7748   3.166   1.090   2.979
 2604TIP3    H2 7749   3.060   1.038   2.884
 2605TIP3   OH2 7750   1.813   1.128   3.717
 2605TIP3    H1 7751   1.864   1.047   3.725
 2605TIP3    H2 7752   1.879   1.195   3.698
 2606TIP3   OH2 7753   1.598   1.393   3.781
 2606TIP3    H1 7754   1.647   1.381   3.700
 2606TIP3    H2 7755   1.629   1.476   3.817
 2607TIP3   OH2 7756   3.530   1.448   3.963
 2607TIP3    H1 7757   3.465   1.479   4.026
 2607TIP3    H2 7758   3.487   1.374   3.919
 2608TIP3   OH2 7759   3.155   1.063   2.540
 2608TIP3    H1 7760   3.212   1.009   2.486
 2608TIP3    H2 7761   3.205   1.144   2.553
 2609TIP3   OH2 7762   1.592   0.906   3.297
 2609TIP3    H1 7763   1.503   0.902   3.332
 2609TIP3    H2 7764   1.585   0.962   3.220
 2610TIP3   OH2 7765   2.740   2.608   2.791
 2610TIP3    H1 7766   2.797   2.596   2.716
 2610TIP3    H2 7767   2.782   2.676   2.844
 2611TIP3   OH2 7768   1.811   0.971   4.104
 2611TIP3    H1 7769   1.761   0.972   4.186
 2611TIP3    H2 7770   1.754   1.014   4.040
 2612TIP3   OH2 7771   1.829   2.407   4.180
 2612TIP3    H1 7772   1.736   2.387   4.171
 2612TIP3    H2 7773   1.847   2.398   4.274
 2613TIP3   OH2 7774   2.030   2.443   3.732
 2613TIP3    H1 7775   1.974   2.510   3.692
 2613TIP3    H2 7776   2.117   2.458   3.694
 2614TIP3   OH2 7777   2.450   2.684   3.854
 2614TIP3    H1 7778   2.482   2.675   3.944
 2614TIP3    H2 7779   2.521   2.730   3.808
 2615TIP3   OH2 7780   2.658   2.825   3.735
 2615TIP3    H1 7781   2.732   2.775   3.702
 2615TIP3    H2 7782   2.696   2.889   3.795
 2616TIP3   OH2 7783   3.385   1.231   3.829
 2616TIP3    H1 7784   3.327   1.155   3.837
 2616TIP3    H2 7785   3.473   1.195   3.835
 2617TIP3   OH2 7786   1.696   2.697   3.774
 2617TIP3    H1 7787   1.604   2.713   3.753
 2617TIP3    H2 7788   1.718   2.762   3.840
 2618TIP3   OH2 7789   1.920   2.667   3.618
 2618TIP3    H1 7790   1.837   2.677   3.666
 2618TIP3    H2 7791   1.900   2.697   3.530
 2619TIP3   OH2 7792   2.252   2.860   3.375
 2619TIP3    H1 7793   2.218   2.776   3.343
 2619TIP3    H2 7794   2.325   2.836   3.432
 2620TIP3   OH2 7795   2.568   2.660   3.410
 2620TIP3    H1 7796   2.552   2.636   3.318
 2620TIP3    H2 7797   2.641   2.721   3.406
 2621TIP3   OH2 7798   2.800   2.798   3.360
 2621TIP3    H1 7799   2.812   2.887   3.328
 2621TIP3    H2 7800   2.841   2.742   3.294
 2622TIP3   OH2 7801   1.614   2.472   3.488
 2622TIP3    H1 7802   1.636   2.448   3.578
 2622TIP3    H2 7803   1.687   2.437   3.436
 2623TIP3   OH2 7804   1.816   2.350   3.351
 2623TIP3    H1 7805   1.823   2.266   3.396
 2623TIP3    H2 7806   1.902   2.391   3.363
 2624TIP3   OH2 7807   2.078   2.421   3.408
 2624TIP3    H1 7808   2.104   2.329   3.399
 2624TIP3    H2 7809   2.143   2.458   3.469
 2625TIP3   OH2 7810   2.704   1.088   3.550
 2625TIP3    H1 7811   2.621   1.048   3.523
 2625TIP3    H2 7812   2.764   1.071   3.477
 2626TIP3   OH2 7813   3.150   0.993   3.359
 2626TIP3    H1 7814   3.187   1.044   3.287
 2626TIP3    H2 7815   3.057   1.016   3.359
 2627TIP3   OH2 7816   3.267   1.087   3.134
 2627TIP3    H1 7817   3.333   1.025   3.103
 2627TIP3    H2 7818   3.303   1.173   3.111
 2628TIP3   OH2 7819   1.876   0.806   3.460
 2628TIP3    H1 7820   1.788   0.769   3.465
 2628TIP3    H2 7821   1.934   0.730   3.458
 2629TIP3   OH2 7822   1.672   0.681   3.157
 2629TIP3    H1 7823   1.632   0.714   3.077
 2629TIP3    H2 7824   1.659   0.751   3.221
 2630TIP3   OH2 7825   2.363   0.838   3.350
 2630TIP3    H1 7826   2.416   0.887   3.287
 2630TIP3    H2 7827   2.401   0.861   3.435
 2631TIP3   OH2 7828   2.863   0.977   3.356
 2631TIP3    H1 7829   2.860   0.952   3.264
 2631TIP3    H2 7830   2.871   0.895   3.403
 2632TIP3   OH2 7831   2.914   0.925   2.898
 2632TIP3    H1 7832   2.840   0.978   2.927
 2632TIP3    H2 7833   2.900   0.839   2.939
 2633TIP3   OH2 7834   1.376   2.271   2.863
 2633TIP3    H1 7835   1.290   2.241   2.834
 2633TIP3    H2 7836   1.378   2.364   2.839
 2634TIP3   OH2 7837   1.804   0.934   2.844
 2634TIP3    H1 7838   1.789   0.842   2.868
 2634TIP3    H2 7839   1.878   0.961   2.897
 2635TIP3   OH2 7840   2.315   1.031   2.966
 2635TIP3    H1 7841   2.372   0.979   3.022
 2635TIP3    H2 7842   2.328   1.121   2.996
 2636TIP3   OH2 7843   2.173   2.426   2.470
 2636TIP3    H1 7844   2.257   2.454   2.434
 2636TIP3    H2 7845   2.144   2.355   2.413
 2637TIP3   OH2 7846   2.888   2.558   2.563
 2637TIP3    H1 7847   2.876   2.463   2.552
 2637TIP3    H2 7848   2.843   2.596   2.487
 2638TIP3   OH2 7849   2.112   1.076   4.347
 2638TIP3    H1 7850   2.077   1.009   4.406
 2638TIP3    H2 7851   2.204   1.084   4.372
 2639TIP3   OH2 7852   2.360   1.081   4.467
 2639TIP3    H1 7853   2.440   1.060   4.419
 2639TIP3    H2 7854   2.354   1.014   4.534
 2640TIP3   OH2 7855   1.485   2.272   2.545
 2640TIP3    H1 7856   1.479   2.275   2.641
 2640TIP3    H2 7857   1.571   2.232   2.528
 2641TIP3   OH2 7858   3.175   1.192   4.256
 2641TIP3    H1 7859   3.187   1.157   4.345
 2641TIP3    H2 7860   3.261   1.182   4.215
 2642TIP3   OH2 7861   3.100   2.709   3.751
 2642TIP3    H1 7862   3.022   2.679   3.703
 2642TIP3    H2 7863   3.086   2.803   3.760
 2643TIP3   OH2 7864   4.372   2.090   2.500
 2643TIP3    H1 7865   4.336   2.177   2.481
 2643TIP3    H2 7866   4.302   2.030   2.473
 2644TIP3   OH2 7867   4.352   2.081   2.934
 2644TIP3    H1 7868   4.413   2.064   3.006
 2644TIP3    H2 7869   4.315   1.995   2.914
 2645TIP3   OH2 7870   3.661   1.950   3.294
 2645TIP3    H1 7871   3.702   1.889   3.355
 2645TIP3    H2 7872   3.730   1.976   3.234
 2646TIP3   OH2 7873   3.662   2.373   2.953
 2646TIP3    H1 7874   3.646   2.279   2.958
 2646TIP3    H2 7875   3.757   2.381   2.945
 2647TIP3   OH2 7876   3.298   1.516   2.759
 2647TIP3    H1 7877   3.269   1.605   2.741
 2647TIP3    H2 7878   3.236   1.483   2.824
 2648TIP3   OH2 7879   3.406   1.885   2.965
 2648TIP3    H1 7880   3.464   1.810   2.979
 2648TIP3    H2 7881   3.463   1.951   2.925
 2649TIP3   OH2 7882   4.307   2.815   2.613
 2649TIP3    H1 7883   4.333   2.749   2.549
 2649TIP3    H2 7884   4.318   2.771   2.698
 2650TIP3   OH2 7885   4.176   2.305   2.937
 2650TIP3    H1 7886   4.222   2.224   2.913
 2650TIP3    H2 7887   4.247   2.366   2.960
 2651TIP3   OH2 7888   5.218   1.625   2.942
 2651TIP3    H1 7889   5.232   1.710   2.983
 2651TIP3    H2 7890   5.237   1.638   2.850
 2652TIP3   OH2 7891   4.583   1.791   2.964
 2652TIP3    H1 7892   4.620   1.707   2.991
 2652TIP3    H2 7893   4.545   1.773   2.878
 2653TIP3   OH2 7894   3.939   1.453   2.925
 2653TIP3    H1 7895   3.916   1.527   2.869
 2653TIP3    H2 7896   3.884   1.381   2.893
 2654TIP3   OH2 7897   4.637   1.556   2.557
 2654TIP3    H1 7898   4.701   1.550   2.629
 2654TIP3    H2 7899   4.687   1.589   2.483
 2655TIP3   OH2 7900   3.575   1.681   3.026
 2655TIP3    H1 7901   3.647   1.650   3.082
 2655TIP3    H2 7902   3.575   1.621   2.952
 2656TIP3   OH2 7903   3.978   1.865   2.873
 2656TIP3    H1 7904   4.072   1.850   2.877
 2656TIP3    H2 7905   3.942   1.783   2.839
 2657TIP3   OH2 7906   5.269   1.847   3.108
 2657TIP3    H1 7907   5.182   1.885   3.099
 2657TIP3    H2 7908   5.303   1.884   3.190
 2658TIP3   OH2 7909   3.932   1.454   3.371
 2658TIP3    H1 7910   3.874   1.489   3.303
 2658TIP3    H2 7911   3.883   1.466   3.452
 2659TIP3   OH2 7912   4.236   2.302   2.385
 2659TIP3    H1 7913   4.228   2.290   2.291
 2659TIP3    H2 7914   4.192   2.385   2.403
 2660TIP3   OH2 7915   4.018   2.224   3.150
 2660TIP3    H1 7916   3.965   2.297   3.182
 2660TIP3    H2 7917   4.069   2.261   3.078
 2661TIP3   OH2 7918   4.798   1.578   2.778
 2661TIP3    H1 7919   4.759   1.555   2.862
 2661TIP3    H2 7920   4.857   1.650   2.798
 2662TIP3   OH2 7921   3.803   1.558   3.146
 2662TIP3    H1 7922   3.857   1.634   3.168
 2662TIP3    H2 7923   3.852   1.514   3.076
 2663TIP3   OH2 7924   3.860   2.433   3.247
 2663TIP3    H1 7925   3.850   2.522   3.216
 2663TIP3    H2 7926   3.782   2.416   3.299
 2664TIP3   OH2 7927   3.244   2.135   2.504
 2664TIP3    H1 7928   3.209   2.153   2.417
 2664TIP3    H2 7929   3.267   2.221   2.539
 2665TIP3   OH2 7930   4.689   2.666   2.774
 2665TIP3    H1 7931   4.597   2.639   2.785
 2665TIP3    H2 7932   4.684   2.742   2.716
 2666TIP3   OH2 7933   5.019   1.515   3.113
 2666TIP3    H1 7934   4.932   1.535   3.077
 2666TIP3    H2 7935   5.080   1.542   3.044
 2667TIP3   OH2 7936   4.265   1.147   3.105
 2667TIP3    H1 7937   4.258   1.055   3.130
 2667TIP3    H2 7938   4.188   1.189   3.142
 2668TIP3   OH2 7939   4.397   2.648   2.409
 2668TIP3    H1 7940   4.455   2.571   2.413
 2668TIP3    H2 7941   4.450   2.717   2.371
 2669TIP3   OH2 7942   4.927   2.520   3.094
 2669TIP3    H1 7943   4.903   2.452   3.031
 2669TIP3    H2 7944   4.911   2.602   3.047
 2670TIP3   OH2 7945   4.201   1.928   2.347
 2670TIP3    H1 7946   4.122   1.977   2.328
 2670TIP3    H2 7947   4.254   1.935   2.268
 2671TIP3   OH2 7948   4.172   1.747   2.050
 2671TIP3    H1 7949   4.236   1.799   2.098
 2671TIP3    H2 7950   4.223   1.678   2.008
 2672TIP3   OH2 7951   5.092   2.193   2.954
 2672TIP3    H1 7952   5.008   2.239   2.950
 2672TIP3    H2 7953   5.128   2.201   2.866
 2673TIP3   OH2 7954   4.561   2.025   2.311
 2673TIP3    H1 7955   4.505   2.054   2.383
 2673TIP3    H2 7956   4.642   1.997   2.353
 2674TIP3   OH2 7957   4.787   2.049   3.253
 2674TIP3    H1 7958   4.782   2.132   3.301
 2674TIP3    H2 7959   4.706   2.046   3.202
 2675TIP3   OH2 7960   3.786   2.002   2.718
 2675TIP3    H1 7961   3.753   1.940   2.652
 2675TIP3    H2 7962   3.858   1.956   2.760
 2676TIP3   OH2 7963   3.925   2.421   2.860
 2676TIP3    H1 7964   3.907   2.408   2.767
 2676TIP3    H2 7965   4.012   2.384   2.874
 2677TIP3   OH2 7966   3.873   1.997   3.096
 2677TIP3    H1 7967   3.912   1.961   3.017
 2677TIP3    H2 7968   3.925   2.075   3.115
 2678TIP3   OH2 7969   4.423   2.632   2.849
 2678TIP3    H1 7970   4.421   2.711   2.903
 2678TIP3    H2 7971   4.416   2.560   2.911
 2679TIP3   OH2 7972   4.065   2.527   3.412
 2679TIP3    H1 7973   4.007   2.587   3.458
 2679TIP3    H2 7974   4.007   2.476   3.356
 2680TIP3   OH2 7975   4.395   1.888   2.141
 2680TIP3    H1 7976   4.454   1.947   2.188
 2680TIP3    H2 7977   4.424   1.892   2.050
 2681TIP3   OH2 7978   3.828   2.105   3.540
 2681TIP3    H1 7979   3.824   2.196   3.568
 2681TIP3    H2 7980   3.738   2.084   3.515
 2682TIP3   OH2 7981   4.134   2.560   2.398
 2682TIP3    H1 7982   4.222   2.596   2.409
 2682TIP3    H2 7983   4.086   2.628   2.351
 2683TIP3   OH2 7984   3.864   2.693   3.495
 2683TIP3    H1 7985   3.835   2.707   3.405
 2683TIP3    H2 7986   3.784   2.674   3.544
 2684TIP3   OH2 7987   4.903   1.112   2.214
 2684TIP3    H1 7988   4.824   1.141   2.259
 2684TIP3    H2 7989   4.919   1.179   2.148
 2685TIP3   OH2 7990   3.669   1.841   2.515
 2685TIP3    H1 7991   3.591   1.888   2.486
 2685TIP3    H2 7992   3.640   1.750   2.524
 2686TIP3   OH2 7993   4.717   2.487   1.722
 2686TIP3    H1 7994   4.719   2.582   1.713
 2686TIP3    H2 7995   4.807   2.459   1.704
 2687TIP3   OH2 7996   3.440   2.246   3.459
 2687TIP3    H1 7997   3.392   2.218   3.381
 2687TIP3    H2 7998   3.479   2.166   3.493
 2688TIP3   OH2 7999   3.297   2.448   3.107
 2688TIP3    H1 8000   3.391   2.465   3.109
 2688TIP3    H2 8001   3.257   2.530   3.134
 2689TIP3   OH2 8002   5.153   2.913   3.148
 2689TIP3    H1 8003   5.158   2.817   3.152
 2689TIP3    H2 8004   5.071   2.934   3.193
 2690TIP3   OH2 8005   4.252   2.671   3.271
 2690TIP3    H1 8006   4.246   2.762   3.299
 2690TIP3    H2 8007   4.185   2.626   3.322
 2691TIP3   OH2 8008   4.035   2.774   2.232
 2691TIP3    H1 8009   3.993   2.755   2.148
 2691TIP3    H2 8010   3.997   2.858   2.259
 2692TIP3   OH2 8011   3.463   2.632   2.607
 2692TIP3    H1 8012   3.510   2.625   2.690
 2692TIP3    H2 8013   3.417   2.549   2.599
 2693TIP3   OH2 8014   4.233   2.703   1.853
 2693TIP3    H1 8015   4.284   2.630   1.819
 2693TIP3    H2 8016   4.270   2.720   1.940
 2694TIP3   OH2 8017   4.288   2.756   2.120
 2694TIP3    H1 8018   4.208   2.752   2.172
 2694TIP3    H2 8019   4.357   2.729   2.180
 2695TIP3   OH2 8020   5.036   2.005   3.415
 2695TIP3    H1 8021   4.952   2.018   3.371
 2695TIP3    H2 8022   5.054   1.912   3.406
 2696TIP3   OH2 8023   3.637   2.440   3.413
 2696TIP3    H1 8024   3.684   2.445   3.496
 2696TIP3    H2 8025   3.567   2.377   3.429
 2697TIP3   OH2 8026   4.026   1.235   3.227
 2697TIP3    H1 8027   3.940   1.204   3.199
 2697TIP3    H2 8028   4.008   1.317   3.274
 2698TIP3   OH2 8029   4.571   1.362   3.429
 2698TIP3    H1 8030   4.639   1.339   3.491
 2698TIP3    H2 8031   4.489   1.346   3.476
 2699TIP3   OH2 8032   4.793   1.785   3.346
 2699TIP3    H1 8033   4.752   1.781   3.432
 2699TIP3    H2 8034   4.776   1.874   3.315
 2700TIP3   OH2 8035   4.469   1.849   1.875
 2700TIP3    H1 8036   4.428   1.856   1.789
 2700TIP3    H2 8037   4.551   1.897   1.866
 2701TIP3   OH2 8038   4.172   1.296   2.199
 2701TIP3    H1 8039   4.141   1.301   2.289
 2701TIP3    H2 8040   4.143   1.210   2.168
 2702TIP3   OH2 8041   3.960   1.769   3.229
 2702TIP3    H1 8042   3.924   1.777   3.317
 2702TIP3    H2 8043   3.935   1.850   3.185
 2703TIP3   OH2 8044   3.834   1.649   2.764
 2703TIP3    H1 8045   3.743   1.627   2.783
 2703TIP3    H2 8046   3.849   1.617   2.675
 2704TIP3   OH2 8047   4.325   1.725   2.485
 2704TIP3    H1 8048   4.277   1.797   2.444
 2704TIP3    H2 8049   4.386   1.695   2.417
 2705TIP3   OH2 8050   4.519   1.993   3.559
 2705TIP3    H1 8051   4.491   1.926   3.621
 2705TIP3    H2 8052   4.611   2.008   3.580
 2706TIP3   OH2 8053   4.488   1.738   2.713
 2706TIP3    H1 8054   4.423   1.764   2.648
 2706TIP3    H2 8055   4.537   1.667   2.671
 2707TIP3   OH2 8056   3.802   1.772   3.461
 2707TIP3    H1 8057   3.868   1.821   3.509
 2707TIP3    H2 8058   3.789   1.692   3.511
 2708TIP3   OH2 8059   3.837   1.259   2.175
 2708TIP3    H1 8060   3.830   1.265   2.270
 2708TIP3    H2 8061   3.764   1.311   2.143
 2709TIP3   OH2 8062   3.389   1.312   3.050
 2709TIP3    H1 8063   3.461   1.348   3.103
 2709TIP3    H2 8064   3.429   1.294   2.965
 2710TIP3   OH2 8065   3.303   1.306   2.568
 2710TIP3    H1 8066   3.327   1.342   2.482
 2710TIP3    H2 8067   3.292   1.383   2.624
 2711TIP3   OH2 8068   4.530   1.992   3.137
 2711TIP3    H1 8069   4.556   1.927   3.072
 2711TIP3    H2 8070   4.489   1.941   3.207
 2712TIP3   OH2 8071   4.210   1.439   2.811
 2712TIP3    H1 8072   4.133   1.441   2.868
 2712TIP3    H2 8073   4.284   1.433   2.871
 2713TIP3   OH2 8074   3.588   1.517   2.807
 2713TIP3    H1 8075   3.497   1.504   2.779
 2713TIP3    H2 8076   3.628   1.431   2.798
 2714TIP3   OH2 8077   3.860   1.530   2.519
 2714TIP3    H1 8078   3.954   1.541   2.510
 2714TIP3    H2 8079   3.825   1.549   2.432
 2715TIP3   OH2 8080   4.662   1.530   3.020
 2715TIP3    H1 8081   4.642   1.548   3.112
 2715TIP3    H2 8082   4.593   1.470   2.992
 2716TIP3   OH2 8083   3.747   1.559   2.272
 2716TIP3    H1 8084   3.684   1.512   2.218
 2716TIP3    H2 8085   3.803   1.605   2.210
 2717TIP3   OH2 8086   4.861   3.239   3.239
 2717TIP3    H1 8087   4.857   3.257   3.145
 2717TIP3    H2 8088   4.939   3.286   3.269
 2718TIP3   OH2 8089   3.799   2.357   3.653
 2718TIP3    H1 8090   3.881   2.376   3.698
 2718TIP3    H2 8091   3.731   2.379   3.717
 2719TIP3   OH2 8092   4.253   1.809   2.915
 2719TIP3    H1 8093   4.322   1.765   2.865
 2719TIP3    H2 8094   4.254   1.767   3.001
 2720TIP3   OH2 8095   3.746   1.281   2.808
 2720TIP3    H1 8096   3.717   1.206   2.860
 2720TIP3    H2 8097   3.772   1.243   2.724
 2721TIP3   OH2 8098   4.231   1.713   3.180
 2721TIP3    H1 8099   4.142   1.743   3.202
 2721TIP3    H2 8100   4.288   1.765   3.236
 2722TIP3   OH2 8101   3.971   2.073   2.287
 2722TIP3    H1 8102   3.895   2.018   2.264
 2722TIP3    H2 8103   3.946   2.115   2.369
 2723TIP3   OH2 8104   4.858   2.328   2.912
 2723TIP3    H1 8105   4.882   2.376   2.833
 2723TIP3    H2 8106   4.777   2.281   2.888
 2724TIP3   OH2 8107   4.428   1.395   2.192
 2724TIP3    H1 8108   4.334   1.377   2.191
 2724TIP3    H2 8109   4.434   1.489   2.208
 2725TIP3   OH2 8110   4.375   2.406   3.305
 2725TIP3    H1 8111   4.428   2.402   3.385
 2725TIP3    H2 8112   4.334   2.493   3.308
 2726TIP3   OH2 8113   4.492   1.656   2.269
 2726TIP3    H1 8114   4.587   1.659   2.281
 2726TIP3    H2 8115   4.472   1.736   2.221
 2727TIP3   OH2 8116   3.648   2.087   2.944
 2727TIP3    H1 8117   3.687   2.067   2.859
 2727TIP3    H2 8118   3.713   2.055   3.008
 2728TIP3   OH2 8119   4.125   2.230   2.120
 2728TIP3    H1 8120   4.077   2.312   2.123
 2728TIP3    H2 8121   4.077   2.171   2.178
 2729TIP3   OH2 8122   3.548   2.046   3.618
 2729TIP3    H1 8123   3.610   2.072   3.685
 2729TIP3    H2 8124   3.507   1.967   3.653
 2730TIP3   OH2 8125   4.296   2.160   3.582
 2730TIP3    H1 8126   4.245   2.137   3.505
 2730TIP3    H2 8127   4.379   2.112   3.571
 2731TIP3   OH2 8128   4.524   2.694   3.198
 2731TIP3    H1 8129   4.429   2.681   3.200
 2731TIP3    H2 8130   4.545   2.732   3.283
 2732TIP3   OH2 8131   4.913   1.726   2.084
 2732TIP3    H1 8132   4.855   1.678   2.025
 2732TIP3    H2 8133   4.918   1.814   2.047
 2733TIP3   OH2 8134   5.171   2.635   3.163
 2733TIP3    H1 8135   5.080   2.609   3.174
 2733TIP3    H2 8136   5.199   2.595   3.081
 2734TIP3   OH2 8137   4.610   2.574   1.972
 2734TIP3    H1 8138   4.662   2.533   2.041
 2734TIP3    H2 8139   4.639   2.533   1.892
 2735TIP3   OH2 8140   4.637   2.170   2.845
 2735TIP3    H1 8141   4.541   2.162   2.843
 2735TIP3    H2 8142   4.668   2.096   2.793
 2736TIP3   OH2 8143   3.790   2.427   2.609
 2736TIP3    H1 8144   3.791   2.503   2.551
 2736TIP3    H2 8145   3.700   2.423   2.642
 2737TIP3   OH2 8146   3.362   1.712   2.312
 2737TIP3    H1 8147   3.407   1.793   2.338
 2737TIP3    H2 8148   3.277   1.718   2.356
 2738TIP3   OH2 8149   3.861   2.179   2.511
 2738TIP3    H1 8150   3.851   2.269   2.542
 2738TIP3    H2 8151   3.838   2.125   2.587
 2739TIP3   OH2 8152   4.067   2.748   3.066
 2739TIP3    H1 8153   4.103   2.822   3.017
 2739TIP3    H2 8154   4.141   2.714   3.116
 2740TIP3   OH2 8155   3.697   2.651   2.460
 2740TIP3    H1 8156   3.611   2.658   2.501
 2740TIP3    H2 8157   3.733   2.740   2.465
 2741TIP3   OH2 8158   4.418   2.414   3.030
 2741TIP3    H1 8159   4.407   2.407   3.125
 2741TIP3    H2 8160   4.498   2.364   3.012
 2742TIP3   OH2 8161   4.400   2.286   1.922
 2742TIP3    H1 8162   4.463   2.278   1.994
 2742TIP3    H2 8163   4.316   2.262   1.961
 2743TIP3   OH2 8164   4.669   2.917   3.088
 2743TIP3    H1 8165   4.601   2.850   3.099
 2743TIP3    H2 8166   4.641   2.967   3.012
 2744TIP3   OH2 8167   4.728   2.764   1.716
 2744TIP3    H1 8168   4.766   2.840   1.672
 2744TIP3    H2 8169   4.651   2.798   1.761
 2745TIP3   OH2 8170   3.780   1.521   3.593
 2745TIP3    H1 8171   3.687   1.498   3.597
 2745TIP3    H2 8172   3.819   1.476   3.668
 2746TIP3   OH2 8173   4.569   2.244   2.129
 2746TIP3    H1 8174   4.581   2.174   2.193
 2746TIP3    H2 8175   4.641   2.304   2.144
 2747TIP3   OH2 8176   3.492   2.651   3.227
 2747TIP3    H1 8177   3.546   2.596   3.284
 2747TIP3    H2 8178   3.504   2.740   3.260
 2748TIP3   OH2 8179   3.758   2.261   1.928
 2748TIP3    H1 8180   3.775   2.170   1.900
 2748TIP3    H2 8181   3.747   2.255   2.022
 2749TIP3   OH2 8182   3.700   2.271   2.200
 2749TIP3    H1 8183   3.767   2.243   2.262
 2749TIP3    H2 8184   3.702   2.366   2.204
 2750TIP3   OH2 8185   3.445   1.964   2.406
 2750TIP3    H1 8186   3.379   2.008   2.459
 2750TIP3    H2 8187   3.462   2.025   2.334
 2751TIP3   OH2 8188   4.600   1.594   3.281
 2751TIP3    H1 8189   4.677   1.640   3.314
 2751TIP3    H2 8190   4.592   1.517   3.337
 2752TIP3   OH2 8191   4.482   1.343   2.464
 2752TIP3    H1 8192   4.465   1.362   2.372
 2752TIP3    H2 8193   4.528   1.421   2.497
 2753TIP3   OH2 8194   3.971   2.452   2.129
 2753TIP3    H1 8195   3.889   2.478   2.170
 2753TIP3    H2 8196   3.998   2.530   2.080
 2754TIP3   OH2 8197   4.138   1.537   2.560
 2754TIP3    H1 8198   4.201   1.604   2.533
 2754TIP3    H2 8199   4.163   1.516   2.650
 2755TIP3   OH2 8200   4.434   1.828   3.336
 2755TIP3    H1 8201   4.461   1.872   3.416
 2755TIP3    H2 8202   4.486   1.747   3.335
 2756TIP3   OH2 8203   4.305   1.230   2.644
 2756TIP3    H1 8204   4.281   1.307   2.697
 2756TIP3    H2 8205   4.372   1.263   2.584
 2757TIP3   OH2 8206   3.722   2.543   2.209
 2757TIP3    H1 8207   3.704   2.614   2.148
 2757TIP3    H2 8208   3.713   2.583   2.296
 2758TIP3   OH2 8209   3.818   1.258   2.455
 2758TIP3    H1 8210   3.807   1.349   2.484
 2758TIP3    H2 8211   3.913   1.243   2.460
 2759TIP3   OH2 8212   5.058   1.734   3.325
 2759TIP3    H1 8213   4.963   1.740   3.337
 2759TIP3    H2 8214   5.069   1.684   3.244
 2760TIP3   OH2 8215   4.721   1.925   2.719
 2760TIP3    H1 8216   4.644   1.870   2.734
 2760TIP3    H2 8217   4.789   1.885   2.773
 2761TIP3   OH2 8218   3.451   2.143   2.188
 2761TIP3    H1 8219   3.519   2.209   2.201
 2761TIP3    H2 8220   3.490   2.080   2.127
 2762TIP3   OH2 8221   3.352   1.433   2.330
 2762TIP3    H1 8222   3.376   1.526   2.332
 2762TIP3    H2 8223   3.290   1.426   2.258
 2763TIP3   OH2 8224   4.701   2.915   2.651
 2763TIP3    H1 8225   4.660   2.961   2.578
 2763TIP3    H2 8226   4.795   2.925   2.636
 2764TIP3   OH2 8227   3.758   1.158   3.198
 2764TIP3    H1 8228   3.730   1.125   3.113
 2764TIP3    H2 8229   3.750   1.082   3.257
 2765TIP3   OH2 8230   3.287   2.407   2.586
 2765TIP3    H1 8231   3.249   2.446   2.665
 2765TIP3    H2 8232   3.243   2.451   2.514
 2766TIP3   OH2 8233   3.457   2.912   3.609
 2766TIP3    H1 8234   3.539   2.926   3.657
 2766TIP3    H2 8235   3.433   2.822   3.628
 2767TIP3   OH2 8236   3.964   2.867   3.688
 2767TIP3    H1 8237   4.055   2.841   3.702
 2767TIP3    H2 8238   3.933   2.810   3.617
 2768TIP3   OH2 8239   3.918   2.457   1.814
 2768TIP3    H1 8240   3.873   2.387   1.861
 2768TIP3    H2 8241   3.994   2.413   1.775
 2769TIP3   OH2 8242   4.579   2.794   3.448
 2769TIP3    H1 8243   4.593   2.725   3.513
 2769TIP3    H2 8244   4.651   2.855   3.461
 2770TIP3   OH2 8245   4.362   2.490   1.738
 2770TIP3    H1 8246   4.392   2.430   1.807
 2770TIP3    H2 8247   4.431   2.486   1.672
 2771TIP3   OH2 8248   3.595   2.353   3.847
 2771TIP3    H1 8249   3.621   2.261   3.853
 2771TIP3    H2 8250   3.508   2.351   3.808
 2772TIP3   OH2 8251   3.584   1.955   2.042
 2772TIP3    H1 8252   3.636   1.930   2.119
 2772TIP3    H2 8253   3.650   1.970   1.974
 2773TIP3   OH2 8254   4.219   2.430   3.619
 2773TIP3    H1 8255   4.174   2.451   3.537
 2773TIP3    H2 8256   4.258   2.344   3.604
 2774TIP3   OH2 8257   4.097   2.173   1.851
 2774TIP3    H1 8258   4.101   2.186   1.946
 2774TIP3    H2 8259   4.102   2.079   1.840
 2775TIP3   OH2 8260   4.690   2.470   3.235
 2775TIP3    H1 8261   4.770   2.497   3.188
 2775TIP3    H2 8262   4.627   2.539   3.217
 2776TIP3   OH2 8263   3.720   2.098   3.830
 2776TIP3    H1 8264   3.804   2.087   3.785
 2776TIP3    H2 8265   3.744   2.113   3.921
 2777TIP3   OH2 8266   3.758   1.896   2.251
 2777TIP3    H1 8267   3.741   1.869   2.341
 2777TIP3    H2 8268   3.808   1.824   2.213
 2778TIP3   OH2 8269   4.034   1.936   3.480
 2778TIP3    H1 8270   3.970   2.002   3.506
 2778TIP3    H2 8271   4.094   1.982   3.421
 2779TIP3   OH2 8272   3.904   1.711   2.107
 2779TIP3    H1 8273   3.876   1.721   2.016
 2779TIP3    H2 8274   3.999   1.719   2.105
 2780TIP3   OH2 8275   4.573   2.348   3.588
 2780TIP3    H1 8276   4.639   2.308   3.532
 2780TIP3    H2 8277   4.569   2.292   3.666
 2781TIP3   OH2 8278   4.682   1.992   1.775
 2781TIP3    H1 8279   4.667   1.958   1.687
 2781TIP3    H2 8280   4.660   2.085   1.769
 2782TIP3   OH2 8281   4.177   1.740   3.609
 2782TIP3    H1 8282   4.184   1.665   3.550
 2782TIP3    H2 8283   4.132   1.807   3.558
 2783TIP3   OH2 8284   4.189   1.540   3.408
 2783TIP3    H1 8285   4.216   1.577   3.324
 2783TIP3    H2 8286   4.098   1.512   3.394
 2784TIP3   OH2 8287   4.195   2.094   3.322
 2784TIP3    H1 8288   4.281   2.109   3.282
 2784TIP3    H2 8289   4.134   2.142   3.267
 2785TIP3   OH2 8290   4.784   2.033   3.658
 2785TIP3    H1 8291   4.834   1.951   3.664
 2785TIP3    H2 8292   4.851   2.101   3.649
 2786TIP3   OH2 8293   4.806   2.290   3.401
 2786TIP3    H1 8294   4.754   2.353   3.351
 2786TIP3    H2 8295   4.896   2.305   3.371
 2787TIP3   OH2 8296   4.066   1.834   3.851
 2787TIP3    H1 8297   3.998   1.770   3.874
 2787TIP3    H2 8298   4.095   1.807   3.764
 2788TIP3   OH2 8299   4.308   1.308   3.508
 2788TIP3    H1 8300   4.267   1.389   3.477
 2788TIP3    H2 8301   4.240   1.241   3.498
 2789TIP3   OH2 8302   4.432   1.782   3.712
 2789TIP3    H1 8303   4.421   1.769   3.807
 2789TIP3    H2 8304   4.346   1.763   3.675
 2790TIP3   OH2 8305   4.678   1.735   3.585
 2790TIP3    H1 8306   4.599   1.736   3.639
 2790TIP3    H2 8307   4.749   1.714   3.646
 2791TIP3   OH2 8308   4.916   1.704   3.734
 2791TIP3    H1 8309   4.927   1.609   3.741
 2791TIP3    H2 8310   4.909   1.734   3.825
 2792TIP3   OH2 8311   3.891   1.634   3.929
 2792TIP3    H1 8312   3.890   1.548   3.887
 2792TIP3    H2 8313   3.929   1.619   4.015
 2793TIP3   OH2 8314   4.373   1.289   3.775
 2793TIP3    H1 8315   4.439   1.220   3.769
 2793TIP3    H2 8316   4.342   1.300   3.685
 2794TIP3   OH2 8317   4.466   1.502   3.922
 2794TIP3    H1 8318   4.435   1.429   3.868
 2794TIP3    H2 8319   4.394   1.565   3.922
 2795TIP3   OH2 8320   3.720   2.749   2.024
 2795TIP3    H1 8321   3.811   2.731   2.001
 2795TIP3    H2 8322   3.685   2.797   1.949
 2796TIP3   OH2 8323   3.175   2.116   2.211
 2796TIP3    H1 8324   3.268   2.136   2.203
 2796TIP3    H2 8325   3.167   2.027   2.175
 2797TIP3   OH2 8326   3.089   2.716   2.665
 2797TIP3    H1 8327   3.028   2.660   2.617
 2797TIP3    H2 8328   3.134   2.657   2.725
 2798TIP3   OH2 8329   3.234   2.551   2.835
 2798TIP3    H1 8330   3.225   2.486   2.905
 2798TIP3    H2 8331   3.288   2.620   2.874
 2799TIP3   OH2 8332   4.973   2.960   2.648
 2799TIP3    H1 8333   4.989   2.992   2.736
 2799TIP3    H2 8334   5.028   3.015   2.592
 2800TIP3   OH2 8335   4.989   2.999   2.926
 2800TIP3    H1 8336   4.945   2.915   2.929
 2800TIP3    H2 8337   5.062   2.990   2.987
 2801TIP3   OH2 8338   5.047   2.685   3.494
 2801TIP3    H1 8339   4.973   2.695   3.554
 2801TIP3    H2 8340   5.091   2.770   3.497
 2802TIP3   OH2 8341   4.889   2.155   2.102
 2802TIP3    H1 8342   4.864   2.246   2.119
 2802TIP3    H2 8343   4.929   2.126   2.184
 2803TIP3   OH2 8344   4.995   2.032   2.324
 2803TIP3    H1 8345   4.919   2.006   2.376
 2803TIP3    H2 8346   5.050   2.081   2.385
 2804TIP3   OH2 8347   5.045   2.463   2.741
 2804TIP3    H1 8348   5.087   2.397   2.686
 2804TIP3    H2 8349   5.042   2.541   2.687
 2805TIP3   OH2 8350   4.860   2.756   2.964
 2805TIP3    H1 8351   4.793   2.803   3.013
 2805TIP3    H2 8352   4.812   2.717   2.890
 2806TIP3   OH2 8353   4.905   1.954   1.929
 2806TIP3    H1 8354   4.827   1.962   1.875
 2806TIP3    H2 8355   4.901   2.029   1.989
 2807TIP3   OH2 8356   4.760   1.612   1.887
 2807TIP3    H1 8357   4.709   1.647   1.814
 2807TIP3    H2 8358   4.754   1.517   1.877
 2808TIP3   OH2 8359   4.776   1.918   2.449
 2808TIP3    H1 8360   4.783   1.824   2.435
 2808TIP3    H2 8361   4.760   1.926   2.543
 2809TIP3   OH2 8362   3.395   1.920   3.235
 2809TIP3    H1 8363   3.401   1.912   3.140
 2809TIP3    H2 8364   3.486   1.935   3.263
 2810TIP3   OH2 8365   5.059   2.339   3.299
 2810TIP3    H1 8366   5.129   2.278   3.276
 2810TIP3    H2 8367   5.045   2.391   3.220
 2811TIP3   OH2 8368   5.246   2.131   3.293
 2811TIP3    H1 8369   5.172   2.092   3.338
 2811TIP3    H2 8370   5.320   2.075   3.316
 2812TIP3   OH2 8371   4.725   1.339   1.857
 2812TIP3    H1 8372   4.792   1.319   1.922
 2812TIP3    H2 8373   4.645   1.299   1.891
 2813TIP3   OH2 8374   4.780   1.646   2.328
 2813TIP3    H1 8375   4.826   1.564   2.343
 2813TIP3    H2 8376   4.824   1.685   2.252
 2814TIP3   OH2 8377   4.941   1.806   2.854
 2814TIP3    H1 8378   5.019   1.828   2.803
 2814TIP3    H2 8379   4.954   1.849   2.938
 2815TIP3   OH2 8380   5.009   1.960   3.079
 2815TIP3    H1 8381   4.935   1.988   3.132
 2815TIP3    H2 8382   5.040   2.041   3.037
 2816TIP3   OH2 8383   3.630   1.673   3.846
 2816TIP3    H1 8384   3.723   1.675   3.866
 2816TIP3    H2 8385   3.597   1.596   3.892
 2817TIP3   OH2 8386   5.475   1.554   3.620
 2817TIP3    H1 8387   5.538   1.498   3.573
 2817TIP3    H2 8388   5.434   1.607   3.552
 2818TIP3   OH2 8389   4.896   1.400   2.386
 2818TIP3    H1 8390   4.940   1.381   2.469
 2818TIP3    H2 8391   4.833   1.329   2.376
 2819TIP3   OH2 8392   3.593   1.383   3.229
 2819TIP3    H1 8393   3.647   1.304   3.235
 2819TIP3    H2 8394   3.655   1.452   3.207
 2820TIP3   OH2 8395   5.323   1.679   3.433
 2820TIP3    H1 8396   5.247   1.720   3.475
 2820TIP3    H2 8397   5.285   1.615   3.373
 2821TIP3   OH2 8398   4.948   1.309   2.022
 2821TIP3    H1 8399   4.994   1.240   1.974
 2821TIP3    H2 8400   5.012   1.380   2.027
 2822TIP3   OH2 8401   3.388   1.147   2.773
 2822TIP3    H1 8402   3.305   1.120   2.813
 2822TIP3    H2 8403   3.362   1.207   2.703
 2823TIP3   OH2 8404   4.521   2.853   2.286
 2823TIP3    H1 8405   4.579   2.849   2.210
 2823TIP3    H2 8406   4.559   2.922   2.341
 2824TIP3   OH2 8407   3.612   1.235   3.555
 2824TIP3    H1 8408   3.610   1.217   3.649
 2824TIP3    H2 8409   3.524   1.267   3.536
 2825TIP3   OH2 8410   3.644   2.657   3.657
 2825TIP3    H1 8411   3.550   2.647   3.671
 2825TIP3    H2 8412   3.667   2.735   3.708
 2826TIP3   OH2 8413   3.838   2.709   3.213
 2826TIP3    H1 8414   3.787   2.785   3.183
 2826TIP3    H2 8415   3.923   2.719   3.170
 2827TIP3   OH2 8416   4.244   2.937   3.345
 2827TIP3    H1 8417   4.278   2.932   3.434
 2827TIP3    H2 8418   4.307   2.992   3.298
 2828TIP3   OH2 8419   4.434   3.096   3.223
 2828TIP3    H1 8420   4.500   3.043   3.177
 2828TIP3    H2 8421   4.485   3.154   3.279
 2829TIP3   OH2 8422   5.229   1.436   3.310
 2829TIP3    H1 8423   5.145   1.441   3.263
 2829TIP3    H2 8424   5.256   1.345   3.303
 2830TIP3   OH2 8425   3.491   2.938   3.257
 2830TIP3    H1 8426   3.400   2.958   3.237
 2830TIP3    H2 8427   3.515   3.000   3.326
 2831TIP3   OH2 8428   3.727   2.941   3.111
 2831TIP3    H1 8429   3.643   2.944   3.158
 2831TIP3    H2 8430   3.705   2.966   3.022
 2832TIP3   OH2 8431   4.144   2.960   2.905
 2832TIP3    H1 8432   4.073   2.973   2.842
 2832TIP3    H2 8433   4.155   3.045   2.946
 2833TIP3   OH2 8434   4.407   2.889   2.949
 2833TIP3    H1 8435   4.316   2.912   2.931
 2833TIP3    H2 8436   4.459   2.958   2.907
 2834TIP3   OH2 8437   4.606   3.067   2.858
 2834TIP3    H1 8438   4.606   3.155   2.821
 2834TIP3    H2 8439   4.638   3.011   2.788
 2835TIP3   OH2 8440   3.409   2.732   2.973
 2835TIP3    H1 8441   3.433   2.712   3.063
 2835TIP3    H2 8442   3.483   2.699   2.921
 2836TIP3   OH2 8443   3.614   2.615   2.837
 2836TIP3    H1 8444   3.624   2.531   2.882
 2836TIP3    H2 8445   3.700   2.656   2.843
 2837TIP3   OH2 8446   3.880   2.700   2.864
 2837TIP3    H1 8447   3.900   2.608   2.850
 2837TIP3    H2 8448   3.935   2.725   2.938
 2838TIP3   OH2 8449   4.441   1.353   2.948
 2838TIP3    H1 8450   4.404   1.280   2.998
 2838TIP3    H2 8451   4.510   1.312   2.895
 2839TIP3   OH2 8452   4.939   1.274   2.852
 2839TIP3    H1 8453   4.975   1.318   2.775
 2839TIP3    H2 8454   4.844   1.289   2.846
 2840TIP3   OH2 8455   5.052   1.336   2.609
 2840TIP3    H1 8456   5.122   1.281   2.574
 2840TIP3    H2 8457   5.086   1.425   2.601
 2841TIP3   OH2 8458   3.675   1.055   2.954
 2841TIP3    H1 8459   3.586   1.021   2.961
 2841TIP3    H2 8460   3.730   0.977   2.944
 2842TIP3   OH2 8461   3.505   0.957   2.601
 2842TIP3    H1 8462   3.532   1.007   2.523
 2842TIP3    H2 8463   3.471   1.023   2.660
 2843TIP3   OH2 8464   4.161   1.088   2.843
 2843TIP3    H1 8465   4.208   1.135   2.775
 2843TIP3    H2 8466   4.200   1.118   2.925
 2844TIP3   OH2 8467   4.655   1.237   2.816
 2844TIP3    H1 8468   4.669   1.204   2.727
 2844TIP3    H2 8469   4.659   1.160   2.872
 2845TIP3   OH2 8470   4.706   1.195   2.390
 2845TIP3    H1 8471   4.624   1.238   2.413
 2845TIP3    H2 8472   4.697   1.106   2.424
 2846TIP3   OH2 8473   3.164   2.528   2.372
 2846TIP3    H1 8474   3.082   2.493   2.337
 2846TIP3    H2 8475   3.171   2.616   2.335
 2847TIP3   OH2 8476   3.615   1.086   2.369
 2847TIP3    H1 8477   3.664   1.026   2.313
 2847TIP3    H2 8478   3.682   1.145   2.405
 2848TIP3   OH2 8479   4.093   1.285   2.463
 2848TIP3    H1 8480   4.153   1.233   2.516
 2848TIP3    H2 8481   4.107   1.375   2.493
 2849TIP3   OH2 8482   3.979   2.680   1.961
 2849TIP3    H1 8483   4.064   2.706   1.924
 2849TIP3    H2 8484   3.949   2.609   1.904
 2850TIP3   OH2 8485   4.668   2.831   2.051
 2850TIP3    H1 8486   4.658   2.737   2.037
 2850TIP3    H2 8487   4.629   2.871   1.974
 2851TIP3   OH2 8488   3.878   1.382   3.817
 2851TIP3    H1 8489   3.823   1.305   3.833
 2851TIP3    H2 8490   3.963   1.358   3.853
 2852TIP3   OH2 8491   4.126   1.345   3.944
 2852TIP3    H1 8492   4.206   1.322   3.898
 2852TIP3    H2 8493   4.122   1.285   4.019
 2853TIP3   OH2 8494   3.298   2.541   2.022
 2853TIP3    H1 8495   3.302   2.559   2.117
 2853TIP3    H2 8496   3.379   2.493   2.004
 2854TIP3   OH2 8497   4.977   1.432   3.740
 2854TIP3    H1 8498   4.993   1.404   3.830
 2854TIP3    H2 8499   5.062   1.425   3.697
 2855TIP3   OH2 8500   4.898   2.967   3.245
 2855TIP3    H1 8501   4.820   2.937   3.197
 2855TIP3    H2 8502   4.886   3.062   3.253
 2856TIP3   OH2 8503   6.175   2.353   1.983
 2856TIP3    H1 8504   6.144   2.440   1.957
 2856TIP3    H2 8505   6.104   2.294   1.958
 2857TIP3   OH2 8506   6.176   2.340   2.407
 2857TIP3    H1 8507   6.227   2.322   2.486
 2857TIP3    H2 8508   6.129   2.259   2.389
 2858TIP3   OH2 8509   5.478   2.210   2.748
 2858TIP3    H1 8510   5.512   2.155   2.819
 2858TIP3    H2 8511   5.556   2.232   2.696
 2859TIP3   OH2 8512   6.440   2.649   2.078
 2859TIP3    H1 8513   6.427   2.583   2.147
 2859TIP3    H2 8514   6.460   2.729   2.126
 2860TIP3   OH2 8515   5.471   2.647   2.450
 2860TIP3    H1 8516   5.451   2.554   2.455
 2860TIP3    H2 8517   5.566   2.651   2.435
 2861TIP3   OH2 8518   5.147   1.824   2.226
 2861TIP3    H1 8519   5.105   1.903   2.260
 2861TIP3    H2 8520   5.076   1.776   2.182
 2862TIP3   OH2 8521   5.216   2.139   2.454
 2862TIP3    H1 8522   5.272   2.065   2.474
 2862TIP3    H2 8523   5.268   2.194   2.395
 2863TIP3   OH2 8524   6.092   3.083   2.086
 2863TIP3    H1 8525   6.123   3.015   2.026
 2863TIP3    H2 8526   6.075   3.037   2.168
 2864TIP3   OH2 8527   5.978   2.563   2.409
 2864TIP3    H1 8528   6.022   2.483   2.380
 2864TIP3    H2 8529   6.048   2.619   2.442
 2865TIP3   OH2 8530   7.010   1.879   2.433
 2865TIP3    H1 8531   7.026   1.964   2.474
 2865TIP3    H2 8532   7.041   1.889   2.343
 2866TIP3   OH2 8533   6.387   2.052   2.450
 2866TIP3    H1 8534   6.419   1.966   2.477
 2866TIP3    H2 8535   6.349   2.037   2.364
 2867TIP3   OH2 8536   5.744   1.708   2.404
 2867TIP3    H1 8537   5.719   1.782   2.348
 2867TIP3    H2 8538   5.688   1.636   2.375
 2868TIP3   OH2 8539   6.433   1.809   2.052
 2868TIP3    H1 8540   6.498   1.802   2.122
 2868TIP3    H2 8541   6.483   1.843   1.977
 2869TIP3   OH2 8542   5.367   1.922   2.536
 2869TIP3    H1 8543   5.450   1.904   2.580
 2869TIP3    H2 8544   5.370   1.869   2.456
 2870TIP3   OH2 8545   5.786   2.123   2.348
 2870TIP3    H1 8546   5.880   2.106   2.355
 2870TIP3    H2 8547   5.749   2.041   2.315
 2871TIP3   OH2 8548   7.062   2.100   2.597
 2871TIP3    H1 8549   6.975   2.140   2.591
 2871TIP3    H2 8550   7.101   2.140   2.675
 2872TIP3   OH2 8551   5.719   1.714   2.862
 2872TIP3    H1 8552   5.670   1.747   2.787
 2872TIP3    H2 8553   5.663   1.731   2.937
 2873TIP3   OH2 8554   6.075   2.571   1.844
 2873TIP3    H1 8555   6.030   2.539   1.765
 2873TIP3    H2 8556   6.021   2.644   1.874
 2874TIP3   OH2 8557   5.815   2.491   2.623
 2874TIP3    H1 8558   5.759   2.561   2.657
 2874TIP3    H2 8559   5.861   2.531   2.549
 2875TIP3   OH2 8560   6.597   1.830   2.269
 2875TIP3    H1 8561   6.553   1.810   2.352
 2875TIP3    H2 8562   6.651   1.906   2.289
 2876TIP3   OH2 8563   5.615   1.817   2.627
 2876TIP3    H1 8564   5.669   1.892   2.651
 2876TIP3    H2 8565   5.661   1.776   2.555
 2877TIP3   OH2 8566   5.659   2.692   2.731
 2877TIP3    H1 8567   5.643   2.781   2.700
 2877TIP3    H2 8568   5.580   2.670   2.781
 2878TIP3   OH2 8569   5.083   2.400   2.000
 2878TIP3    H1 8570   4.997   2.392   2.040
 2878TIP3    H2 8571   5.108   2.491   2.016
 2879TIP3   OH2 8572   6.480   2.897   2.215
 2879TIP3    H1 8573   6.396   2.889   2.259
 2879TIP3    H2 8574   6.475   2.982   2.170
 2880TIP3   OH2 8575   6.812   1.768   2.599
 2880TIP3    H1 8576   6.727   1.792   2.563
 2880TIP3    H2 8577   6.875   1.796   2.533
 2881TIP3   OH2 8578   6.063   1.406   2.593
 2881TIP3    H1 8579   6.054   1.314   2.617
 2881TIP3    H2 8580   5.987   1.449   2.631
 2882TIP3   OH2 8581   6.187   2.924   1.875
 2882TIP3    H1 8582   6.238   2.844   1.864
 2882TIP3    H2 8583   6.246   2.995   1.849
 2883TIP3   OH2 8584   6.326   2.691   1.829
 2883TIP3    H1 8585   6.248   2.636   1.831
 2883TIP3    H2 8586   6.374   2.670   1.909
 2884TIP3   OH2 8587   6.715   2.781   2.568
 2884TIP3    H1 8588   6.694   2.707   2.512
 2884TIP3    H2 8589   6.697   2.858   2.514
 2885TIP3   OH2 8590   6.003   2.189   1.835
 2885TIP3    H1 8591   5.919   2.232   1.822
 2885TIP3    H2 8592   6.043   2.189   1.748
 2886TIP3   OH2 8593   5.974   1.987   1.528
 2886TIP3    H1 8594   6.041   2.034   1.578
 2886TIP3    H2 8595   6.022   1.921   1.479
 2887TIP3   OH2 8596   6.894   2.447   2.435
 2887TIP3    H1 8597   6.808   2.490   2.431
 2887TIP3    H2 8598   6.932   2.461   2.349
 2888TIP3   OH2 8599   6.358   2.273   1.797
 2888TIP3    H1 8600   6.303   2.305   1.869
 2888TIP3    H2 8601   6.440   2.247   1.840
 2889TIP3   OH2 8602   6.588   2.306   2.744
 2889TIP3    H1 8603   6.583   2.389   2.791
 2889TIP3    H2 8604   6.506   2.302   2.694
 2890TIP3   OH2 8605   5.582   2.257   2.206
 2890TIP3    H1 8606   5.543   2.198   2.141
 2890TIP3    H2 8607   5.654   2.207   2.243
 2891TIP3   OH2 8608   5.728   2.687   2.338
 2891TIP3    H1 8609   5.697   2.668   2.250
 2891TIP3    H2 8610   5.813   2.644   2.344
 2892TIP3   OH2 8611   5.697   2.247   2.580
 2892TIP3    H1 8612   5.731   2.214   2.496
 2892TIP3    H2 8613   5.740   2.331   2.592
 2893TIP3   OH2 8614   6.252   2.887   2.359
 2893TIP3    H1 8615   6.229   2.968   2.405
 2893TIP3    H2 8616   6.230   2.817   2.421
 2894TIP3   OH2 8617   5.856   2.787   2.900
 2894TIP3    H1 8618   5.796   2.845   2.947
 2894TIP3    H2 8619   5.800   2.737   2.841
 2895TIP3   OH2 8620   6.199   2.131   1.624
 2895TIP3    H1 8621   6.253   2.187   1.680
 2895TIP3    H2 8622   6.230   2.150   1.535
 2896TIP3   OH2 8623   5.610   2.330   3.048
 2896TIP3    H1 8624   5.615   2.424   3.065
 2896TIP3    H2 8625   5.517   2.312   3.040
 2897TIP3   OH2 8626   5.937   2.806   1.891
 2897TIP3    H1 8627   6.017   2.859   1.891
 2897TIP3    H2 8628   5.873   2.859   1.845
 2898TIP3   OH2 8629   5.651   2.947   2.990
 2898TIP3    H1 8630   5.623   2.959   2.899
 2898TIP3    H2 8631   5.570   2.929   3.037
 2899TIP3   OH2 8632   6.694   1.357   1.698
 2899TIP3    H1 8633   6.616   1.378   1.749
 2899TIP3    H2 8634   6.710   1.435   1.646
 2900TIP3   OH2 8635   5.455   2.103   2.001
 2900TIP3    H1 8636   5.381   2.154   1.966
 2900TIP3    H2 8637   5.418   2.018   2.021
 2901TIP3   OH2 8638   6.501   2.744   1.251
 2901TIP3    H1 8639   6.502   2.838   1.232
 2901TIP3    H2 8640   6.591   2.716   1.240
 2902TIP3   OH2 8641   5.242   2.501   2.936
 2902TIP3    H1 8642   5.172   2.487   2.872
 2902TIP3    H2 8643   5.275   2.414   2.956
 2903TIP3   OH2 8644   5.085   2.704   2.605
 2903TIP3    H1 8645   5.175   2.735   2.619
 2903TIP3    H2 8646   5.031   2.781   2.624
 2904TIP3   OH2 8647   6.937   3.149   2.637
 2904TIP3    H1 8648   6.943   3.055   2.650
 2904TIP3    H2 8649   6.857   3.174   2.683
 2905TIP3   OH2 8650   6.046   2.930   2.763
 2905TIP3    H1 8651   6.037   3.022   2.790
 2905TIP3    H2 8652   5.976   2.885   2.810
 2906TIP3   OH2 8653   5.828   3.039   1.712
 2906TIP3    H1 8654   5.775   3.017   1.635
 2906TIP3    H2 8655   5.789   3.120   1.744
 2907TIP3   OH2 8656   5.257   2.888   2.095
 2907TIP3    H1 8657   5.298   2.881   2.182
 2907TIP3    H2 8658   5.197   2.813   2.091
 2908TIP3   OH2 8659   6.027   2.969   1.342
 2908TIP3    H1 8660   6.075   2.893   1.310
 2908TIP3    H2 8661   6.060   2.982   1.431
 2909TIP3   OH2 8662   6.081   3.007   1.614
 2909TIP3    H1 8663   5.993   3.014   1.650
 2909TIP3    H2 8664   6.134   2.971   1.685
 2910TIP3   OH2 8665   6.827   2.266   2.909
 2910TIP3    H1 8666   6.747   2.273   2.856
 2910TIP3    H2 8667   6.848   2.172   2.907
 2911TIP3   OH2 8668   5.440   2.690   2.901
 2911TIP3    H1 8669   5.488   2.679   2.984
 2911TIP3    H2 8670   5.368   2.627   2.907
 2912TIP3   OH2 8671   5.828   1.498   2.719
 2912TIP3    H1 8672   5.745   1.464   2.686
 2912TIP3    H2 8673   5.804   1.578   2.766
 2913TIP3   OH2 8674   6.364   1.617   2.919
 2913TIP3    H1 8675   6.431   1.594   2.983
 2913TIP3    H2 8676   6.281   1.604   2.965
 2914TIP3   OH2 8677   6.587   2.039   2.832
 2914TIP3    H1 8678   6.546   2.036   2.919
 2914TIP3    H2 8679   6.572   2.129   2.803
 2915TIP3   OH2 8680   6.272   2.193   1.364
 2915TIP3    H1 8681   6.211   2.163   1.297
 2915TIP3    H2 8682   6.263   2.289   1.362
 2916TIP3   OH2 8683   5.973   1.542   1.685
 2916TIP3    H1 8684   5.940   1.548   1.774
 2916TIP3    H2 8685   5.935   1.462   1.649
 2917TIP3   OH2 8686   5.768   2.026   2.729
 2917TIP3    H1 8687   5.719   2.034   2.811
 2917TIP3    H2 8688   5.748   2.107   2.681
 2918TIP3   OH2 8689   5.644   1.908   2.246
 2918TIP3    H1 8690   5.555   1.883   2.271
 2918TIP3    H2 8691   5.653   1.875   2.156
 2919TIP3   OH2 8692   6.125   1.987   1.975
 2919TIP3    H1 8693   6.078   2.060   1.934
 2919TIP3    H2 8694   6.183   1.953   1.907
 2920TIP3   OH2 8695   6.310   2.250   3.046
 2920TIP3    H1 8696   6.282   2.182   3.109
 2920TIP3    H2 8697   6.402   2.265   3.067
 2921TIP3   OH2 8698   6.291   1.999   2.199
 2921TIP3    H1 8699   6.223   2.021   2.136
 2921TIP3    H2 8700   6.337   1.924   2.161
 2922TIP3   OH2 8701   5.600   2.048   2.945
 2922TIP3    H1 8702   5.598   2.116   3.013
 2922TIP3    H2 8703   5.577   1.967   2.991
 2923TIP3   OH2 8704   5.639   1.529   1.662
 2923TIP3    H1 8705   5.632   1.536   1.757
 2923TIP3    H2 8706   5.560   1.572   1.629
 2924TIP3   OH2 8707   5.174   1.568   2.546
 2924TIP3    H1 8708   5.254   1.602   2.584
 2924TIP3    H2 8709   5.196   1.549   2.454
 2925TIP3   OH2 8710   5.113   1.540   2.033
 2925TIP3    H1 8711   5.155   1.574   1.954
 2925TIP3    H2 8712   5.045   1.603   2.053
 2926TIP3   OH2 8713   6.338   2.253   2.623
 2926TIP3    H1 8714   6.362   2.186   2.559
 2926TIP3    H2 8715   6.292   2.205   2.692
 2927TIP3   OH2 8716   6.009   1.699   2.297
 2927TIP3    H1 8717   5.929   1.700   2.350
 2927TIP3    H2 8718   6.080   1.693   2.361
 2928TIP3   OH2 8719   5.406   1.781   2.305
 2928TIP3    H1 8720   5.318   1.785   2.269
 2928TIP3    H2 8721   5.433   1.690   2.291
 2929TIP3   OH2 8722   5.662   1.788   2.000
 2929TIP3    H1 8723   5.755   1.802   1.987
 2929TIP3    H2 8724   5.623   1.807   1.914
 2930TIP3   OH2 8725   6.453   1.788   2.506
 2930TIP3    H1 8726   6.434   1.805   2.598
 2930TIP3    H2 8727   6.384   1.728   2.478
 2931TIP3   OH2 8728   5.544   1.811   1.754
 2931TIP3    H1 8729   5.476   1.766   1.703
 2931TIP3    H2 8730   5.597   1.855   1.688
 2932TIP3   OH2 8731   6.655   3.493   2.724
 2932TIP3    H1 8732   6.650   3.513   2.630
 2932TIP3    H2 8733   6.734   3.539   2.753
 2933TIP3   OH2 8734   5.599   2.596   3.139
 2933TIP3    H1 8735   5.678   2.620   3.187
 2933TIP3    H2 8736   5.527   2.609   3.202
 2934TIP3   OH2 8737   6.059   2.071   2.403
 2934TIP3    H1 8738   6.125   2.020   2.356
 2934TIP3    H2 8739   6.055   2.031   2.490
 2935TIP3   OH2 8740   5.555   1.534   2.290
 2935TIP3    H1 8741   5.523   1.461   2.342
 2935TIP3    H2 8742   5.569   1.497   2.203
 2936TIP3   OH2 8743   6.033   1.973   2.668
 2936TIP3    H1 8744   5.945   2.002   2.692
 2936TIP3    H2 8745   6.092   2.026   2.721
 2937TIP3   OH2 8746   5.765   2.322   1.788
 2937TIP3    H1 8747   5.690   2.269   1.762
 2937TIP3    H2 8748   5.737   2.365   1.869
 2938TIP3   OH2 8749   6.655   2.580   2.389
 2938TIP3    H1 8750   6.689   2.631   2.315
 2938TIP3    H2 8751   6.575   2.539   2.355
 2939TIP3   OH2 8752   6.225   1.643   1.694
 2939TIP3    H1 8753   6.132   1.624   1.689
 2939TIP3    H2 8754   6.230   1.737   1.706
 2940TIP3   OH2 8755   6.171   2.668   2.799
 2940TIP3    H1 8756   6.214   2.660   2.884
 2940TIP3    H2 8757   6.126   2.752   2.802
 2941TIP3   OH2 8758   6.287   1.905   1.762
 2941TIP3    H1 8759   6.382   1.908   1.773
 2941TIP3    H2 8760   6.268   1.980   1.706
 2942TIP3   OH2 8761   5.470   2.367   2.436
 2942TIP3    H1 8762   5.502   2.338   2.350
 2942TIP3    H2 8763   5.523   2.319   2.499
 2943TIP3   OH2 8764   5.912   2.489   1.630
 2943TIP3    H1 8765   5.865   2.572   1.628
 2943TIP3    H2 8766   5.857   2.432   1.683
 2944TIP3   OH2 8767   5.340   2.261   3.063
 2944TIP3    H1 8768   5.336   2.237   3.155
 2944TIP3    H2 8769   5.262   2.220   3.024
 2945TIP3   OH2 8770   6.078   2.406   3.089
 2945TIP3    H1 8771   6.007   2.348   3.062
 2945TIP3    H2 8772   6.157   2.363   3.057
 2946TIP3   OH2 8773   6.318   2.952   2.688
 2946TIP3    H1 8774   6.223   2.938   2.692
 2946TIP3    H2 8775   6.340   2.987   2.775
 2947TIP3   OH2 8776   6.701   1.996   1.594
 2947TIP3    H1 8777   6.634   1.951   1.543
 2947TIP3    H2 8778   6.695   2.087   1.566
 2948TIP3   OH2 8779   6.959   2.873   2.657
 2948TIP3    H1 8780   6.866   2.853   2.655
 2948TIP3    H2 8781   6.992   2.841   2.573
 2949TIP3   OH2 8782   6.466   2.815   1.526
 2949TIP3    H1 8783   6.424   2.754   1.586
 2949TIP3    H2 8784   6.463   2.770   1.441
 2950TIP3   OH2 8785   6.426   2.447   2.284
 2950TIP3    H1 8786   6.336   2.425   2.310
 2950TIP3    H2 8787   6.460   2.366   2.247
 2951TIP3   OH2 8788   5.570   2.680   2.102
 2951TIP3    H1 8789   5.563   2.756   2.044
 2951TIP3    H2 8790   5.481   2.669   2.136
 2952TIP3   OH2 8791   5.145   1.969   1.801
 2952TIP3    H1 8792   5.183   2.054   1.821
 2952TIP3    H2 8793   5.063   1.967   1.850
 2953TIP3   OH2 8794   5.666   2.438   2.011
 2953TIP3    H1 8795   5.642   2.527   2.038
 2953TIP3    H2 8796   5.637   2.383   2.083
 2954TIP3   OH2 8797   5.861   3.007   2.555
 2954TIP3    H1 8798   5.896   3.080   2.505
 2954TIP3    H2 8799   5.936   2.974   2.604
 2955TIP3   OH2 8800   5.491   2.903   1.950
 2955TIP3    H1 8801   5.405   2.908   1.990
 2955TIP3    H2 8802   5.525   2.993   1.955
 2956TIP3   OH2 8803   6.211   2.665   2.526
 2956TIP3    H1 8804   6.198   2.663   2.621
 2956TIP3    H2 8805   6.285   2.607   2.511
 2957TIP3   OH2 8806   6.206   2.519   1.381
 2957TIP3    H1 8807   6.251   2.501   1.463
 2957TIP3    H2 8808   6.115   2.492   1.397
 2958TIP3   OH2 8809   6.468   3.163   2.567
 2958TIP3    H1 8810   6.397   3.102   2.587
 2958TIP3    H2 8811   6.434   3.217   2.495
 2959TIP3   OH2 8812   6.528   3.016   1.212
 2959TIP3    H1 8813   6.537   3.060   1.127
 2959TIP3    H2 8814   6.459   3.065   1.257
 2960TIP3   OH2 8815   5.544   1.794   3.064
 2960TIP3    H1 8816   5.448   1.804   3.067
 2960TIP3    H2 8817   5.565   1.746   3.144
 2961TIP3   OH2 8818   6.378   2.437   1.576
 2961TIP3    H1 8819   6.362   2.391   1.658
 2961TIP3    H2 8820   6.471   2.460   1.579
 2962TIP3   OH2 8821   5.296   2.894   2.720
 2962TIP3    H1 8822   5.347   2.833   2.773
 2962TIP3    H2 8823   5.308   2.979   2.763
 2963TIP3   OH2 8824   5.565   2.510   1.407
 2963TIP3    H1 8825   5.574   2.419   1.381
 2963TIP3    H2 8826   5.547   2.508   1.501
 2964TIP3   OH2 8827   5.502   2.530   1.676
 2964TIP3    H1 8828   5.550   2.501   1.753
 2964TIP3    H2 8829   5.499   2.625   1.683
 2965TIP3   OH2 8830   5.239   2.220   1.874
 2965TIP3    H1 8831   5.179   2.267   1.932
 2965TIP3    H2 8832   5.250   2.278   1.799
 2966TIP3   OH2 8833   6.397   1.847   2.767
 2966TIP3    H1 8834   6.474   1.893   2.800
 2966TIP3    H2 8835   6.388   1.771   2.825
 2967TIP3   OH2 8836   6.287   1.592   1.960
 2967TIP3    H1 8837   6.265   1.610   1.868
 2967TIP3    H2 8838   6.329   1.671   1.991
 2968TIP3   OH2 8839   5.774   2.721   1.621
 2968TIP3    H1 8840   5.688   2.740   1.658
 2968TIP3    H2 8841   5.792   2.795   1.563
 2969TIP3   OH2 8842   5.942   1.793   2.043
 2969TIP3    H1 8843   6.003   1.863   2.019
 2969TIP3    H2 8844   5.963   1.773   2.134
 2970TIP3   OH2 8845   6.237   2.088   2.820
 2970TIP3    H1 8846   6.260   2.132   2.902
 2970TIP3    H2 8847   6.286   2.006   2.822
 2971TIP3   OH2 8848   6.102   1.489   2.136
 2971TIP3    H1 8849   6.078   1.566   2.187
 2971TIP3    H2 8850   6.171   1.519   2.077
 2972TIP3   OH2 8851   5.522   2.802   1.697
 2972TIP3    H1 8852   5.500   2.873   1.637
 2972TIP3    H2 8853   5.507   2.838   1.784
 2973TIP3   OH2 8854   5.620   1.517   1.941
 2973TIP3    H1 8855   5.609   1.607   1.972
 2973TIP3    H2 8856   5.715   1.502   1.947
 2974TIP3   OH2 8857   6.853   1.994   2.817
 2974TIP3    H1 8858   6.758   1.997   2.826
 2974TIP3    H2 8859   6.868   1.948   2.735
 2975TIP3   OH2 8860   6.515   2.188   2.197
 2975TIP3    H1 8861   6.438   2.134   2.210
 2975TIP3    H2 8862   6.582   2.149   2.254
 2976TIP3   OH2 8863   5.253   2.400   1.662
 2976TIP3    H1 8864   5.323   2.464   1.673
 2976TIP3    H2 8865   5.287   2.337   1.598
 2977TIP3   OH2 8866   5.161   1.690   1.805
 2977TIP3    H1 8867   5.178   1.784   1.812
 2977TIP3    H2 8868   5.078   1.684   1.758
 2978TIP3   OH2 8869   6.498   3.166   2.132
 2978TIP3    H1 8870   6.452   3.216   2.065
 2978TIP3    H2 8871   6.590   3.186   2.119
 2979TIP3   OH2 8872   5.569   1.411   2.673
 2979TIP3    H1 8873   5.537   1.380   2.588
 2979TIP3    H2 8874   5.556   1.337   2.732
 2980TIP3   OH2 8875   5.082   2.673   2.067
 2980TIP3    H1 8876   5.006   2.639   2.115
 2980TIP3    H2 8877   5.045   2.707   1.985
 2981TIP3   OH2 8878   5.282   3.193   3.132
 2981TIP3    H1 8879   5.365   3.193   3.180
 2981TIP3    H2 8880   5.255   3.101   3.132
 2982TIP3   OH2 8881   5.754   3.108   3.190
 2982TIP3    H1 8882   5.847   3.087   3.191
 2982TIP3    H2 8883   5.719   3.056   3.117
 2983TIP3   OH2 8884   5.713   2.713   1.296
 2983TIP3    H1 8885   5.665   2.644   1.342
 2983TIP3    H2 8886   5.786   2.669   1.254
 2984TIP3   OH2 8887   6.378   3.046   2.939
 2984TIP3    H1 8888   6.394   2.978   3.005
 2984TIP3    H2 8889   6.449   3.109   2.951
 2985TIP3   OH2 8890   6.150   2.750   1.233
 2985TIP3    H1 8891   6.189   2.681   1.287
 2985TIP3    H2 8892   6.202   2.750   1.152
 2986TIP3   OH2 8893   5.392   2.601   3.327
 2986TIP3    H1 8894   5.403   2.507   3.339
 2986TIP3    H2 8895   5.308   2.610   3.283
 2987TIP3   OH2 8896   5.386   2.208   1.519
 2987TIP3    H1 8897   5.434   2.186   1.599
 2987TIP3    H2 8898   5.454   2.221   1.453
 2988TIP3   OH2 8899   6.011   2.681   3.102
 2988TIP3    H1 8900   5.964   2.702   3.022
 2988TIP3    H2 8901   6.043   2.591   3.088
 2989TIP3   OH2 8902   5.947   2.427   1.367
 2989TIP3    H1 8903   5.922   2.444   1.457
 2989TIP3    H2 8904   5.919   2.337   1.351
 2990TIP3   OH2 8905   6.489   2.728   2.724
 2990TIP3    H1 8906   6.566   2.756   2.673
 2990TIP3    H2 8907   6.423   2.794   2.707
 2991TIP3   OH2 8908   5.506   2.342   3.339
 2991TIP3    H1 8909   5.579   2.331   3.279
 2991TIP3    H2 8910   5.546   2.367   3.422
 2992TIP3   OH2 8911   5.556   2.148   1.735
 2992TIP3    H1 8912   5.528   2.120   1.822
 2992TIP3    H2 8913   5.601   2.073   1.698
 2993TIP3   OH2 8914   5.873   2.234   2.995
 2993TIP3    H1 8915   5.784   2.269   3.004
 2993TIP3    H2 8916   5.900   2.262   2.908
 2994TIP3   OH2 8917   5.697   1.959   1.580
 2994TIP3    H1 8918   5.666   1.966   1.490
 2994TIP3    H2 8919   5.792   1.965   1.574
 2995TIP3   OH2 8920   6.371   2.608   3.082
 2995TIP3    H1 8921   6.433   2.566   3.022
 2995TIP3    H2 8922   6.366   2.549   3.156
 2996TIP3   OH2 8923   6.534   2.293   1.169
 2996TIP3    H1 8924   6.471   2.222   1.154
 2996TIP3    H2 8925   6.480   2.368   1.194
 2997TIP3   OH2 8926   5.974   1.999   3.096
 2997TIP3    H1 8927   5.973   1.929   3.031
 2997TIP3    H2 8928   5.938   2.075   3.050
 2998TIP3   OH2 8929   5.980   1.797   2.895
 2998TIP3    H1 8930   6.006   1.835   2.811
 2998TIP3    H2 8931   5.889   1.772   2.882
 2999TIP3   OH2 8932   5.985   2.331   2.767
 2999TIP3    H1 8933   6.073   2.368   2.753
 2999TIP3    H2 8934   5.927   2.389   2.717
 3000TIP3   OH2 8935   6.579   2.281   3.143
 3000TIP3    H1 8936   6.618   2.194   3.152
 3000TIP3    H2 8937   6.652   2.338   3.122
 3001TIP3   OH2 8938   6.608   2.548   2.889
 3001TIP3    H1 8939   6.555   2.610   2.838
 3001TIP3    H2 8940   6.697   2.562   2.858
 3002TIP3   OH2 8941   5.860   2.080   3.343
 3002TIP3    H1 8942   5.785   2.023   3.362
 3002TIP3    H2 8943   5.884   2.059   3.252
 3003TIP3   OH2 8944   6.100   1.568   3.003
 3003TIP3    H1 8945   6.061   1.648   2.968
 3003TIP3    H2 8946   6.033   1.500   2.988
 3004TIP3   OH2 8947   6.227   2.038   3.201
 3004TIP3    H1 8948   6.215   2.026   3.295
 3004TIP3    H2 8949   6.142   2.019   3.162
 3005TIP3   OH2 8950   6.472   1.992   3.072
 3005TIP3    H1 8951   6.393   1.993   3.125
 3005TIP3    H2 8952   6.542   1.968   3.133
 3006TIP3   OH2 8953   6.706   1.958   3.223
 3006TIP3    H1 8954   6.721   1.863   3.230
 3006TIP3    H2 8955   6.703   1.988   3.314
 3007TIP3   OH2 8956   5.685   1.864   3.403
 3007TIP3    H1 8957   5.689   1.775   3.369
 3007TIP3    H2 8958   5.724   1.858   3.491
 3008TIP3   OH2 8959   6.165   1.534   3.268
 3008TIP3    H1 8960   6.237   1.471   3.259
 3008TIP3    H2 8961   6.135   1.548   3.178
 3009TIP3   OH2 8962   6.263   1.759   3.398
 3009TIP3    H1 8963   6.228   1.689   3.343
 3009TIP3    H2 8964   6.191   1.823   3.403
 3010TIP3   OH2 8965   5.517   3.012   1.514
 3010TIP3    H1 8966   5.606   2.990   1.484
 3010TIP3    H2 8967   5.477   3.057   1.440
 3011TIP3   OH2 8968   4.972   2.402   1.637
 3011TIP3    H1 8969   5.060   2.416   1.673
 3011TIP3    H2 8970   4.967   2.308   1.623
 3012TIP3   OH2 8971   4.881   2.980   2.144
 3012TIP3    H1 8972   4.817   2.922   2.103
 3012TIP3    H2 8973   4.925   2.926   2.209
 3013TIP3   OH2 8974   5.008   2.840   2.340
 3013TIP3    H1 8975   5.001   2.754   2.380
 3013TIP3    H2 8976   5.071   2.887   2.394
 3014TIP3   OH2 8977   6.768   3.235   2.137
 3014TIP3    H1 8978   6.779   3.233   2.232
 3014TIP3    H2 8979   6.784   3.327   2.113
 3015TIP3   OH2 8980   6.779   3.239   2.414
 3015TIP3    H1 8981   6.731   3.156   2.416
 3015TIP3    H2 8982   6.848   3.228   2.479
 3016TIP3   OH2 8983   6.850   2.955   2.981
 3016TIP3    H1 8984   6.776   2.960   3.041
 3016TIP3    H2 8985   6.895   3.039   2.991
 3017TIP3   OH2 8986   6.657   2.461   1.592
 3017TIP3    H1 8987   6.713   2.535   1.568
 3017TIP3    H2 8988   6.699   2.424   1.670
 3018TIP3   OH2 8989   6.780   2.324   1.798
 3018TIP3    H1 8990   6.715   2.281   1.854
 3018TIP3    H2 8991   6.847   2.356   1.858
 3019TIP3   OH2 8992   6.834   2.725   2.228
 3019TIP3    H1 8993   6.887   2.658   2.186
 3019TIP3    H2 8994   6.837   2.800   2.168
 3020TIP3   OH2 8995   6.639   3.000   2.419
 3020TIP3    H1 8996   6.571   3.044   2.469
 3020TIP3    H2 8997   6.593   2.960   2.345
 3021TIP3   OH2 8998   6.648   2.228   1.449
 3021TIP3    H1 8999   6.569   2.236   1.395
 3021TIP3    H2 9000   6.647   2.308   1.503
 3022TIP3   OH2 9001   6.515   1.916   1.412
 3022TIP3    H1 9002   6.439   1.948   1.362
 3022TIP3    H2 9003   6.508   1.821   1.407
 3023TIP3   OH2 9004   6.583   2.174   1.930
 3023TIP3    H1 9005   6.586   2.079   1.919
 3023TIP3    H2 9006   6.565   2.187   2.023
 3024TIP3   OH2 9007   5.209   2.219   2.712
 3024TIP3    H1 9008   5.198   2.199   2.619
 3024TIP3    H2 9009   5.304   2.227   2.723
 3025TIP3   OH2 9010   6.863   2.595   2.789
 3025TIP3    H1 9011   6.930   2.529   2.775
 3025TIP3    H2 9012   6.866   2.650   2.711
 3026TIP3   OH2 9013   7.040   2.387   2.785
 3026TIP3    H1 9014   6.967   2.344   2.831
 3026TIP3    H2 9015   7.115   2.331   2.802
 3027TIP3   OH2 9016   6.462   1.650   1.375
 3027TIP3    H1 9017   6.537   1.593   1.360
 3027TIP3    H2 9018   6.392   1.591   1.403
 3028TIP3   OH2 9019   6.576   1.897   1.825
 3028TIP3    H1 9020   6.618   1.813   1.837
 3028TIP3    H2 9021   6.622   1.938   1.752
 3029TIP3   OH2 9022   6.728   2.066   2.341
 3029TIP3    H1 9023   6.809   2.084   2.292
 3029TIP3    H2 9024   6.742   2.107   2.426
 3030TIP3   OH2 9025   6.806   2.218   2.566
 3030TIP3    H1 9026   6.733   2.248   2.621
 3030TIP3    H2 9027   6.838   2.298   2.523
 3031TIP3   OH2 9028   5.421   1.922   3.343
 3031TIP3    H1 9029   5.515   1.920   3.361
 3031TIP3    H2 9030   5.387   1.842   3.383
 3032TIP3   OH2 9031   7.259   1.816   3.104
 3032TIP3    H1 9032   7.324   1.758   3.064
 3032TIP3    H2 9033   7.224   1.867   3.030
 3033TIP3   OH2 9034   6.690   1.649   1.871
 3033TIP3    H1 9035   6.735   1.635   1.954
 3033TIP3    H2 9036   6.628   1.576   1.864
 3034TIP3   OH2 9037   5.403   1.635   2.690
 3034TIP3    H1 9038   5.457   1.556   2.694
 3034TIP3    H2 9039   5.465   1.705   2.672
 3035TIP3   OH2 9040   5.177   1.910   2.749
 3035TIP3    H1 9041   5.233   1.892   2.673
 3035TIP3    H2 9042   5.184   2.005   2.762
 3036TIP3   OH2 9043   7.114   1.932   2.906
 3036TIP3    H1 9044   7.032   1.973   2.932
 3036TIP3    H2 9045   7.087   1.857   2.853
 3037TIP3   OH2 9046   6.746   1.559   1.523
 3037TIP3    H1 9047   6.786   1.487   1.474
 3037TIP3    H2 9048   6.741   1.631   1.460
 3038TIP3   OH2 9049   5.169   1.448   2.285
 3038TIP3    H1 9050   5.081   1.420   2.309
 3038TIP3    H2 9051   5.159   1.484   2.197
 3039TIP3   OH2 9052   6.340   3.119   1.776
 3039TIP3    H1 9053   6.396   3.119   1.698
 3039TIP3    H2 9054   6.368   3.197   1.825
 3040TIP3   OH2 9055   5.392   1.454   3.075
 3040TIP3    H1 9056   5.345   1.457   3.159
 3040TIP3    H2 9057   5.339   1.507   3.016
 3041TIP3   OH2 9058   5.432   2.908   3.157
 3041TIP3    H1 9059   5.337   2.901   3.143
 3041TIP3    H2 9060   5.443   2.905   3.252
 3042TIP3   OH2 9061   5.634   2.970   2.707
 3042TIP3    H1 9062   5.580   3.042   2.674
 3042TIP3    H2 9063   5.718   2.980   2.661
 3043TIP3   OH2 9064   6.033   3.196   2.841
 3043TIP3    H1 9065   6.069   3.191   2.929
 3043TIP3    H2 9066   6.094   3.253   2.793
 3044TIP3   OH2 9067   6.221   3.356   2.718
 3044TIP3    H1 9068   6.284   3.308   2.663
 3044TIP3    H2 9069   6.275   3.415   2.770
 3045TIP3   OH2 9070   7.022   1.691   2.796
 3045TIP3    H1 9071   6.940   1.694   2.747
 3045TIP3    H2 9072   7.052   1.600   2.788
 3046TIP3   OH2 9073   5.294   3.211   2.748
 3046TIP3    H1 9074   5.202   3.225   2.725
 3046TIP3    H2 9075   5.313   3.278   2.813
 3047TIP3   OH2 9076   5.524   3.199   2.599
 3047TIP3    H1 9077   5.441   3.204   2.647
 3047TIP3    H2 9078   5.501   3.222   2.509
 3048TIP3   OH2 9079   5.938   3.216   2.389
 3048TIP3    H1 9080   5.864   3.227   2.330
 3048TIP3    H2 9081   5.948   3.301   2.431
 3049TIP3   OH2 9082   6.201   3.148   2.439
 3049TIP3    H1 9083   6.109   3.169   2.420
 3049TIP3    H2 9084   6.251   3.216   2.393
 3050TIP3   OH2 9085   6.403   3.320   2.341
 3050TIP3    H1 9086   6.401   3.408   2.304
 3050TIP3    H2 9087   6.432   3.264   2.270
 3051TIP3   OH2 9088   5.206   2.992   2.476
 3051TIP3    H1 9089   5.234   2.965   2.563
 3051TIP3    H2 9090   5.274   2.958   2.417
 3052TIP3   OH2 9091   5.407   2.881   2.329
 3052TIP3    H1 9092   5.419   2.798   2.375
 3052TIP3    H2 9093   5.494   2.922   2.330
 3053TIP3   OH2 9094   5.678   2.962   2.348
 3053TIP3    H1 9095   5.696   2.869   2.332
 3053TIP3    H2 9096   5.729   2.983   2.426
 3054TIP3   OH2 9097   6.236   1.609   2.440
 3054TIP3    H1 9098   6.195   1.537   2.488
 3054TIP3    H2 9099   6.303   1.567   2.387
 3055TIP3   OH2 9100   6.735   1.524   2.327
 3055TIP3    H1 9101   6.773   1.575   2.255
 3055TIP3    H2 9102   6.643   1.550   2.328
 3056TIP3   OH2 9103   6.849   1.608   2.093
 3056TIP3    H1 9104   6.920   1.549   2.067
 3056TIP3    H2 9105   6.884   1.696   2.077
 3057TIP3   OH2 9106   5.477   1.310   2.433
 3057TIP3    H1 9107   5.387   1.279   2.442
 3057TIP3    H2 9108   5.530   1.230   2.425
 3058TIP3   OH2 9109   5.251   1.238   2.035
 3058TIP3    H1 9110   5.298   1.292   1.971
 3058TIP3    H2 9111   5.253   1.291   2.115
 3059TIP3   OH2 9112   5.960   1.340   2.330
 3059TIP3    H1 9113   6.004   1.392   2.263
 3059TIP3    H2 9114   5.994   1.373   2.413
 3060TIP3   OH2 9115   6.447   1.494   2.304
 3060TIP3    H1 9116   6.461   1.461   2.216
 3060TIP3    H2 9117   6.454   1.416   2.360
 3061TIP3   OH2 9118   6.505   1.439   1.880
 3061TIP3    H1 9119   6.425   1.487   1.902
 3061TIP3    H2 9120   6.493   1.353   1.919
 3062TIP3   OH2 9121   4.983   2.779   1.830
 3062TIP3    H1 9122   4.897   2.741   1.812
 3062TIP3    H2 9123   4.974   2.872   1.806
 3063TIP3   OH2 9124   5.406   1.369   1.839
 3063TIP3    H1 9125   5.450   1.307   1.780
 3063TIP3    H2 9126   5.477   1.419   1.879
 3064TIP3   OH2 9127   5.896   1.541   1.950
 3064TIP3    H1 9128   5.955   1.492   2.006
 3064TIP3    H2 9129   5.907   1.632   1.976
 3065TIP3   OH2 9130   5.771   2.937   1.441
 3065TIP3    H1 9131   5.854   2.967   1.403
 3065TIP3    H2 9132   5.742   2.866   1.384
 3066TIP3   OH2 9133   6.494   3.086   1.547
 3066TIP3    H1 9134   6.486   2.991   1.540
 3066TIP3    H2 9135   6.447   3.120   1.470
 3067TIP3   OH2 9136   5.697   1.592   3.316
 3067TIP3    H1 9137   5.662   1.523   3.374
 3067TIP3    H2 9138   5.789   1.601   3.341
 3068TIP3   OH2 9139   5.945   1.601   3.437
 3068TIP3    H1 9140   6.022   1.574   3.387
 3068TIP3    H2 9141   5.935   1.532   3.503
 3069TIP3   OH2 9142   5.076   2.779   1.508
 3069TIP3    H1 9143   5.070   2.775   1.603
 3069TIP3    H2 9144   5.158   2.733   1.487
 3070TIP3   OH2 9145   6.773   1.686   3.227
 3070TIP3    H1 9146   6.793   1.657   3.316
 3070TIP3    H2 9147   6.857   1.683   3.182
 3071TIP3   OH2 9148   6.687   3.219   2.733
 3071TIP3    H1 9149   6.613   3.189   2.680
 3071TIP3    H2 9150   6.676   3.314   2.737
 3072TIP3   OH2 9151   7.261   2.472   2.275
 3072TIP3    H1 9152   7.288   2.396   2.325
 3072TIP3    H2 9153   7.312   2.545   2.312
 3073TIP3   OH2 9154   7.288   2.859   1.971
 3073TIP3    H1 9155   7.257   2.768   1.972
 3073TIP3    H2 9156   7.321   2.874   2.059
 3074TIP3   OH2 9157   6.943   2.111   1.715
 3074TIP3    H1 9158   6.900   2.193   1.739
 3074TIP3    H2 9159   6.871   2.053   1.689
 3075TIP3   OH2 9160   7.015   2.396   1.936
 3075TIP3    H1 9161   7.061   2.317   1.963
 3075TIP3    H2 9162   7.086   2.458   1.916
 3076TIP3   OH2 9163   7.900   3.320   1.529
 3076TIP3    H1 9164   7.955   3.244   1.510
 3076TIP3    H2 9165   7.913   3.336   1.623
 3077TIP3   OH2 9166   7.759   2.851   1.923
 3077TIP3    H1 9167   7.800   2.803   1.850
 3077TIP3    H2 9168   7.825   2.915   1.949
 3078TIP3   OH2 9169   7.493   1.966   1.926
 3078TIP3    H1 9170   7.500   2.038   1.864
 3078TIP3    H2 9171   7.455   1.894   1.875
 3079TIP3   OH2 9172   7.152   2.176   2.031
 3079TIP3    H1 9173   7.231   2.154   2.080
 3079TIP3    H2 9174   7.157   2.123   1.952
 3080TIP3   OH2 9175   7.590   2.394   1.816
 3080TIP3    H1 9176   7.675   2.372   1.776
 3080TIP3    H2 9177   7.539   2.313   1.808
 3081TIP3   OH2 9178   7.518   1.968   2.370
 3081TIP3    H1 9179   7.470   2.001   2.295
 3081TIP3    H2 9180   7.460   1.983   2.445
 3082TIP3   OH2 9181   7.613   2.744   2.131
 3082TIP3    H1 9182   7.552   2.811   2.160
 3082TIP3    H2 9183   7.666   2.786   2.064
 3083TIP3   OH2 9184   7.384   2.071   2.148
 3083TIP3    H1 9185   7.440   2.147   2.162
 3083TIP3    H2 9186   7.425   2.024   2.075
 3084TIP3   OH2 9187   7.430   2.941   2.207
 3084TIP3    H1 9188   7.429   3.035   2.187
 3084TIP3    H2 9189   7.362   2.930   2.273
 3085TIP3   OH2 9190   6.830   2.657   1.484
 3085TIP3    H1 9191   6.789   2.660   1.398
 3085TIP3    H2 9192   6.880   2.739   1.490
 3086TIP3   OH2 9193   7.383   2.548   1.712
 3086TIP3    H1 9194   7.333   2.492   1.652
 3086TIP3    H2 9195   7.457   2.493   1.740
 3087TIP3   OH2 9196   7.510   2.933   1.811
 3087TIP3    H1 9197   7.442   2.892   1.865
 3087TIP3    H2 9198   7.593   2.905   1.851
 3088TIP3   OH2 9199   7.495   2.509   2.049
 3088TIP3    H1 9200   7.538   2.480   1.969
 3088TIP3    H2 9201   7.541   2.589   2.074
 3089TIP3   OH2 9202   7.633   3.031   2.395
 3089TIP3    H1 9203   7.573   3.092   2.438
 3089TIP3    H2 9204   7.577   2.979   2.338
 3090TIP3   OH2 9205   7.390   2.630   2.477
 3090TIP3    H1 9206   7.401   2.715   2.520
 3090TIP3    H2 9207   7.308   2.596   2.512
 3091TIP3   OH2 9208   7.712   3.122   1.439
 3091TIP3    H1 9209   7.753   3.202   1.472
 3091TIP3    H2 9210   7.669   3.148   1.358
 3092TIP3   OH2 9211   7.434   3.203   2.470
 3092TIP3    H1 9212   7.408   3.217   2.379
 3092TIP3    H2 9213   7.352   3.192   2.518
 3093TIP3   OH2 9214   7.240   2.388   1.540
 3093TIP3    H1 9215   7.152   2.400   1.505
 3093TIP3    H2 9216   7.251   2.293   1.545
 3094TIP3   OH2 9217   7.037   2.762   2.420
 3094TIP3    H1 9218   6.966   2.741   2.360
 3094TIP3    H2 9219   7.069   2.678   2.451
 3095TIP3   OH2 9220   6.880   2.980   2.088
 3095TIP3    H1 9221   6.962   3.010   2.128
 3095TIP3    H2 9222   6.817   3.049   2.107
 3096TIP3   OH2 9223   7.811   3.170   2.232
 3096TIP3    H1 9224   7.826   3.259   2.263
 3096TIP3    H2 9225   7.751   3.132   2.297
 3097TIP3   OH2 9226   7.618   3.296   1.221
 3097TIP3    H1 9227   7.592   3.287   1.130
 3097TIP3    H2 9228   7.589   3.384   1.246
 3098TIP3   OH2 9229   7.066   3.199   1.571
 3098TIP3    H1 9230   7.148   3.236   1.539
 3098TIP3    H2 9231   6.998   3.258   1.538
 3099TIP3   OH2 9232   7.851   3.241   1.079
 3099TIP3    H1 9233   7.786   3.254   1.148
 3099TIP3    H2 9234   7.935   3.239   1.124
 3100TIP3   OH2 9235   7.231   2.953   2.390
 3100TIP3    H1 9236   7.280   2.946   2.472
 3100TIP3    H2 9237   7.161   2.889   2.398
 3101TIP3   OH2 9238   7.597   1.732   2.248
 3101TIP3    H1 9239   7.513   1.718   2.204
 3101TIP3    H2 9240   7.589   1.817   2.290
 3102TIP3   OH2 9241   7.538   2.288   2.204
 3102TIP3    H1 9242   7.493   2.297   2.288
 3102TIP3    H2 9243   7.514   2.367   2.155
 3103TIP3   OH2 9244   7.428   2.181   1.762
 3103TIP3    H1 9245   7.344   2.144   1.791
 3103TIP3    H2 9246   7.426   2.173   1.667
 3104TIP3   OH2 9247   7.386   2.281   2.437
 3104TIP3    H1 9248   7.455   2.324   2.487
 3104TIP3    H2 9249   7.367   2.200   2.485
 3105TIP3   OH2 9250   7.493   1.687   1.236
 3105TIP3    H1 9251   7.443   1.768   1.245
 3105TIP3    H2 9252   7.450   1.639   1.166
 3106TIP3   OH2 9253   6.977   1.831   2.011
 3106TIP3    H1 9254   7.048   1.862   2.068
 3106TIP3    H2 9255   7.022   1.797   1.934
 3107TIP3   OH2 9256   6.937   1.847   1.561
 3107TIP3    H1 9257   6.978   1.916   1.508
 3107TIP3    H2 9258   6.848   1.878   1.576
 3108TIP3   OH2 9259   7.194   2.037   1.799
 3108TIP3    H1 9260   7.108   2.053   1.760
 3108TIP3    H2 9261   7.216   1.947   1.772
 3109TIP3   OH2 9262   7.399   2.143   1.496
 3109TIP3    H1 9263   7.473   2.084   1.485
 3109TIP3    H2 9264   7.374   2.167   1.407
 3110TIP3   OH2 9265   7.376   2.186   1.233
 3110TIP3    H1 9266   7.287   2.196   1.199
 3110TIP3    H2 9267   7.431   2.182   1.155
 3111TIP3   OH2 9268   7.387   2.873   2.617
 3111TIP3    H1 9269   7.469   2.887   2.664
 3111TIP3    H2 9270   7.320   2.868   2.686
 3112TIP3   OH2 9271   7.357   1.780   1.769
 3112TIP3    H1 9272   7.308   1.722   1.827
 3112TIP3    H2 9273   7.423   1.725   1.728
 3113TIP3   OH2 9274   7.805   2.217   2.228
 3113TIP3    H1 9275   7.711   2.230   2.211
 3113TIP3    H2 9276   7.845   2.301   2.208
 3114TIP3   OH2 9277   7.529   2.659   1.256
 3114TIP3    H1 9278   7.505   2.567   1.260
 3114TIP3    H2 9279   7.536   2.686   1.348
 3115TIP3   OH2 9280   7.939   2.910   2.299
 3115TIP3    H1 9281   8.006   2.940   2.360
 3115TIP3    H2 9282   7.902   2.990   2.261
 3116TIP3   OH2 9283   7.242   2.581   1.947
 3116TIP3    H1 9284   7.285   2.578   1.861
 3116TIP3    H2 9285   7.308   2.544   2.007
 3117TIP3   OH2 9286   7.733   2.770   1.099
 3117TIP3    H1 9287   7.699   2.860   1.101
 3117TIP3    H2 9288   7.672   2.721   1.155
 3118TIP3   OH2 9289   7.138   2.545   2.565
 3118TIP3    H1 9290   7.163   2.524   2.654
 3118TIP3    H2 9291   7.069   2.483   2.543
 3119TIP3   OH2 9292   7.883   2.673   2.564
 3119TIP3    H1 9293   7.824   2.644   2.496
 3119TIP3    H2 9294   7.969   2.642   2.536
 3120TIP3   OH2 9295   6.854   2.286   1.269
 3120TIP3    H1 9296   6.906   2.341   1.328
 3120TIP3    H2 9297   6.778   2.260   1.321
 3121TIP3   OH2 9298   7.502   2.720   1.524
 3121TIP3    H1 9299   7.527   2.801   1.568
 3121TIP3    H2 9300   7.459   2.668   1.592
 3122TIP3   OH2 9301   7.636   3.247   2.024
 3122TIP3    H1 9302   7.669   3.326   1.980
 3122TIP3    H2 9303   7.709   3.218   2.079
 3123TIP3   OH2 9304   7.342   2.034   2.572
 3123TIP3    H1 9305   7.247   2.040   2.580
 3123TIP3    H2 9306   7.368   1.978   2.645
 3124TIP3   OH2 9307   7.087   3.139   2.209
 3124TIP3    H1 9308   7.139   3.084   2.268
 3124TIP3    H2 9309   7.090   3.226   2.249
 3125TIP3   OH2 9310   7.335   2.869   0.931
 3125TIP3    H1 9311   7.409   2.816   0.901
 3125TIP3    H2 9312   7.330   2.852   1.025
 3126TIP3   OH2 9313   7.296   2.805   1.193
 3126TIP3    H1 9314   7.375   2.760   1.224
 3126TIP3    H2 9315   7.308   2.896   1.219
 3127TIP3   OH2 9316   7.011   2.466   1.401
 3127TIP3    H1 9317   6.955   2.531   1.443
 3127TIP3    H2 9318   7.034   2.504   1.316
 3128TIP3   OH2 9319   7.578   2.999   1.117
 3128TIP3    H1 9320   7.494   3.021   1.157
 3128TIP3    H2 9321   7.607   3.081   1.076
 3129TIP3   OH2 9322   7.322   3.081   1.203
 3129TIP3    H1 9323   7.300   3.127   1.122
 3129TIP3    H2 9324   7.319   3.149   1.271
 3130TIP3   OH2 9325   7.371   1.821   1.499
 3130TIP3    H1 9326   7.344   1.831   1.591
 3130TIP3    H2 9327   7.465   1.805   1.504
 3131TIP3   OH2 9328   6.994   2.787   1.221
 3131TIP3    H1 9329   7.057   2.857   1.205
 3131TIP3    H2 9330   7.038   2.707   1.190
 3132TIP3   OH2 9331   7.010   2.019   1.365
 3132TIP3    H1 9332   7.060   2.098   1.346
 3132TIP3    H2 9333   7.015   1.967   1.285
 3133TIP3   OH2 9334   7.335   1.669   2.168
 3133TIP3    H1 9335   7.314   1.638   2.080
 3133TIP3    H2 9336   7.335   1.589   2.222
 3134TIP3   OH2 9337   6.899   2.935   1.569
 3134TIP3    H1 9338   6.820   2.898   1.608
 3134TIP3    H2 9339   6.870   2.971   1.485
 3135TIP3   OH2 9340   7.087   3.458   2.625
 3135TIP3    H1 9341   7.168   3.465   2.676
 3135TIP3    H2 9342   7.076   3.364   2.611
 3136TIP3   OH2 9343   7.542   3.375   2.658
 3136TIP3    H1 9344   7.629   3.342   2.676
 3136TIP3    H2 9345   7.509   3.319   2.587
 3137TIP3   OH2 9346   7.534   3.023   0.801
 3137TIP3    H1 9347   7.466   2.982   0.854
 3137TIP3    H2 9348   7.583   2.951   0.762
 3138TIP3   OH2 9349   7.190   2.849   2.813
 3138TIP3    H1 9350   7.206   2.756   2.825
 3138TIP3    H2 9351   7.103   2.853   2.773
 3139TIP3   OH2 9352   7.081   2.541   1.136
 3139TIP3    H1 9353   7.165   2.512   1.171
 3139TIP3    H2 9354   7.102   2.571   1.047
 3140TIP3   OH2 9355   7.809   2.945   2.586
 3140TIP3    H1 9356   7.757   2.963   2.508
 3140TIP3    H2 9357   7.836   2.853   2.575
 3141TIP3   OH2 9358   7.814   2.697   0.838
 3141TIP3    H1 9359   7.810   2.750   0.918
 3141TIP3    H2 9360   7.792   2.609   0.866
 3142TIP3   OH2 9361   7.330   2.577   2.806
 3142TIP3    H1 9362   7.404   2.519   2.789
 3142TIP3    H2 9363   7.346   2.611   2.894
 3143TIP3   OH2 9364   7.315   2.460   1.274
 3143TIP3    H1 9365   7.297   2.484   1.364
 3143TIP3    H2 9366   7.341   2.368   1.279
 3144TIP3   OH2 9367   7.609   2.456   2.480
 3144TIP3    H1 9368   7.537   2.520   2.486
 3144TIP3    H2 9369   7.668   2.494   2.415
 3145TIP3   OH2 9370   7.564   2.203   1.030
 3145TIP3    H1 9371   7.536   2.165   0.946
 3145TIP3    H2 9372   7.652   2.168   1.044
 3146TIP3   OH2 9373   7.741   2.275   2.647
 3146TIP3    H1 9374   7.757   2.196   2.597
 3146TIP3    H2 9375   7.707   2.338   2.584
 3147TIP3   OH2 9376   7.761   2.075   2.461
 3147TIP3    H1 9377   7.796   2.110   2.379
 3147TIP3    H2 9378   7.685   2.022   2.433
 3148TIP3   OH2 9379   7.776   2.614   2.312
 3148TIP3    H1 9380   7.855   2.662   2.286
 3148TIP3    H2 9381   7.707   2.649   2.256
 3149TIP3   OH2 9382   7.541   2.387   2.810
 3149TIP3    H1 9383   7.520   2.299   2.843
 3149TIP3    H2 9384   7.615   2.373   2.752
 3150TIP3   OH2 9385   7.473   2.133   2.897
 3150TIP3    H1 9386   7.482   2.048   2.854
 3150TIP3    H2 9387   7.512   2.120   2.984
 3151TIP3   OH2 9388   7.313   3.252   0.990
 3151TIP3    H1 9389   7.407   3.260   0.974
 3151TIP3    H2 9390   7.273   3.301   0.918
 3152TIP3   OH2 9391   6.755   2.655   1.218
 3152TIP3    H1 9392   6.831   2.713   1.206
 3152TIP3    H2 9393   6.766   2.587   1.152
 3153TIP3   OH2 9394   6.699   3.228   1.656
 3153TIP3    H1 9395   6.633   3.178   1.608
 3153TIP3    H2 9396   6.742   3.164   1.713
 3154TIP3   OH2 9397   6.884   3.074   1.821
 3154TIP3    H1 9398   6.859   3.013   1.891
 3154TIP3    H2 9399   6.914   3.153   1.868
 3155TIP3   OH2 9400   7.003   2.507   2.188
 3155TIP3    H1 9401   6.994   2.469   2.101
 3155TIP3    H2 9402   7.097   2.501   2.208
 3156TIP3   OH2 9403   7.211   2.176   2.826
 3156TIP3    H1 9404   7.305   2.178   2.845
 3156TIP3    H2 9405   7.180   2.095   2.866
 3157TIP3   OH2 9406   7.176   1.890   2.198
 3157TIP3    H1 9407   7.229   1.810   2.197
 3157TIP3    H2 9408   7.240   1.961   2.190
 3158TIP3   OH2 9409   6.970   2.157   2.245
 3158TIP3    H1 9410   7.021   2.148   2.165
 3158TIP3    H2 9411   7.009   2.232   2.290
 3159TIP3   OH2 9412   6.962   1.662   1.759
 3159TIP3    H1 9413   6.872   1.646   1.787
 3159TIP3    H2 9414   6.955   1.728   1.690
 3160TIP3   OH2 9415   7.189   1.712   2.566
 3160TIP3    H1 9416   7.141   1.714   2.648
 3160TIP3    H2 9417   7.136   1.763   2.505
 3161TIP3   OH2 9418   7.211   3.180   2.635
 3161TIP3    H1 9419   7.118   3.158   2.631
 3161TIP3    H2 9420   7.235   3.167   2.727
 3162TIP3   OH2 9421   7.419   3.216   2.187
 3162TIP3    H1 9422   7.365   3.289   2.157
 3162TIP3    H2 9423   7.501   3.226   2.139
 3163TIP3   OH2 9424   7.846   3.442   2.317
 3163TIP3    H1 9425   7.892   3.423   2.398
 3163TIP3    H2 9426   7.902   3.506   2.273
 3164TIP3   OH2 9427   8.005   3.656   2.199
 3164TIP3    H1 9428   8.033   3.717   2.130
 3164TIP3    H2 9429   8.052   3.686   2.277
 3165TIP3   OH2 9430   7.074   3.453   2.238
 3165TIP3    H1 9431   6.984   3.471   2.212
 3165TIP3    H2 9432   7.096   3.523   2.300
 3166TIP3   OH2 9433   7.299   3.439   2.083
 3166TIP3    H1 9434   7.217   3.447   2.131
 3166TIP3    H2 9435   7.279   3.472   1.995
 3167TIP3   OH2 9436   7.707   3.475   1.884
 3167TIP3    H1 9437   7.634   3.495   1.825
 3167TIP3    H2 9438   7.722   3.557   1.932
 3168TIP3   OH2 9439   7.944   3.370   1.793
 3168TIP3    H1 9440   7.861   3.404   1.827
 3168TIP3    H2 9441   8.011   3.413   1.847
 3169TIP3   OH2 9442   7.038   3.261   1.946
 3169TIP3    H1 9443   7.033   3.245   2.040
 3169TIP3    H2 9444   7.118   3.217   1.919
 3170TIP3   OH2 9445   7.185   3.046   1.794
 3170TIP3    H1 9446   7.212   2.977   1.856
 3170TIP3    H2 9447   7.263   3.101   1.784
 3171TIP3   OH2 9448   7.438   3.200   1.821
 3171TIP3    H1 9449   7.472   3.115   1.794
 3171TIP3    H2 9450   7.491   3.224   1.897
 3172TIP3   OH2 9451   7.261   1.575   1.917
 3172TIP3    H1 9452   7.173   1.540   1.930
 3172TIP3    H2 9453   7.318   1.499   1.920
 3173TIP3   OH2 9454   7.099   1.464   1.618
 3173TIP3    H1 9455   7.143   1.511   1.547
 3173TIP3    H2 9456   7.052   1.531   1.667
 3174TIP3   OH2 9457   6.773   3.043   1.352
 3174TIP3    H1 9458   6.691   3.014   1.314
 3174TIP3    H2 9459   6.783   3.134   1.323
 3175TIP3   OH2 9460   7.263   1.578   1.420
 3175TIP3    H1 9461   7.328   1.510   1.404
 3175TIP3    H2 9462   7.314   1.657   1.440
 3176TIP3   OH2 9463   7.589   3.241   0.952
 3176TIP3    H1 9464   7.681   3.263   0.941
 3176TIP3    H2 9465   7.573   3.172   0.887
 3177TIP3   OH2 9466   7.476   1.859   2.796
 3177TIP3    H1 9467   7.439   1.790   2.851
 3177TIP3    H2 9468   7.568   1.864   2.823
 3178TIP3   OH2 9469   7.716   1.848   2.938
 3178TIP3    H1 9470   7.794   1.812   2.896
 3178TIP3    H2 9471   7.698   1.787   3.010
 3179TIP3   OH2 9472   6.834   3.058   1.020
 3179TIP3    H1 9473   6.840   3.086   1.111
 3179TIP3    H2 9474   6.918   3.014   1.004
 3180TIP3   OH2 9475   0.426   3.388   3.164
 3180TIP3    H1 9476   0.392   3.474   3.139
 3180TIP3    H2 9477   0.352   3.328   3.149
 3181TIP3   OH2 9478   0.448   3.367   3.568
 3181TIP3    H1 9479   0.489   3.350   3.652
 3181TIP3    H2 9480   0.403   3.285   3.546
 3182TIP3   OH2 9481   8.228   3.319   3.851
 3182TIP3    H1 9482   8.188   3.274   3.925
 3182TIP3    H2 9483   8.313   3.350   3.884
 3183TIP3   OH2 9484   0.689   3.699   3.258
 3183TIP3    H1 9485   0.681   3.628   3.322
 3183TIP3    H2 9486   0.710   3.776   3.311
 3184TIP3   OH2 9487   8.176   3.684   3.518
 3184TIP3    H1 9488   8.155   3.592   3.531
 3184TIP3    H2 9489   8.235   3.705   3.591
 3185TIP3   OH2 9490   7.988   3.129   3.584
 3185TIP3    H1 9491   7.999   3.039   3.617
 3185TIP3    H2 9492   8.077   3.162   3.577
 3186TIP3   OH2 9493   0.358   4.109   3.302
 3186TIP3    H1 9494   0.376   4.049   3.229
 3186TIP3    H2 9495   0.383   4.060   3.380
 3187TIP3   OH2 9496   0.311   3.599   3.605
 3187TIP3    H1 9497   0.353   3.517   3.579
 3187TIP3    H2 9498   0.383   3.656   3.631
 3188TIP3   OH2 9499   1.252   2.933   3.617
 3188TIP3    H1 9500   1.271   3.013   3.665
 3188TIP3    H2 9501   1.258   2.957   3.525
 3189TIP3   OH2 9502   0.640   3.097   3.629
 3189TIP3    H1 9503   0.675   3.012   3.657
 3189TIP3    H2 9504   0.603   3.080   3.542
 3190TIP3   OH2 9505   8.505   2.757   3.570
 3190TIP3    H1 9506   8.489   2.832   3.512
 3190TIP3    H2 9507   8.446   2.689   3.538
 3191TIP3   OH2 9508   0.690   2.859   3.222
 3191TIP3    H1 9509   0.755   2.852   3.292
 3191TIP3    H2 9510   0.738   2.894   3.147
 3192TIP3   OH2 9511   8.151   2.961   3.751
 3192TIP3    H1 9512   8.228   2.907   3.770
 3192TIP3    H2 9513   8.186   3.033   3.698
 3193TIP3   OH2 9514   0.088   3.179   3.475
 3193TIP3    H1 9515   0.178   3.157   3.499
 3193TIP3    H2 9516   0.048   3.095   3.452
 3194TIP3   OH2 9517   1.313   3.152   3.779
 3194TIP3    H1 9518   1.229   3.197   3.768
 3194TIP3    H2 9519   1.351   3.192   3.858
 3195TIP3   OH2 9520   8.530   2.755   4.021
 3195TIP3    H1 9521   8.470   2.789   3.954
 3195TIP3    H2 9522   8.487   2.776   4.104
 3196TIP3   OH2 9523   0.303   3.593   3.028
 3196TIP3    H1 9524   0.284   3.571   2.937
 3196TIP3    H2 9525   0.263   3.679   3.041
 3197TIP3   OH2 9526   0.114   3.518   3.782
 3197TIP3    H1 9527   0.076   3.584   3.840
 3197TIP3    H2 9528   0.179   3.567   3.731
 3198TIP3   OH2 9529   0.851   2.876   3.441
 3198TIP3    H1 9530   0.806   2.853   3.522
 3198TIP3    H2 9531   0.903   2.953   3.464
 3199TIP3   OH2 9532   8.399   2.855   3.801
 3199TIP3    H1 9533   8.446   2.935   3.823
 3199TIP3    H2 9534   8.446   2.819   3.725
 3200TIP3   OH2 9535   8.462   3.708   3.927
 3200TIP3    H1 9536   8.433   3.732   3.839
 3200TIP3    H2 9537   8.389   3.658   3.964
 3201TIP3   OH2 9538   0.717   3.945   3.401
 3201TIP3    H1 9539   0.627   3.936   3.432
 3201TIP3    H2 9540   0.719   4.030   3.357
 3202TIP3   OH2 9541   1.059   2.783   3.766
 3202TIP3    H1 9542   0.974   2.818   3.742
 3202TIP3    H2 9543   1.121   2.826   3.707
 3203TIP3   OH2 9544   0.324   2.438   3.760
 3203TIP3    H1 9545   0.316   2.345   3.781
 3203TIP3    H2 9546   0.246   2.478   3.799
 3204TIP3   OH2 9547   0.436   3.977   3.068
 3204TIP3    H1 9548   0.487   3.897   3.056
 3204TIP3    H2 9549   0.492   4.047   3.036
 3205TIP3   OH2 9550   0.581   3.756   3.012
 3205TIP3    H1 9551   0.573   3.675   2.963
 3205TIP3    H2 9552   0.623   3.731   3.095
 3206TIP3   OH2 9553   0.969   3.824   3.743
 3206TIP3    H1 9554   0.947   3.752   3.684
 3206TIP3    H2 9555   0.946   3.903   3.693
 3207TIP3   OH2 9556   0.239   3.236   3.016
 3207TIP3    H1 9557   0.166   3.295   2.995
 3207TIP3    H2 9558   0.292   3.235   2.936
 3208TIP3   OH2 9559   0.216   3.040   2.721
 3208TIP3    H1 9560   0.279   3.097   2.764
 3208TIP3    H2 9561   0.267   2.964   2.692
 3209TIP3   OH2 9562   1.144   3.482   3.602
 3209TIP3    H1 9563   1.060   3.527   3.606
 3209TIP3    H2 9564   1.177   3.501   3.514
 3210TIP3   OH2 9565   0.610   3.330   2.973
 3210TIP3    H1 9566   0.555   3.352   3.048
 3210TIP3    H2 9567   0.692   3.299   3.012
 3211TIP3   OH2 9568   0.830   3.356   3.883
 3211TIP3    H1 9569   0.849   3.440   3.926
 3211TIP3    H2 9570   0.741   3.366   3.849
 3212TIP3   OH2 9571   8.352   3.285   3.383
 3212TIP3    H1 9572   8.318   3.236   3.308
 3212TIP3    H2 9573   8.441   3.251   3.396
 3213TIP3   OH2 9574   0.063   3.620   3.499
 3213TIP3    H1 9575   0.030   3.541   3.542
 3213TIP3    H2 9576   0.157   3.621   3.518
 3214TIP3   OH2 9577  -0.009   3.284   3.710
 3214TIP3    H1 9578   0.039   3.265   3.629
 3214TIP3    H2 9579   0.030   3.366   3.741
 3215TIP3   OH2 9580   0.469   3.935   3.520
 3215TIP3    H1 9581   0.482   4.016   3.569
 3215TIP3    H2 9582   0.482   3.866   3.584
 3216TIP3   OH2 9583   0.122   3.835   4.111
 3216TIP3    H1 9584   0.059   3.878   4.169
 3216TIP3    H2 9585   0.068   3.784   4.050
 3217TIP3   OH2 9586   0.428   3.200   2.813
 3217TIP3    H1 9587   0.493   3.249   2.864
 3217TIP3    H2 9588   0.455   3.214   2.722
 3218TIP3   OH2 9589   8.366   3.491   4.245
 3218TIP3    H1 9590   8.424   3.563   4.270
 3218TIP3    H2 9591   8.278   3.521   4.267
 3219TIP3   OH2 9592   0.194   3.857   3.024
 3219TIP3    H1 9593   0.278   3.890   3.055
 3219TIP3    H2 9594   0.137   3.934   3.024
 3220TIP3   OH2 9595   8.390   4.094   4.209
 3220TIP3    H1 9596   8.419   4.107   4.118
 3220TIP3    H2 9597   8.302   4.133   4.210
 3221TIP3   OH2 9598   0.952   2.412   2.865
 3221TIP3    H1 9599   0.874   2.430   2.917
 3221TIP3    H2 9600   0.961   2.487   2.807
 3222TIP3   OH2 9601   8.230   3.139   3.177
 3222TIP3    H1 9602   8.143   3.177   3.167
 3222TIP3    H2 9603   8.214   3.048   3.204
 3223TIP3   OH2 9604   0.778   3.787   2.429
 3223TIP3    H1 9605   0.776   3.880   2.406
 3223TIP3    H2 9606   0.865   3.758   2.402
 3224TIP3   OH2 9607   1.190   4.197   3.807
 3224TIP3    H1 9608   1.196   4.102   3.818
 3224TIP3    H2 9609   1.112   4.222   3.857
 3225TIP3   OH2 9610   0.304   3.949   3.937
 3225TIP3    H1 9611   0.317   4.041   3.961
 3225TIP3    H2 9612   0.237   3.918   3.998
 3226TIP3   OH2 9613   0.067   4.074   2.896
 3226TIP3    H1 9614   0.027   4.063   2.809
 3226TIP3    H2 9615   0.042   4.162   2.922
 3227TIP3   OH2 9616   0.292   4.007   2.528
 3227TIP3    H1 9617   0.339   3.931   2.496
 3227TIP3    H2 9618   0.323   4.019   2.618
 3228TIP3   OH2 9619   0.327   4.060   2.796
 3228TIP3    H1 9620   0.241   4.058   2.838
 3228TIP3    H2 9621   0.387   4.026   2.863
 3229TIP3   OH2 9622   1.083   3.318   4.097
 3229TIP3    H1 9623   1.013   3.355   4.151
 3229TIP3    H2 9624   1.080   3.224   4.115
 3230TIP3   OH2 9625   0.092   2.525   3.884
 3230TIP3    H1 9626   0.004   2.496   3.859
 3230TIP3    H2 9627   0.079   2.609   3.928
 3231TIP3   OH2 9628   0.616   2.667   4.107
 3231TIP3    H1 9629   0.665   2.631   4.182
 3231TIP3    H2 9630   0.524   2.656   4.132
 3232TIP3   OH2 9631   0.842   3.101   3.996
 3232TIP3    H1 9632   0.807   3.102   4.085
 3232TIP3    H2 9633   0.835   3.192   3.967
 3233TIP3   OH2 9634   0.514   3.233   2.559
 3233TIP3    H1 9635   0.473   3.173   2.497
 3233TIP3    H2 9636   0.596   3.259   2.518
 3234TIP3   OH2 9637   0.220   2.620   2.855
 3234TIP3    H1 9638   0.192   2.599   2.945
 3234TIP3    H2 9639   0.151   2.584   2.800
 3235TIP3   OH2 9640   0.041   3.077   3.882
 3235TIP3    H1 9641   0.012   3.099   3.970
 3235TIP3    H2 9642   0.024   3.155   3.830
 3236TIP3   OH2 9643   8.437   2.965   3.402
 3236TIP3    H1 9644   8.346   2.945   3.424
 3236TIP3    H2 9645   8.450   2.925   3.316
 3237TIP3   OH2 9646   0.380   3.037   3.147
 3237TIP3    H1 9647   0.326   3.105   3.107
 3237TIP3    H2 9648   0.438   3.007   3.077
 3238TIP3   OH2 9649   0.586   3.305   4.214
 3238TIP3    H1 9650   0.578   3.240   4.284
 3238TIP3    H2 9651   0.673   3.343   4.227
 3239TIP3   OH2 9652   0.541   3.040   3.377
 3239TIP3    H1 9653   0.476   3.063   3.311
 3239TIP3    H2 9654   0.590   2.967   3.337
 3240TIP3   OH2 9655   8.409   3.125   4.119
 3240TIP3    H1 9656   8.400   3.125   4.214
 3240TIP3    H2 9657   8.337   3.069   4.088
 3241TIP3   OH2 9658   7.929   2.580   3.759
 3241TIP3    H1 9659   8.018   2.615   3.769
 3241TIP3    H2 9660   7.913   2.580   3.665
 3242TIP3   OH2 9661   0.558   3.287   3.806
 3242TIP3    H1 9662   0.596   3.221   3.747
 3242TIP3    H2 9663   0.533   3.238   3.884
 3243TIP3   OH2 9664   0.268   2.747   3.470
 3243TIP3    H1 9665   0.186   2.746   3.521
 3243TIP3    H2 9666   0.337   2.736   3.536
 3244TIP3   OH2 9667   8.196   2.850   3.424
 3244TIP3    H1 9668   8.101   2.851   3.433
 3244TIP3    H2 9669   8.219   2.757   3.432
 3245TIP3   OH2 9670   8.437   2.831   3.166
 3245TIP3    H1 9671   8.529   2.838   3.144
 3245TIP3    H2 9672   8.391   2.845   3.083
 3246TIP3   OH2 9673   0.706   2.830   3.675
 3246TIP3    H1 9674   0.696   2.845   3.769
 3246TIP3    H2 9675   0.634   2.771   3.652
 3247TIP3   OH2 9676   8.289   2.871   2.942
 3247TIP3    H1 9677   8.201   2.910   2.939
 3247TIP3    H2 9678   8.334   2.909   2.867
 3248TIP3   OH2 9679   0.912   4.539   3.907
 3248TIP3    H1 9680   0.906   4.553   3.812
 3248TIP3    H2 9681   0.990   4.587   3.933
 3249TIP3   OH2 9682   0.332   3.103   3.572
 3249TIP3    H1 9683   0.397   3.053   3.524
 3249TIP3    H2 9684   0.332   3.066   3.660
 3250TIP3   OH2 9685   8.309   2.594   3.458
 3250TIP3    H1 9686   8.288   2.514   3.506
 3250TIP3    H2 9687   8.331   2.565   3.370
 3251TIP3   OH2 9688   0.310   3.018   3.839
 3251TIP3    H1 9689   0.220   3.047   3.856
 3251TIP3    H2 9690   0.363   3.072   3.898
 3252TIP3   OH2 9691   8.510   3.414   2.949
 3252TIP3    H1 9692   8.449   3.342   2.933
 3252TIP3    H2 9693   8.494   3.440   3.040
 3253TIP3   OH2 9694   0.912   3.624   3.561
 3253TIP3    H1 9695   0.944   3.675   3.487
 3253TIP3    H2 9696   0.831   3.584   3.530
 3254TIP3   OH2 9697   0.482   2.692   2.873
 3254TIP3    H1 9698   0.389   2.675   2.861
 3254TIP3    H2 9699   0.490   2.788   2.872
 3255TIP3   OH2 9700   0.432   3.711   3.968
 3255TIP3    H1 9701   0.429   3.693   4.062
 3255TIP3    H2 9702   0.384   3.793   3.957
 3256TIP3   OH2 9703   0.544   2.962   2.933
 3256TIP3    H1 9704   0.639   2.965   2.940
 3256TIP3    H2 9705   0.522   3.029   2.868
 3257TIP3   OH2 9706   8.181   3.423   3.599
 3257TIP3    H1 9707   8.239   3.377   3.540
 3257TIP3    H2 9708   8.202   3.389   3.686
 3258TIP3   OH2 9709   0.190   3.519   2.776
 3258TIP3    H1 9710   0.157   3.608   2.766
 3258TIP3    H2 9711   0.126   3.476   2.833
 3259TIP3   OH2 9712   0.370   3.459   4.292
 3259TIP3    H1 9713   0.300   3.404   4.255
 3259TIP3    H2 9714   0.451   3.420   4.259
 3260TIP3   OH2 9715   0.568   4.028   3.847
 3260TIP3    H1 9716   0.490   3.973   3.854
 3260TIP3    H2 9717   0.596   4.041   3.938
 3261TIP3   OH2 9718   0.963   3.045   2.757
 3261TIP3    H1 9719   0.910   2.999   2.692
 3261TIP3    H2 9720   0.965   3.135   2.726
 3262TIP3   OH2 9721   1.210   3.925   3.830
 3262TIP3    H1 9722   1.118   3.899   3.836
 3262TIP3    H2 9723   1.240   3.887   3.748
 3263TIP3   OH2 9724   0.686   3.852   2.687
 3263TIP3    H1 9725   0.663   3.780   2.745
 3263TIP3    H2 9726   0.710   3.811   2.605
 3264TIP3   OH2 9727   0.687   3.491   3.451
 3264TIP3    H1 9728   0.600   3.468   3.486
 3264TIP3    H2 9729   0.720   3.409   3.415
 3265TIP3   OH2 9730   8.271   3.690   3.222
 3265TIP3    H1 9731   8.320   3.693   3.140
 3265TIP3    H2 9732   8.186   3.729   3.199
 3266TIP3   OH2 9733   7.467   1.389   1.400
 3266TIP3    H1 9734   7.552   1.428   1.381
 3266TIP3    H2 9735   7.483   1.295   1.399
 3267TIP3   OH2 9736   8.447   3.472   3.205
 3267TIP3    H1 9737   8.401   3.553   3.225
 3267TIP3    H2 9738   8.422   3.412   3.276
 3268TIP3   OH2 9739   0.143   4.037   3.725
 3268TIP3    H1 9740   0.189   4.107   3.678
 3268TIP3    H2 9741   0.211   3.991   3.774
 3269TIP3   OH2 9742   8.247   3.982   3.055
 3269TIP3    H1 9743   8.179   3.931   3.100
 3269TIP3    H2 9744   8.242   4.069   3.095
 3270TIP3   OH2 9745   0.523   3.734   3.711
 3270TIP3    H1 9746   0.485   3.719   3.798
 3270TIP3    H2 9747   0.615   3.711   3.721
 3271TIP3   OH2 9748   0.462   3.587   2.585
 3271TIP3    H1 9749   0.513   3.572   2.664
 3271TIP3    H2 9750   0.385   3.531   2.595
 3272TIP3   OH2 9751   0.731   4.224   3.750
 3272TIP3    H1 9752   0.665   4.157   3.767
 3272TIP3    H2 9753   0.699   4.270   3.672
 3273TIP3   OH2 9754   0.782   4.059   2.370
 3273TIP3    H1 9755   0.778   4.083   2.277
 3273TIP3    H2 9756   0.711   4.108   2.411
 3274TIP3   OH2 9757   8.394   2.811   4.256
 3274TIP3    H1 9758   8.326   2.768   4.204
 3274TIP3    H2 9759   8.419   2.747   4.322
 3275TIP3   OH2 9760   0.633   3.546   2.800
 3275TIP3    H1 9761   0.615   3.471   2.856
 3275TIP3    H2 9762   0.727   3.540   2.782
 3276TIP3   OH2 9763   8.325   3.544   2.538
 3276TIP3    H1 9764   8.356   3.463   2.498
 3276TIP3    H2 9765   8.285   3.517   2.621
 3277TIP3   OH2 9766   8.201   3.584   2.804
 3277TIP3    H1 9767   8.262   3.539   2.862
 3277TIP3    H2 9768   8.228   3.676   2.809
 3278TIP3   OH2 9769   7.979   3.270   3.126
 3278TIP3    H1 9770   7.998   3.351   3.173
 3278TIP3    H2 9771   7.997   3.290   3.034
 3279TIP3   OH2 9772   0.673   2.883   3.938
 3279TIP3    H1 9773   0.738   2.944   3.975
 3279TIP3    H2 9774   0.659   2.819   4.008
 3280TIP3   OH2 9775   0.542   2.640   3.137
 3280TIP3    H1 9776   0.518   2.659   3.046
 3280TIP3    H2 9777   0.585   2.720   3.168
 3281TIP3   OH2 9778   0.088   3.768   2.786
 3281TIP3    H1 9779   0.124   3.808   2.865
 3281TIP3    H2 9780   0.065   3.842   2.730
 3282TIP3   OH2 9781   0.213   2.828   3.210
 3282TIP3    H1 9782   0.272   2.900   3.188
 3282TIP3    H2 9783   0.230   2.812   3.303
 3283TIP3   OH2 9784   0.493   3.128   4.021
 3283TIP3    H1 9785   0.519   3.190   4.089
 3283TIP3    H2 9786   0.551   3.053   4.033
 3284TIP3   OH2 9787   0.356   2.537   3.311
 3284TIP3    H1 9788   0.330   2.614   3.362
 3284TIP3    H2 9789   0.425   2.569   3.253
 3285TIP3   OH2 9790   8.255   3.848   2.818
 3285TIP3    H1 9791   8.251   3.914   2.748
 3285TIP3    H2 9792   8.247   3.899   2.899
 3286TIP3   OH2 9793   8.379   2.561   3.195
 3286TIP3    H1 9794   8.379   2.656   3.186
 3286TIP3    H2 9795   8.465   2.534   3.161
 3287TIP3   OH2 9796   1.101   3.016   3.977
 3287TIP3    H1 9797   1.009   3.035   3.992
 3287TIP3    H2 9798   1.119   3.049   3.889
 3288TIP3   OH2 9799   0.766   3.230   3.369
 3288TIP3    H1 9800   0.687   3.178   3.384
 3288TIP3    H2 9801   0.832   3.191   3.428
 3289TIP3   OH2 9802   7.956   3.605   2.936
 3289TIP3    H1 9803   8.033   3.615   2.880
 3289TIP3    H2 9804   7.884   3.638   2.884
 3290TIP3   OH2 9805   0.748   4.208   3.314
 3290TIP3    H1 9806   0.709   4.261   3.244
 3290TIP3    H2 9807   0.842   4.217   3.301
 3291TIP3   OH2 9808   8.324   2.454   3.851
 3291TIP3    H1 9809   8.309   2.418   3.764
 3291TIP3    H2 9810   8.316   2.379   3.910
 3292TIP3   OH2 9811   0.120   4.214   4.283
 3292TIP3    H1 9812   0.187   4.147   4.295
 3292TIP3    H2 9813   0.041   4.165   4.260
 3293TIP3   OH2 9814   8.479   3.765   2.482
 3293TIP3    H1 9815   8.432   3.690   2.517
 3293TIP3    H2 9816   8.555   3.727   2.437
 3294TIP3   OH2 9817   0.638   4.083   4.105
 3294TIP3    H1 9818   0.640   4.010   4.168
 3294TIP3    H2 9819   0.715   4.135   4.127
 3295TIP3   OH2 9820   0.411   3.793   2.409
 3295TIP3    H1 9821   0.444   3.726   2.469
 3295TIP3    H2 9822   0.466   3.785   2.331
 3296TIP3   OH2 9823   8.222   3.304   2.687
 3296TIP3    H1 9824   8.262   3.262   2.763
 3296TIP3    H2 9825   8.280   3.282   2.614
 3297TIP3   OH2 9826   0.353   3.732   4.240
 3297TIP3    H1 9827   0.265   3.742   4.204
 3297TIP3    H2 9828   0.357   3.641   4.269
 3298TIP3   OH2 9829   0.195   3.445   2.514
 3298TIP3    H1 9830   0.186   3.461   2.608
 3298TIP3    H2 9831   0.189   3.350   2.505
 3299TIP3   OH2 9832   0.755   3.674   3.857
 3299TIP3    H1 9833   0.836   3.724   3.847
 3299TIP3    H2 9834   0.724   3.698   3.944
 3300TIP3   OH2 9835   8.432   3.369   4.501
 3300TIP3    H1 9836   8.372   3.356   4.426
 3300TIP3    H2 9837   8.407   3.454   4.537
 3301TIP3   OH2 9838   8.343   3.201   2.920
 3301TIP3    H1 9839   8.310   3.173   3.005
 3301TIP3    H2 9840   8.377   3.121   2.880
 3302TIP3   OH2 9841   0.185   3.288   4.175
 3302TIP3    H1 9842   0.095   3.321   4.167
 3302TIP3    H2 9843   0.223   3.300   4.087
 3303TIP3   OH2 9844   8.444   2.998   2.753
 3303TIP3    H1 9845   8.426   2.974   2.662
 3303TIP3    H2 9846   8.539   3.009   2.757
 3304TIP3   OH2 9847   0.749   3.307   2.427
 3304TIP3    H1 9848   0.752   3.271   2.339
 3304TIP3    H2 9849   0.717   3.397   2.416
 3305TIP3   OH2 9850   0.265   3.041   4.273
 3305TIP3    H1 9851   0.271   2.974   4.205
 3305TIP3    H2 9852   0.242   3.121   4.226
 3306TIP3   OH2 9853   0.278   2.850   4.069
 3306TIP3    H1 9854   0.310   2.888   3.987
 3306TIP3    H2 9855   0.190   2.819   4.048
 3307TIP3   OH2 9856   0.274   3.345   3.927
 3307TIP3    H1 9857   0.359   3.367   3.889
 3307TIP3    H2 9858   0.211   3.402   3.881
 3308TIP3   OH2 9859   0.102   3.097   4.484
 3308TIP3    H1 9860   0.058   3.014   4.501
 3308TIP3    H2 9861   0.155   3.081   4.406
 3309TIP3   OH2 9862   0.364   2.609   4.182
 3309TIP3    H1 9863   0.321   2.689   4.151
 3309TIP3    H2 9864   0.298   2.540   4.172
 3310TIP3   OH2 9865   0.517   3.094   4.381
 3310TIP3    H1 9866   0.513   3.091   4.476
 3310TIP3    H2 9867   0.428   3.073   4.352
 3311TIP3   OH2 9868   0.738   3.015   4.235
 3311TIP3    H1 9869   0.665   3.039   4.293
 3311TIP3    H2 9870   0.815   3.018   4.291
 3312TIP3   OH2 9871   0.968   2.988   4.403
 3312TIP3    H1 9872   0.967   2.899   4.439
 3312TIP3    H2 9873   0.954   3.044   4.479
 3313TIP3   OH2 9874   8.456   2.891   4.568
 3313TIP3    H1 9875   8.447   2.805   4.527
 3313TIP3    H2 9876   8.478   2.872   4.659
 3314TIP3   OH2 9877   0.480   2.794   4.559
 3314TIP3    H1 9878   0.466   2.773   4.466
 3314TIP3    H2 9879   0.423   2.869   4.575
 3315TIP3   OH2 9880   8.267   4.063   2.651
 3315TIP3    H1 9881   8.362   4.048   2.643
 3315TIP3    H2 9882   8.242   4.101   2.566
 3316TIP3   OH2 9883   1.019   4.256   3.306
 3316TIP3    H1 9884   1.037   4.281   3.397
 3316TIP3    H2 9885   1.073   4.316   3.254
 3317TIP3   OH2 9886   1.035   4.285   3.586
 3317TIP3    H1 9887   0.985   4.204   3.582
 3317TIP3    H2 9888   1.104   4.268   3.650
 3318TIP3   OH2 9889   1.085   3.993   4.153
 3318TIP3    H1 9890   1.016   3.993   4.219
 3318TIP3    H2 9891   1.129   4.077   4.164
 3319TIP3   OH2 9892   0.908   3.510   2.770
 3319TIP3    H1 9893   0.969   3.576   2.739
 3319TIP3    H2 9894   0.952   3.468   2.844
 3320TIP3   OH2 9895   1.036   3.364   2.968
 3320TIP3    H1 9896   0.969   3.324   3.024
 3320TIP3    H2 9897   1.101   3.399   3.029
 3321TIP3   OH2 9898   1.087   3.768   3.398
 3321TIP3    H1 9899   1.140   3.698   3.358
 3321TIP3    H2 9900   1.090   3.839   3.334
 3322TIP3   OH2 9901   0.890   4.048   3.595
 3322TIP3    H1 9902   0.824   4.091   3.649
 3322TIP3    H2 9903   0.840   4.006   3.525
 3323TIP3   OH2 9904   0.945   3.283   2.617
 3323TIP3    H1 9905   0.876   3.281   2.550
 3323TIP3    H2 9906   0.926   3.360   2.670
 3324TIP3   OH2 9907   0.820   2.943   2.553
 3324TIP3    H1 9908   0.756   2.989   2.499
 3324TIP3    H2 9909   0.804   2.850   2.535
 3325TIP3   OH2 9910   0.834   3.222   3.101
 3325TIP3    H1 9911   0.838   3.128   3.086
 3325TIP3    H2 9912   0.815   3.231   3.195
 3326TIP3   OH2 9913   1.113   3.642   3.957
 3326TIP3    H1 9914   1.173   3.568   3.944
 3326TIP3    H2 9915   1.117   3.691   3.876
 3327TIP3   OH2 9916   1.289   3.426   3.953
 3327TIP3    H1 9917   1.215   3.393   4.004
 3327TIP3    H2 9918   1.363   3.373   3.981
 3328TIP3   OH2 9919   0.773   2.671   2.526
 3328TIP3    H1 9920   0.839   2.649   2.591
 3328TIP3    H2 9921   0.691   2.636   2.563
 3329TIP3   OH2 9922   0.834   2.949   2.992
 3329TIP3    H1 9923   0.877   2.864   3.005
 3329TIP3    H2 9924   0.878   2.987   2.916
 3330TIP3   OH2 9925   0.977   3.112   3.516
 3330TIP3    H1 9926   1.061   3.129   3.472
 3330TIP3    H2 9927   0.988   3.152   3.603
 3331TIP3   OH2 9928   1.057   3.258   3.746
 3331TIP3    H1 9929   0.984   3.284   3.801
 3331TIP3    H2 9930   1.085   3.338   3.703
 3332TIP3   OH2 9931   8.189   2.978   4.635
 3332TIP3    H1 9932   8.260   2.929   4.594
 3332TIP3    H2 9933   8.109   2.941   4.599
 3333TIP3   OH2 9934   1.509   2.859   4.278
 3333TIP3    H1 9935   1.574   2.800   4.240
 3333TIP3    H2 9936   1.475   2.908   4.204
 3334TIP3   OH2 9937   0.946   2.697   3.040
 3334TIP3    H1 9938   0.989   2.682   3.124
 3334TIP3    H2 9939   0.882   2.626   3.033
 3335TIP3   OH2 9940   8.187   2.671   3.763
 3335TIP3    H1 9941   8.223   2.584   3.781
 3335TIP3    H2 9942   8.262   2.730   3.769
 3336TIP3   OH2 9943   1.360   2.998   4.097
 3336TIP3    H1 9944   1.301   3.039   4.161
 3336TIP3    H2 9945   1.301   2.954   4.035
 3337TIP3   OH2 9946   0.999   2.609   2.673
 3337TIP3    H1 9947   1.050   2.545   2.622
 3337TIP3    H2 9948   1.056   2.685   2.682
 3338TIP3   OH2 9949   0.566   4.179   2.946
 3338TIP3    H1 9950   0.621   4.164   2.869
 3338TIP3    H2 9951   0.616   4.243   2.998
 3339TIP3   OH2 9952   8.015   2.574   4.328
 3339TIP3    H1 9953   7.930   2.555   4.369
 3339TIP3    H2 9954   8.022   2.510   4.258
 3340TIP3   OH2 9955   8.328   3.984   3.936
 3340TIP3    H1 9956   8.382   4.059   3.912
 3340TIP3    H2 9957   8.378   3.908   3.909
 3341TIP3   OH2 9958   0.330   4.215   3.996
 3341TIP3    H1 9959   0.361   4.220   4.086
 3341TIP3    H2 9960   0.399   4.258   3.945
 3342TIP3   OH2 9961   0.522   4.376   3.877
 3342TIP3    H1 9962   0.597   4.327   3.846
 3342TIP3    H2 9963   0.558   4.439   3.940
 3343TIP3   OH2 9964   1.267   2.735   3.974
 3343TIP3    H1 9965   1.187   2.748   3.921
 3343TIP3    H2 9966   1.290   2.643   3.959
 3344TIP3   OH2 9967   8.371   4.198   3.746
 3344TIP3    H1 9968   8.280   4.186   3.773
 3344TIP3    H2 9969   8.381   4.143   3.668
 3345TIP3   OH2 9970   0.228   4.251   3.572
 3345TIP3    H1 9971   0.237   4.272   3.479
 3345TIP3    H2 9972   0.227   4.335   3.616
 3346TIP3   OH2 9973   0.491   4.194   3.598
 3346TIP3    H1 9974   0.398   4.217   3.600
 3346TIP3    H2 9975   0.533   4.273   3.563
 3347TIP3   OH2 9976   0.675   4.381   3.516
 3347TIP3    H1 9977   0.668   4.466   3.473
 3347TIP3    H2 9978   0.701   4.321   3.447
 3348TIP3   OH2 9979   8.158   3.941   3.413
 3348TIP3    H1 9980   8.132   3.851   3.433
 3348TIP3    H2 9981   8.253   3.940   3.418
 3349TIP3   OH2 9982   8.449   4.051   3.534
 3349TIP3    H1 9983   8.452   3.975   3.477
 3349TIP3    H2 9984   8.521   4.038   3.596
 3350TIP3   OH2 9985   0.485   2.649   3.619
 3350TIP3    H1 9986   0.444   2.576   3.664
 3350TIP3    H2 9987   0.553   2.608   3.565
 3351TIP3   OH2 9988   0.986   2.557   3.495
 3351TIP3    H1 9989   1.022   2.609   3.424
 3351TIP3    H2 9990   0.895   2.586   3.502
 3352TIP3   OH2 9991   1.101   2.644   3.262
 3352TIP3    H1 9992   1.171   2.584   3.237
 3352TIP3    H2 9993   1.139   2.731   3.250
 3353TIP3   OH2 9994   8.251   2.365   3.602
 3353TIP3    H1 9995   8.157   2.348   3.608
 3353TIP3    H2 9996   8.291   2.278   3.597
 3354TIP3   OH2 9997   0.201   2.395   3.503
 3354TIP3    H1 9998   0.251   2.442   3.436
 3354TIP3    H2 9999   0.245   2.417   3.586
 3355TIP3   OH210000   0.696   2.535   3.482
 3355TIP3    H110001   0.704   2.503   3.392
 3355TIP3    H210002   0.703   2.456   3.536
 3356TIP3   OH210003   0.759   2.487   3.047
 3356TIP3    H110004   0.679   2.536   3.071
 3356TIP3    H210005   0.746   2.401   3.085
 3357TIP3   OH210006   0.153   2.576   3.118
 3357TIP3    H110007   0.210   2.526   3.176
 3357TIP3    H210008   0.167   2.667   3.143
 3358TIP3   OH210009   0.031   3.992   2.622
 3358TIP3    H110010   0.115   4.019   2.585
 3358TIP3    H210011   0.001   3.922   2.564
 3359TIP3   OH210012   0.718   4.122   2.717
 3359TIP3    H110013   0.709   4.026   2.713
 3359TIP3    H210014   0.675   4.153   2.637
 3360TIP3   OH210015   8.484   2.629   4.463
 3360TIP3    H110016   8.425   2.608   4.536
 3360TIP3    H210017   8.571   2.631   4.503
 3361TIP3   OH210018   0.203   2.654   4.641
 3361TIP3    H110019   0.295   2.637   4.622
 3361TIP3    H210020   0.176   2.584   4.700
 3362TIP3   OH210021   1.042   2.671   4.420
 3362TIP3    H110022   1.075   2.679   4.510
 3362TIP3    H210023   1.114   2.702   4.366
 3363TIP3   OH210024   0.948   4.266   3.916
 3363TIP3    H110025   0.875   4.237   3.861
 3363TIP3    H210026   0.936   4.361   3.924
 3364TIP3   OH210027   2.212   3.639   2.657
 3364TIP3    H110028   2.181   3.728   2.638
 3364TIP3    H210029   2.143   3.583   2.622
 3365TIP3   OH210030   2.233   3.665   3.064
 3365TIP3    H110031   2.270   3.629   3.144
 3365TIP3    H210032   2.203   3.589   3.015
 3366TIP3   OH210033   1.514   3.517   3.425
 3366TIP3    H110034   1.550   3.443   3.473
 3366TIP3    H210035   1.575   3.590   3.443
 3367TIP3   OH210036   2.483   3.952   2.740
 3367TIP3    H110037   2.477   3.886   2.808
 3367TIP3    H210038   2.505   4.033   2.787
 3368TIP3   OH210039   1.506   3.928   3.104
 3368TIP3    H110040   1.491   3.834   3.115
 3368TIP3    H210041   1.601   3.936   3.095
 3369TIP3   OH210042   1.194   3.142   2.890
 3369TIP3    H110043   1.154   3.226   2.914
 3369TIP3    H210044   1.123   3.092   2.850
 3370TIP3   OH210045   1.269   3.443   3.106
 3370TIP3    H110046   1.318   3.367   3.136
 3370TIP3    H210047   1.337   3.506   3.081
 3371TIP3   OH210048   2.143   4.375   2.761
 3371TIP3    H110049   2.167   4.311   2.694
 3371TIP3    H210050   2.153   4.328   2.844
 3372TIP3   OH210051   2.023   3.874   3.081
 3372TIP3    H110052   2.073   3.799   3.048
 3372TIP3    H210053   2.090   3.933   3.116
 3373TIP3   OH210054   3.052   3.176   3.093
 3373TIP3    H110055   3.070   3.257   3.141
 3373TIP3    H210056   3.089   3.193   3.006
 3374TIP3   OH210057   2.410   3.312   3.123
 3374TIP3    H110058   2.481   3.251   3.143
 3374TIP3    H210059   2.397   3.305   3.029
 3375TIP3   OH210060   1.775   3.008   3.068
 3375TIP3    H110061   1.749   3.082   3.013
 3375TIP3    H210062   1.718   2.937   3.040
 3376TIP3   OH210063   2.482   3.116   2.703
 3376TIP3    H110064   2.550   3.115   2.770
 3376TIP3    H210065   2.526   3.149   2.624
 3377TIP3   OH210066   1.410   3.227   3.208
 3377TIP3    H110067   1.493   3.210   3.252
 3377TIP3    H210068   1.412   3.172   3.129
 3378TIP3   OH210069   1.852   3.407   2.997
 3378TIP3    H110070   1.940   3.370   3.005
 3378TIP3    H210071   1.798   3.334   2.968
 3379TIP3   OH210072   3.105   3.383   3.270
 3379TIP3    H110073   3.025   3.433   3.258
 3379TIP3    H210074   3.117   3.378   3.365
 3380TIP3   OH210075   1.772   3.025   3.538
 3380TIP3    H110076   1.723   3.063   3.465
 3380TIP3    H210077   1.715   3.037   3.614
 3381TIP3   OH210078   2.078   3.850   2.538
 3381TIP3    H110079   2.059   3.836   2.445
 3381TIP3    H210080   2.040   3.936   2.557
 3382TIP3   OH210081   1.858   3.787   3.286
 3382TIP3    H110082   1.804   3.856   3.323
 3382TIP3    H210083   1.908   3.830   3.216
 3383TIP3   OH210084   2.652   3.150   2.911
 3383TIP3    H110085   2.633   3.118   2.999
 3383TIP3    H210086   2.713   3.222   2.924
 3384TIP3   OH210087   1.664   3.122   3.298
 3384TIP3    H110088   1.722   3.197   3.316
 3384TIP3    H210089   1.705   3.078   3.224
 3385TIP3   OH210090   1.702   3.991   3.394
 3385TIP3    H110091   1.689   4.080   3.362
 3385TIP3    H210092   1.625   3.973   3.447
 3386TIP3   OH210093   1.083   3.691   2.649
 3386TIP3    H110094   1.048   3.709   2.562
 3386TIP3    H210095   1.108   3.777   2.683
 3387TIP3   OH210096   2.516   4.195   2.886
 3387TIP3    H110097   2.427   4.189   2.922
 3387TIP3    H210098   2.517   4.278   2.838
 3388TIP3   OH210099   2.854   3.051   3.253
 3388TIP3    H110100   2.769   3.080   3.219
 3388TIP3    H210101   2.918   3.090   3.194
 3389TIP3   OH210102   2.225   4.221   2.545
 3389TIP3    H110103   2.276   4.141   2.531
 3389TIP3    H210104   2.282   4.292   2.515
 3390TIP3   OH210105   2.379   4.005   2.489
 3390TIP3    H110106   2.389   3.928   2.433
 3390TIP3    H210107   2.418   3.979   2.573
 3391TIP3   OH210108   2.750   4.093   3.231
 3391TIP3    H110109   2.737   4.017   3.173
 3391TIP3    H210110   2.737   4.168   3.173
 3392TIP3   OH210111   2.041   3.487   2.498
 3392TIP3    H110112   1.960   3.535   2.481
 3392TIP3    H210113   2.089   3.491   2.415
 3393TIP3   OH210114   2.018   3.295   2.198
 3393TIP3    H110115   2.081   3.348   2.246
 3393TIP3    H210116   2.070   3.228   2.154
 3394TIP3   OH210117   2.936   3.744   3.099
 3394TIP3    H110118   2.853   3.793   3.096
 3394TIP3    H210119   2.977   3.761   3.014
 3395TIP3   OH210120   2.400   3.583   2.463
 3395TIP3    H110121   2.345   3.607   2.538
 3395TIP3    H210122   2.484   3.557   2.502
 3396TIP3   OH210123   2.629   3.601   3.400
 3396TIP3    H110124   2.627   3.685   3.446
 3396TIP3    H210125   2.548   3.599   3.350
 3397TIP3   OH210126   1.636   3.553   2.876
 3397TIP3    H110127   1.596   3.496   2.810
 3397TIP3    H210128   1.714   3.505   2.905
 3398TIP3   OH210129   1.768   3.984   3.008
 3398TIP3    H110130   1.747   3.969   2.915
 3398TIP3    H210131   1.856   3.949   3.019
 3399TIP3   OH210132   1.763   3.534   3.229
 3399TIP3    H110133   1.798   3.509   3.144
 3399TIP3    H210134   1.797   3.623   3.243
 3400TIP3   OH210135   2.274   4.193   3.013
 3400TIP3    H110136   2.262   4.273   3.064
 3400TIP3    H210137   2.262   4.122   3.077
 3401TIP3   OH210138   1.900   4.093   3.561
 3401TIP3    H110139   1.839   4.150   3.607
 3401TIP3    H210140   1.844   4.040   3.504
 3402TIP3   OH210141   2.235   3.441   2.294
 3402TIP3    H110142   2.295   3.499   2.341
 3402TIP3    H210143   2.265   3.446   2.203
 3403TIP3   OH210144   1.650   3.635   3.676
 3403TIP3    H110145   1.660   3.724   3.710
 3403TIP3    H210146   1.558   3.613   3.691
 3404TIP3   OH210147   1.973   4.110   2.550
 3404TIP3    H110148   2.059   4.151   2.556
 3404TIP3    H210149   1.920   4.173   2.501
 3405TIP3   OH210150   1.690   4.252   3.644
 3405TIP3    H110151   1.667   4.262   3.551
 3405TIP3    H210152   1.607   4.237   3.688
 3406TIP3   OH210153   2.744   2.662   2.351
 3406TIP3    H110154   2.668   2.687   2.404
 3406TIP3    H210155   2.757   2.737   2.293
 3407TIP3   OH210156   1.505   3.401   2.672
 3407TIP3    H110157   1.429   3.449   2.639
 3407TIP3    H210158   1.471   3.313   2.689
 3408TIP3   OH210159   2.569   4.040   1.905
 3408TIP3    H110160   2.564   4.134   1.883
 3408TIP3    H210161   2.658   4.015   1.884
 3409TIP3   OH210162   1.286   3.801   3.598
 3409TIP3    H110163   1.214   3.785   3.537
 3409TIP3    H210164   1.316   3.714   3.623
 3410TIP3   OH210165   1.136   3.997   3.237
 3410TIP3    H110166   1.230   4.011   3.248
 3410TIP3    H210167   1.095   4.074   3.277
 3411TIP3   OH210168   2.979   4.443   3.298
 3411TIP3    H110169   2.984   4.349   3.313
 3411TIP3    H210170   2.901   4.471   3.344
 3412TIP3   OH210171   2.091   4.235   3.424
 3412TIP3    H110172   2.083   4.326   3.453
 3412TIP3    H210173   2.023   4.188   3.473
 3413TIP3   OH210174   1.870   4.328   2.380
 3413TIP3    H110175   1.829   4.312   2.295
 3413TIP3    H210176   1.836   4.413   2.408
 3414TIP3   OH210177   1.306   4.186   2.759
 3414TIP3    H110178   1.352   4.179   2.843
 3414TIP3    H210179   1.260   4.102   2.750
 3415TIP3   OH210180   2.070   4.263   2.005
 3415TIP3    H110181   2.120   4.189   1.970
 3415TIP3    H210182   2.106   4.279   2.092
 3416TIP3   OH210183   2.125   4.310   2.272
 3416TIP3    H110184   2.042   4.309   2.320
 3416TIP3    H210185   2.190   4.282   2.337
 3417TIP3   OH210186   2.864   3.577   3.584
 3417TIP3    H110187   2.783   3.603   3.539
 3417TIP3    H210188   2.872   3.484   3.566
 3418TIP3   OH210189   1.486   3.987   3.564
 3418TIP3    H110190   1.537   3.974   3.644
 3418TIP3    H210191   1.413   3.926   3.572
 3419TIP3   OH210192   1.857   2.808   3.390
 3419TIP3    H110193   1.777   2.770   3.354
 3419TIP3    H210194   1.827   2.884   3.440
 3420TIP3   OH210195   2.424   2.905   3.600
 3420TIP3    H110196   2.508   2.881   3.639
 3420TIP3    H210197   2.359   2.877   3.664
 3421TIP3   OH210198   2.576   3.315   3.432
 3421TIP3    H110199   2.567   3.309   3.527
 3421TIP3    H210200   2.616   3.401   3.417
 3422TIP3   OH210201   2.314   3.417   2.031
 3422TIP3    H110202   2.268   3.424   1.947
 3422TIP3    H210203   2.397   3.462   2.017
 3423TIP3   OH210204   2.016   2.839   2.345
 3423TIP3    H110205   1.982   2.844   2.435
 3423TIP3    H210206   1.982   2.757   2.311
 3424TIP3   OH210207   1.839   3.323   3.388
 3424TIP3    H110208   1.786   3.331   3.468
 3424TIP3    H210209   1.816   3.400   3.336
 3425TIP3   OH210210   1.683   3.209   2.907
 3425TIP3    H110211   1.594   3.187   2.933
 3425TIP3    H210212   1.691   3.175   2.818
 3426TIP3   OH210213   2.171   3.286   2.633
 3426TIP3    H110214   2.122   3.357   2.592
 3426TIP3    H210215   2.230   3.255   2.564
 3427TIP3   OH210216   2.348   3.569   3.724
 3427TIP3    H110217   2.325   3.498   3.784
 3427TIP3    H210218   2.442   3.584   3.739
 3428TIP3   OH210219   2.337   3.298   2.858
 3428TIP3    H110220   2.272   3.323   2.792
 3428TIP3    H210221   2.387   3.228   2.816
 3429TIP3   OH210222   1.654   3.338   3.597
 3429TIP3    H110223   1.654   3.410   3.661
 3429TIP3    H210224   1.628   3.261   3.648
 3430TIP3   OH210225   1.683   2.821   2.325
 3430TIP3    H110226   1.676   2.826   2.420
 3430TIP3    H210227   1.607   2.868   2.292
 3431TIP3   OH210228   1.233   2.866   3.185
 3431TIP3    H110229   1.307   2.901   3.234
 3431TIP3    H210230   1.270   2.841   3.100
 3432TIP3   OH210231   1.148   2.843   2.695
 3432TIP3    H110232   1.189   2.878   2.616
 3432TIP3    H210233   1.086   2.912   2.722
 3433TIP3   OH210234   2.358   3.531   3.280
 3433TIP3    H110235   2.386   3.457   3.227
 3433TIP3    H210236   2.332   3.493   3.364
 3434TIP3   OH210237   2.033   3.027   2.958
 3434TIP3    H110238   1.952   3.009   3.005
 3434TIP3    H210239   2.062   3.111   2.994
 3435TIP3   OH210240   1.449   3.084   2.974
 3435TIP3    H110241   1.360   3.093   2.938
 3435TIP3    H210242   1.472   2.993   2.958
 3436TIP3   OH210243   1.705   3.087   2.664
 3436TIP3    H110244   1.799   3.098   2.651
 3436TIP3    H210245   1.665   3.106   2.579
 3437TIP3   OH210246   2.565   3.067   3.164
 3437TIP3    H110247   2.519   3.065   3.247
 3437TIP3    H210248   2.547   2.982   3.124
 3438TIP3   OH210249   1.589   3.114   2.420
 3438TIP3    H110250   1.525   3.067   2.369
 3438TIP3    H210251   1.644   3.159   2.355
 3439TIP3   OH210252   2.696   4.797   3.382
 3439TIP3    H110253   2.692   4.814   3.288
 3439TIP3    H210254   2.776   4.842   3.411
 3440TIP3   OH210255   1.638   3.896   3.793
 3440TIP3    H110256   1.718   3.918   3.841
 3440TIP3    H210257   1.569   3.894   3.859
 3441TIP3   OH210258   2.109   3.281   3.049
 3441TIP3    H110259   2.189   3.296   2.998
 3441TIP3    H210260   2.137   3.286   3.140
 3442TIP3   OH210261   1.589   2.833   2.953
 3442TIP3    H110262   1.561   2.758   3.005
 3442TIP3    H210263   1.607   2.797   2.866
 3443TIP3   OH210264   2.117   3.254   3.352
 3443TIP3    H110265   2.031   3.296   3.348
 3443TIP3    H210266   2.172   3.317   3.399
 3444TIP3   OH210267   1.806   3.628   2.444
 3444TIP3    H110268   1.731   3.572   2.422
 3444TIP3    H210269   1.781   3.668   2.528
 3445TIP3   OH210270   2.704   3.889   3.052
 3445TIP3    H110271   2.743   3.937   2.979
 3445TIP3    H210272   2.625   3.848   3.015
 3446TIP3   OH210273   2.271   2.942   2.358
 3446TIP3    H110274   2.177   2.923   2.350
 3446TIP3    H210275   2.276   3.037   2.366
 3447TIP3   OH210276   2.216   3.960   3.470
 3447TIP3    H110277   2.269   3.949   3.548
 3447TIP3    H210278   2.178   4.048   3.479
 3448TIP3   OH210279   2.334   3.209   2.417
 3448TIP3    H110280   2.429   3.211   2.425
 3448TIP3    H210281   2.312   3.286   2.366
 3449TIP3   OH210282   1.506   3.635   3.109
 3449TIP3    H110283   1.549   3.616   3.026
 3449TIP3    H210284   1.563   3.596   3.175
 3450TIP3   OH210285   1.961   3.786   2.285
 3450TIP3    H110286   1.914   3.869   2.283
 3450TIP3    H210287   1.907   3.729   2.340
 3451TIP3   OH210288   1.382   3.565   3.725
 3451TIP3    H110289   1.380   3.541   3.818
 3451TIP3    H210290   1.307   3.518   3.687
 3452TIP3   OH210291   2.116   3.720   3.749
 3452TIP3    H110292   2.050   3.657   3.720
 3452TIP3    H210293   2.200   3.680   3.726
 3453TIP3   OH210294   2.363   4.252   3.354
 3453TIP3    H110295   2.268   4.241   3.356
 3453TIP3    H210296   2.384   4.288   3.440
 3454TIP3   OH210297   2.745   3.298   2.238
 3454TIP3    H110298   2.687   3.253   2.176
 3454TIP3    H210299   2.753   3.386   2.202
 3455TIP3   OH210300   2.997   4.161   3.323
 3455TIP3    H110301   2.903   4.148   3.314
 3455TIP3    H210302   3.033   4.136   3.238
 3456TIP3   OH210303   2.485   4.115   2.164
 3456TIP3    H110304   2.461   4.041   2.220
 3456TIP3    H210305   2.509   4.074   2.080
 3457TIP3   OH210306   2.478   3.757   2.945
 3457TIP3    H110307   2.390   3.740   2.978
 3457TIP3    H210308   2.508   3.673   2.910
 3458TIP3   OH210309   1.628   3.984   2.761
 3458TIP3    H110310   1.626   4.059   2.702
 3458TIP3    H210311   1.538   3.978   2.794
 3459TIP3   OH210312   1.184   3.265   2.481
 3459TIP3    H110313   1.228   3.348   2.501
 3459TIP3    H210314   1.102   3.268   2.531
 3460TIP3   OH210315   1.705   3.734   2.672
 3460TIP3    H110316   1.691   3.824   2.700
 3460TIP3    H210317   1.682   3.681   2.748
 3461TIP3   OH210318   1.907   4.308   3.217
 3461TIP3    H110319   1.942   4.382   3.167
 3461TIP3    H210320   1.982   4.275   3.267
 3462TIP3   OH210321   1.538   4.207   2.609
 3462TIP3    H110322   1.452   4.213   2.652
 3462TIP3    H210323   1.574   4.296   2.615
 3463TIP3   OH210324   2.256   3.978   3.196
 3463TIP3    H110325   2.243   3.971   3.290
 3463TIP3    H210326   2.338   3.933   3.179
 3464TIP3   OH210327   2.256   3.850   2.073
 3464TIP3    H110328   2.302   3.835   2.155
 3464TIP3    H210329   2.169   3.812   2.087
 3465TIP3   OH210330   2.511   4.464   3.234
 3465TIP3    H110331   2.443   4.400   3.253
 3465TIP3    H210332   2.478   4.514   3.160
 3466TIP3   OH210333   2.565   4.313   1.866
 3466TIP3    H110334   2.589   4.374   1.796
 3466TIP3    H210335   2.494   4.357   1.913
 3467TIP3   OH210336   1.590   3.097   3.736
 3467TIP3    H110337   1.495   3.106   3.740
 3467TIP3    H210338   1.614   3.053   3.817
 3468TIP3   OH210339   2.428   3.798   2.291
 3468TIP3    H110340   2.412   3.724   2.348
 3468TIP3    H210341   2.522   3.793   2.270
 3469TIP3   OH210342   1.333   4.200   3.378
 3469TIP3    H110343   1.383   4.137   3.431
 3469TIP3    H210344   1.348   4.284   3.420
 3470TIP3   OH210345   1.592   3.822   2.077
 3470TIP3    H110346   1.606   3.732   2.048
 3470TIP3    H210347   1.585   3.815   2.172
 3471TIP3   OH210348   1.546   3.829   2.351
 3471TIP3    H110349   1.615   3.801   2.411
 3471TIP3    H210350   1.546   3.924   2.357
 3472TIP3   OH210351   1.281   3.517   2.556
 3472TIP3    H110352   1.215   3.564   2.607
 3472TIP3    H210353   1.300   3.576   2.483
 3473TIP3   OH210354   2.398   3.108   3.415
 3473TIP3    H110355   2.454   3.185   3.414
 3473TIP3    H210356   2.433   3.053   3.485
 3474TIP3   OH210357   2.329   2.897   2.627
 3474TIP3    H110358   2.308   2.911   2.534
 3474TIP3    H210359   2.376   2.976   2.652
 3475TIP3   OH210360   1.811   4.011   2.280
 3475TIP3    H110361   1.728   4.038   2.319
 3475TIP3    H210362   1.840   4.088   2.229
 3476TIP3   OH210363   1.984   3.094   2.693
 3476TIP3    H110364   2.046   3.162   2.668
 3476TIP3    H210365   2.001   3.078   2.786
 3477TIP3   OH210366   2.287   3.396   3.516
 3477TIP3    H110367   2.283   3.472   3.575
 3477TIP3    H210368   2.352   3.339   3.556
 3478TIP3   OH210369   2.141   2.805   2.809
 3478TIP3    H110370   2.120   2.884   2.859
 3478TIP3    H210371   2.209   2.833   2.748
 3479TIP3   OH210372   1.561   4.101   2.358
 3479TIP3    H110373   1.542   4.172   2.296
 3479TIP3    H210374   1.552   4.141   2.444
 3480TIP3   OH210375   1.660   2.815   2.605
 3480TIP3    H110376   1.650   2.906   2.634
 3480TIP3    H210377   1.754   2.798   2.610
 3481TIP3   OH210378   2.874   3.323   3.487
 3481TIP3    H110379   2.818   3.256   3.447
 3481TIP3    H210380   2.959   3.279   3.498
 3482TIP3   OH210381   2.556   3.495   2.862
 3482TIP3    H110382   2.486   3.430   2.872
 3482TIP3    H210383   2.629   3.459   2.912
 3483TIP3   OH210384   1.302   3.698   2.341
 3483TIP3    H110385   1.374   3.760   2.353
 3483TIP3    H210386   1.335   3.634   2.278
 3484TIP3   OH210387   1.201   2.987   2.469
 3484TIP3    H110388   1.212   3.081   2.477
 3484TIP3    H210389   1.128   2.976   2.408
 3485TIP3   OH210390   2.542   4.457   2.795
 3485TIP3    H110391   2.502   4.510   2.727
 3485TIP3    H210392   2.636   4.470   2.784
 3486TIP3   OH210393   1.606   2.708   3.337
 3486TIP3    H110394   1.577   2.675   3.252
 3486TIP3    H210395   1.599   2.633   3.396
 3487TIP3   OH210396   1.131   3.962   2.725
 3487TIP3    H110397   1.086   3.995   2.802
 3487TIP3    H210398   1.090   4.007   2.651
 3488TIP3   OH210399   1.333   4.500   3.797
 3488TIP3    H110400   1.417   4.505   3.842
 3488TIP3    H210401   1.317   4.407   3.784
 3489TIP3   OH210402   1.795   4.409   3.845
 3489TIP3    H110403   1.886   4.380   3.856
 3489TIP3    H210404   1.763   4.357   3.771
 3490TIP3   OH210405   1.754   4.017   1.964
 3490TIP3    H110406   1.706   3.948   2.010
 3490TIP3    H210407   1.830   3.972   1.926
 3491TIP3   OH210408   2.415   4.349   3.606
 3491TIP3    H110409   2.428   4.282   3.673
 3491TIP3    H210410   2.490   4.408   3.617
 3492TIP3   OH210411   2.197   4.050   1.889
 3492TIP3    H110412   2.235   3.988   1.951
 3492TIP3    H210413   2.255   4.046   1.812
 3493TIP3   OH210414   1.437   3.903   3.989
 3493TIP3    H110415   1.454   3.810   4.006
 3493TIP3    H210416   1.349   3.905   3.951
 3494TIP3   OH210417   1.429   3.509   2.192
 3494TIP3    H110418   1.480   3.483   2.269
 3494TIP3    H210419   1.494   3.525   2.124
 3495TIP3   OH210420   2.052   3.994   3.769
 3495TIP3    H110421   2.009   4.014   3.686
 3495TIP3    H210422   2.087   3.906   3.757
 3496TIP3   OH210423   1.985   3.732   2.018
 3496TIP3    H110424   1.967   3.742   2.111
 3496TIP3    H210425   1.974   3.639   2.001
 3497TIP3   OH210426   2.527   4.024   3.379
 3497TIP3    H110427   2.606   4.052   3.333
 3497TIP3    H210428   2.465   4.096   3.367
 3498TIP3   OH210429   1.570   3.650   3.996
 3498TIP3    H110430   1.648   3.606   3.962
 3498TIP3    H210431   1.593   3.673   4.086
 3499TIP3   OH210432   1.599   3.447   2.404
 3499TIP3    H110433   1.579   3.418   2.492
 3499TIP3    H210434   1.648   3.374   2.365
 3500TIP3   OH210435   1.919   3.536   3.643
 3500TIP3    H110436   1.831   3.575   3.647
 3500TIP3    H210437   1.953   3.564   3.558
 3501TIP3   OH210438   1.744   3.264   2.250
 3501TIP3    H110439   1.715   3.273   2.159
 3501TIP3    H210440   1.839   3.271   2.246
 3502TIP3   OH210441   2.409   3.910   3.737
 3502TIP3    H110442   2.485   3.878   3.688
 3502TIP3    H210443   2.409   3.859   3.818
 3503TIP3   OH210444   2.532   3.553   1.928
 3503TIP3    H110445   2.521   3.512   1.842
 3503TIP3    H210446   2.507   3.644   1.914
 3504TIP3   OH210447   2.012   3.313   3.770
 3504TIP3    H110448   1.992   3.239   3.712
 3504TIP3    H210449   1.983   3.390   3.721
 3505TIP3   OH210450   2.047   3.053   3.517
 3505TIP3    H110451   2.034   3.142   3.483
 3505TIP3    H210452   1.959   3.021   3.535
 3506TIP3   OH210453   2.043   3.631   3.419
 3506TIP3    H110454   2.126   3.679   3.412
 3506TIP3    H210455   1.980   3.686   3.373
 3507TIP3   OH210456   2.614   3.583   3.817
 3507TIP3    H110457   2.641   3.513   3.877
 3507TIP3    H210458   2.696   3.622   3.787
 3508TIP3   OH210459   2.658   3.846   3.540
 3508TIP3    H110460   2.604   3.907   3.491
 3508TIP3    H210461   2.748   3.865   3.511
 3509TIP3   OH210462   1.887   3.394   4.005
 3509TIP3    H110463   1.822   3.328   4.028
 3509TIP3    H210464   1.921   3.365   3.920
 3510TIP3   OH210465   2.141   2.825   3.667
 3510TIP3    H110466   2.107   2.902   3.622
 3510TIP3    H210467   2.073   2.759   3.656
 3511TIP3   OH210468   2.276   3.346   3.866
 3511TIP3    H110469   2.282   3.333   3.960
 3511TIP3    H210470   2.184   3.327   3.845
 3512TIP3   OH210471   2.476   3.272   3.686
 3512TIP3    H110472   2.413   3.288   3.757
 3512TIP3    H210473   2.558   3.252   3.731
 3513TIP3   OH210474   2.704   3.226   3.826
 3513TIP3    H110475   2.740   3.143   3.857
 3513TIP3    H210476   2.709   3.284   3.902
 3514TIP3   OH210477   1.737   3.162   4.067
 3514TIP3    H110478   1.741   3.072   4.034
 3514TIP3    H210479   1.773   3.157   4.155
 3515TIP3   OH210480   2.224   2.847   3.927
 3515TIP3    H110481   2.296   2.784   3.925
 3515TIP3    H210482   2.184   2.841   3.840
 3516TIP3   OH210483   2.307   3.067   4.071
 3516TIP3    H110484   2.280   2.994   4.015
 3516TIP3    H210485   2.231   3.126   4.071
 3517TIP3   OH210486   1.553   4.301   2.166
 3517TIP3    H110487   1.645   4.285   2.146
 3517TIP3    H210488   1.521   4.353   2.092
 3518TIP3   OH210489   1.030   3.694   2.360
 3518TIP3    H110490   1.125   3.705   2.357
 3518TIP3    H210491   1.015   3.605   2.327
 3519TIP3   OH210492   0.938   4.264   2.789
 3519TIP3    H110493   0.861   4.213   2.765
 3519TIP3    H210494   0.980   4.213   2.858
 3520TIP3   OH210495   1.072   4.116   2.980
 3520TIP3    H110496   1.064   4.047   3.046
 3520TIP3    H210497   1.125   4.183   3.023
 3521TIP3   OH210498   2.814   4.511   2.792
 3521TIP3    H110499   2.832   4.542   2.881
 3521TIP3    H210500   2.869   4.566   2.736
 3522TIP3   OH210501   2.824   4.551   3.073
 3522TIP3    H110502   2.777   4.468   3.067
 3522TIP3    H210503   2.895   4.534   3.136
 3523TIP3   OH210504   2.880   4.249   3.638
 3523TIP3    H110505   2.808   4.254   3.700
 3523TIP3    H210506   2.928   4.331   3.649
 3524TIP3   OH210507   2.704   3.764   2.257
 3524TIP3    H110508   2.761   3.833   2.223
 3524TIP3    H210509   2.752   3.725   2.329
 3525TIP3   OH210510   2.839   3.621   2.455
 3525TIP3    H110511   2.772   3.587   2.514
 3525TIP3    H210512   2.905   3.659   2.512
 3526TIP3   OH210513   2.879   4.022   2.886
 3526TIP3    H110514   2.935   3.953   2.848
 3526TIP3    H210515   2.885   4.094   2.823
 3527TIP3   OH210516   2.685   4.311   3.077
 3527TIP3    H110517   2.617   4.353   3.130
 3527TIP3    H210518   2.637   4.268   3.006
 3528TIP3   OH210519   2.743   3.537   2.102
 3528TIP3    H110520   2.672   3.537   2.039
 3528TIP3    H210521   2.728   3.616   2.155
 3529TIP3   OH210522   2.585   3.184   2.047
 3529TIP3    H110523   2.541   3.217   1.969
 3529TIP3    H210524   2.584   3.089   2.037
 3530TIP3   OH210525   2.628   3.487   2.592
 3530TIP3    H110526   2.640   3.393   2.582
 3530TIP3    H210527   2.610   3.499   2.686
 3531TIP3   OH210528   1.251   3.547   3.359
 3531TIP3    H110529   1.242   3.513   3.270
 3531TIP3    H210530   1.346   3.544   3.376
 3532TIP3   OH210531   2.917   3.900   3.454
 3532TIP3    H110532   2.978   3.829   3.437
 3532TIP3    H210533   2.944   3.970   3.394
 3533TIP3   OH210534   3.080   3.681   3.439
 3533TIP3    H110535   3.015   3.640   3.496
 3533TIP3    H210536   3.162   3.636   3.460
 3534TIP3   OH210537   2.561   2.911   2.015
 3534TIP3    H110538   2.626   2.882   2.080
 3534TIP3    H210539   2.479   2.872   2.044
 3535TIP3   OH210540   2.620   3.203   2.473
 3535TIP3    H110541   2.668   3.121   2.487
 3535TIP3    H210542   2.664   3.243   2.398
 3536TIP3   OH210543   2.778   3.382   2.990
 3536TIP3    H110544   2.859   3.401   2.943
 3536TIP3    H210545   2.793   3.416   3.079
 3537TIP3   OH210546   2.852   3.514   3.224
 3537TIP3    H110547   2.788   3.543   3.290
 3537TIP3    H210548   2.886   3.596   3.186
 3538TIP3   OH210549   1.475   3.230   4.005
 3538TIP3    H110550   1.568   3.227   4.028
 3538TIP3    H210551   1.438   3.152   4.046
 3539TIP3   OH210552   3.284   3.099   3.705
 3539TIP3    H110553   3.333   3.026   3.667
 3539TIP3    H210554   3.343   3.137   3.770
 3540TIP3   OH210555   2.738   2.956   2.529
 3540TIP3    H110556   2.786   2.941   2.610
 3540TIP3    H210557   2.677   2.883   2.523
 3541TIP3   OH210558   1.452   2.937   3.338
 3541TIP3    H110559   1.502   2.856   3.350
 3541TIP3    H210560   1.518   3.006   3.333
 3542TIP3   OH210561   1.228   3.190   3.426
 3542TIP3    H110562   1.280   3.186   3.346
 3542TIP3    H210563   1.245   3.277   3.462
 3543TIP3   OH210564   3.144   3.289   3.558
 3543TIP3    H110565   3.105   3.319   3.640
 3543TIP3    H210566   3.196   3.212   3.582
 3544TIP3   OH210567   2.789   2.859   2.164
 3544TIP3    H110568   2.841   2.799   2.111
 3544TIP3    H210569   2.842   2.939   2.169
 3545TIP3   OH210570   1.216   2.714   2.925
 3545TIP3    H110571   1.130   2.700   2.965
 3545TIP3    H210572   1.198   2.767   2.848
 3546TIP3   OH210573   2.360   4.426   2.433
 3546TIP3    H110574   2.419   4.417   2.358
 3546TIP3    H210575   2.401   4.492   2.489
 3547TIP3   OH210576   1.433   2.762   3.743
 3547TIP3    H110577   1.389   2.764   3.828
 3547TIP3    H210578   1.376   2.813   3.686
 3548TIP3   OH210579   1.464   4.221   3.802
 3548TIP3    H110580   1.371   4.202   3.796
 3548TIP3    H210581   1.490   4.186   3.888
 3549TIP3   OH210582   1.678   4.268   3.363
 3549TIP3    H110583   1.628   4.343   3.332
 3549TIP3    H210584   1.763   4.277   3.320
 3550TIP3   OH210585   2.076   4.502   3.502
 3550TIP3    H110586   2.113   4.495   3.590
 3550TIP3    H210587   2.139   4.555   3.453
 3551TIP3   OH210588   2.269   4.655   3.375
 3551TIP3    H110589   2.331   4.601   3.326
 3551TIP3    H210590   2.324   4.712   3.429
 3552TIP3   OH210591   3.050   2.982   3.458
 3552TIP3    H110592   2.982   2.987   3.391
 3552TIP3    H210593   3.090   2.895   3.444
 3553TIP3   OH210594   1.337   4.511   3.412
 3553TIP3    H110595   1.246   4.527   3.389
 3553TIP3    H210596   1.358   4.577   3.477
 3554TIP3   OH210597   1.569   4.501   3.263
 3554TIP3    H110598   1.486   4.506   3.310
 3554TIP3    H210599   1.547   4.525   3.173
 3555TIP3   OH210600   1.981   4.520   3.055
 3555TIP3    H110601   1.911   4.532   2.990
 3555TIP3    H210602   1.993   4.607   3.093
 3556TIP3   OH210603   2.240   4.448   3.110
 3556TIP3    H110604   2.151   4.472   3.087
 3556TIP3    H210605   2.295   4.510   3.062
 3557TIP3   OH210606   2.441   4.605   3.003
 3557TIP3    H110607   2.453   4.694   2.972
 3557TIP3    H210608   2.474   4.550   2.932
 3558TIP3   OH210609   1.250   4.289   3.127
 3558TIP3    H110610   1.273   4.265   3.217
 3558TIP3    H210611   1.323   4.256   3.074
 3559TIP3   OH210612   1.454   4.172   2.990
 3559TIP3    H110613   1.466   4.088   3.034
 3559TIP3    H210614   1.540   4.214   2.996
 3560TIP3   OH210615   1.720   4.261   3.015
 3560TIP3    H110616   1.740   4.168   3.000
 3560TIP3    H210617   1.775   4.286   3.089
 3561TIP3   OH210618   2.801   2.806   2.982
 3561TIP3    H110619   2.835   2.860   2.910
 3561TIP3    H210620   2.711   2.837   2.994
 3562TIP3   OH210621   2.900   2.901   2.746
 3562TIP3    H110622   2.968   2.839   2.719
 3562TIP3    H210623   2.940   2.987   2.734
 3563TIP3   OH210624   1.521   2.605   3.095
 3563TIP3    H110625   1.432   2.573   3.107
 3563TIP3    H210626   1.575   2.527   3.088
 3564TIP3   OH210627   1.344   2.523   2.760
 3564TIP3    H110628   1.368   2.575   2.683
 3564TIP3    H210629   1.307   2.587   2.821
 3565TIP3   OH210630   1.972   2.654   2.976
 3565TIP3    H110631   2.031   2.703   2.919
 3565TIP3    H210632   1.963   2.708   3.054
 3566TIP3   OH210633   2.522   2.825   3.035
 3566TIP3    H110634   2.480   2.810   2.950
 3566TIP3    H210635   2.519   2.739   3.078
 3567TIP3   OH210636   2.553   2.746   2.535
 3567TIP3    H110637   2.473   2.792   2.561
 3567TIP3    H210638   2.545   2.660   2.576
 3568TIP3   OH210639   1.011   4.107   2.519
 3568TIP3    H110640   0.932   4.082   2.473
 3568TIP3    H210641   0.987   4.186   2.567
 3569TIP3   OH210642   1.445   2.655   2.526
 3569TIP3    H110643   1.490   2.591   2.470
 3569TIP3    H210644   1.515   2.711   2.559
 3570TIP3   OH210645   1.935   2.838   2.610
 3570TIP3    H110646   1.992   2.789   2.670
 3570TIP3    H210647   1.951   2.930   2.633
 3571TIP3   OH210648   1.816   4.240   2.110
 3571TIP3    H110649   1.900   4.267   2.073
 3571TIP3    H210650   1.786   4.168   2.054
 3572TIP3   OH210651   2.518   4.383   2.208
 3572TIP3    H110652   2.512   4.287   2.198
 3572TIP3    H210653   2.477   4.417   2.129
 3573TIP3   OH210654   1.748   2.891   3.980
 3573TIP3    H110655   1.711   2.826   4.039
 3573TIP3    H210656   1.840   2.897   4.006
 3574TIP3   OH210657   1.995   2.895   4.103
 3574TIP3    H110658   2.078   2.874   4.059
 3574TIP3    H210659   1.986   2.828   4.171
 3575TIP3   OH210660   1.121   4.131   2.201
 3575TIP3    H110661   1.101   4.118   2.294
 3575TIP3    H210662   1.192   4.070   2.183
 3576TIP3   OH210663   2.814   2.984   3.898
 3576TIP3    H110664   2.835   2.957   3.987
 3576TIP3    H210665   2.898   2.982   3.851
 3577TIP3   OH210666   2.732   4.522   3.396
 3577TIP3    H110667   2.659   4.491   3.344
 3577TIP3    H210668   2.721   4.617   3.399
 3578TIP3   OH210669   4.013   3.903   2.135
 3578TIP3    H110670   3.979   3.990   2.115
 3578TIP3    H210671   3.942   3.844   2.111
 3579TIP3   OH210672   4.010   3.900   2.561
 3579TIP3    H110673   4.064   3.882   2.638
 3579TIP3    H210674   3.967   3.817   2.542
 3580TIP3   OH210675   3.309   3.753   2.910
 3580TIP3    H110676   3.347   3.702   2.981
 3580TIP3    H210677   3.384   3.782   2.858
 3581TIP3   OH210678   4.279   4.208   2.231
 3581TIP3    H110679   4.267   4.141   2.298
 3581TIP3    H210680   4.300   4.287   2.280
 3582TIP3   OH210681   3.299   4.185   2.591
 3582TIP3    H110682   3.282   4.091   2.598
 3582TIP3    H210683   3.394   4.191   2.582
 3583TIP3   OH210684   2.983   3.388   2.376
 3583TIP3    H110685   2.948   3.474   2.400
 3583TIP3    H210686   2.910   3.344   2.335
 3584TIP3   OH210687   3.067   3.707   2.597
 3584TIP3    H110688   3.117   3.630   2.622
 3584TIP3    H210689   3.133   3.773   2.576
 3585TIP3   OH210690   3.940   4.633   2.245
 3585TIP3    H110691   3.963   4.570   2.176
 3585TIP3    H210692   3.948   4.583   2.327
 3586TIP3   OH210693   3.817   4.121   2.566
 3586TIP3    H110694   3.862   4.042   2.537
 3586TIP3    H210695   3.887   4.180   2.595
 3587TIP3   OH210696   4.849   3.440   2.581
 3587TIP3    H110697   4.867   3.523   2.624
 3587TIP3    H210698   4.869   3.456   2.488
 3588TIP3   OH210699   4.222   3.609   2.599
 3588TIP3    H110700   4.257   3.524   2.627
 3588TIP3    H210701   4.187   3.592   2.511
 3589TIP3   OH210702   3.578   3.268   2.562
 3589TIP3    H110703   3.559   3.341   2.503
 3589TIP3    H210704   3.522   3.197   2.529
 3590TIP3   OH210705   4.277   3.369   2.193
 3590TIP3    H110706   4.340   3.363   2.265
 3590TIP3    H210707   4.328   3.403   2.119
 3591TIP3   OH210708   3.206   3.484   2.685
 3591TIP3    H110709   3.288   3.465   2.730
 3591TIP3    H210710   3.211   3.433   2.604
 3592TIP3   OH210711   3.624   3.683   2.506
 3592TIP3    H110712   3.718   3.669   2.512
 3592TIP3    H210713   3.590   3.601   2.471
 3593TIP3   OH210714   4.907   3.661   2.739
 3593TIP3    H110715   4.818   3.697   2.738
 3593TIP3    H210716   4.946   3.696   2.820
 3594TIP3   OH210717   3.562   3.269   3.013
 3594TIP3    H110718   3.508   3.307   2.944
 3594TIP3    H210719   3.510   3.283   3.093
 3595TIP3   OH210720   3.878   4.113   2.020
 3595TIP3    H110721   3.853   4.095   1.929
 3595TIP3    H210722   3.838   4.198   2.040
 3596TIP3   OH210723   3.658   4.044   2.779
 3596TIP3    H110724   3.604   4.116   2.812
 3596TIP3    H210725   3.707   4.082   2.706
 3597TIP3   OH210726   4.435   3.392   2.415
 3597TIP3    H110727   4.393   3.371   2.498
 3597TIP3    H210728   4.492   3.466   2.435
 3598TIP3   OH210729   3.447   3.376   2.783
 3598TIP3    H110730   3.502   3.451   2.806
 3598TIP3    H210731   3.495   3.333   2.712
 3599TIP3   OH210732   3.499   4.248   2.880
 3599TIP3    H110733   3.485   4.337   2.848
 3599TIP3    H210734   3.422   4.229   2.933
 3600TIP3   OH210735   2.875   3.951   2.136
 3600TIP3    H110736   2.845   3.969   2.047
 3600TIP3    H210737   2.899   4.036   2.171
 3601TIP3   OH210738   4.312   4.455   2.373
 3601TIP3    H110739   4.224   4.449   2.410
 3601TIP3    H210740   4.312   4.539   2.326
 3602TIP3   OH210741   4.652   3.330   2.750
 3602TIP3    H110742   4.567   3.354   2.713
 3602TIP3    H210743   4.715   3.357   2.683
 3603TIP3   OH210744   3.903   2.962   2.741
 3603TIP3    H110745   3.897   2.870   2.768
 3603TIP3    H210746   3.826   3.003   2.781
 3604TIP3   OH210747   4.022   4.484   2.024
 3604TIP3    H110748   4.073   4.404   2.014
 3604TIP3    H210749   4.081   4.554   1.998
 3605TIP3   OH210750   4.176   4.266   1.980
 3605TIP3    H110751   4.177   4.187   1.926
 3605TIP3    H210752   4.214   4.238   2.063
 3606TIP3   OH210753   4.546   4.346   2.715
 3606TIP3    H110754   4.531   4.270   2.659
 3606TIP3    H210755   4.533   4.422   2.657
 3607TIP3   OH210756   3.836   3.742   1.987
 3607TIP3    H110757   3.755   3.790   1.969
 3607TIP3    H210758   3.884   3.745   1.905
 3608TIP3   OH210759   3.809   3.549   1.678
 3608TIP3    H110760   3.873   3.598   1.730
 3608TIP3    H210761   3.861   3.483   1.632
 3609TIP3   OH210762   4.727   4.000   2.585
 3609TIP3    H110763   4.644   4.048   2.581
 3609TIP3    H210764   4.769   4.017   2.501
 3610TIP3   OH210765   4.199   3.837   1.946
 3610TIP3    H110766   4.144   3.863   2.020
 3610TIP3    H210767   4.281   3.810   1.986
 3611TIP3   OH210768   4.427   3.864   2.899
 3611TIP3    H110769   4.425   3.948   2.945
 3611TIP3    H210770   4.346   3.863   2.848
 3612TIP3   OH210771   3.425   3.815   2.355
 3612TIP3    H110772   3.391   3.755   2.289
 3612TIP3    H210773   3.499   3.769   2.394
 3613TIP3   OH210774   3.562   4.237   2.495
 3613TIP3    H110775   3.540   4.224   2.403
 3613TIP3    H210776   3.650   4.199   2.504
 3614TIP3   OH210777   3.521   3.811   2.730
 3614TIP3    H110778   3.560   3.775   2.650
 3614TIP3    H210779   3.571   3.891   2.747
 3615TIP3   OH210780   4.072   4.452   2.503
 3615TIP3    H110781   4.064   4.531   2.557
 3615TIP3    H210782   4.060   4.380   2.564
 3616TIP3   OH210783   3.697   4.350   3.047
 3616TIP3    H110784   3.636   4.406   3.095
 3616TIP3    H210785   3.642   4.297   2.990
 3617TIP3   OH210786   4.028   3.695   1.783
 3617TIP3    H110787   4.088   3.753   1.831
 3617TIP3    H210788   4.058   3.700   1.692
 3618TIP3   OH210789   3.458   3.914   3.176
 3618TIP3    H110790   3.456   4.006   3.203
 3618TIP3    H210791   3.366   3.889   3.171
 3619TIP3   OH210792   3.770   4.371   2.038
 3619TIP3    H110793   3.856   4.413   2.040
 3619TIP3    H210794   3.716   4.430   1.985
 3620TIP3   OH210795   3.484   4.508   3.132
 3620TIP3    H110796   3.463   4.516   3.039
 3620TIP3    H210797   3.400   4.493   3.175
 3621TIP3   OH210798   4.534   2.928   1.830
 3621TIP3    H110799   4.458   2.949   1.884
 3621TIP3    H210800   4.546   3.005   1.774
 3622TIP3   OH210801   3.302   3.657   2.152
 3622TIP3    H110802   3.225   3.705   2.122
 3622TIP3    H210803   3.270   3.569   2.169
 3623TIP3   OH210804   4.365   4.298   1.392
 3623TIP3    H110805   4.359   4.391   1.369
 3623TIP3    H210806   4.455   4.273   1.370
 3624TIP3   OH210807   3.081   4.065   3.083
 3624TIP3    H110808   3.013   4.042   3.019
 3624TIP3    H210809   3.115   3.980   3.111
 3625TIP3   OH210810   2.930   4.253   2.731
 3625TIP3    H110811   3.024   4.270   2.741
 3625TIP3    H210812   2.888   4.331   2.767
 3626TIP3   OH210813   4.778   4.698   2.786
 3626TIP3    H110814   4.782   4.604   2.800
 3626TIP3    H210815   4.699   4.725   2.834
 3627TIP3   OH210816   3.888   4.493   2.910
 3627TIP3    H110817   3.878   4.583   2.940
 3627TIP3    H210818   3.821   4.445   2.959
 3628TIP3   OH210819   3.666   4.587   1.863
 3628TIP3    H110820   3.623   4.566   1.780
 3628TIP3    H210821   3.627   4.671   1.889
 3629TIP3   OH210822   3.100   4.446   2.244
 3629TIP3    H110823   3.146   4.437   2.328
 3629TIP3    H210824   3.053   4.363   2.234
 3630TIP3   OH210825   3.868   4.522   1.490
 3630TIP3    H110826   3.918   4.449   1.455
 3630TIP3    H210827   3.903   4.536   1.578
 3631TIP3   OH210828   3.921   4.566   1.761
 3631TIP3    H110829   3.834   4.569   1.801
 3631TIP3    H210830   3.978   4.527   1.827
 3632TIP3   OH210831   4.670   3.813   3.050
 3632TIP3    H110832   4.585   3.824   3.008
 3632TIP3    H210833   4.689   3.719   3.041
 3633TIP3   OH210834   3.281   4.251   3.051
 3633TIP3    H110835   3.332   4.238   3.131
 3633TIP3    H210836   3.209   4.188   3.058
 3634TIP3   OH210837   3.664   3.054   2.867
 3634TIP3    H110838   3.579   3.023   2.835
 3634TIP3    H210839   3.644   3.134   2.914
 3635TIP3   OH210840   4.212   3.176   3.066
 3635TIP3    H110841   4.282   3.152   3.126
 3635TIP3    H210842   4.131   3.160   3.114
 3636TIP3   OH210843   4.427   3.597   2.980
 3636TIP3    H110844   4.388   3.592   3.067
 3636TIP3    H210845   4.414   3.688   2.953
 3637TIP3   OH210846   4.113   3.681   1.524
 3637TIP3    H110847   4.066   3.683   1.441
 3637TIP3    H210848   4.196   3.726   1.505
 3638TIP3   OH210849   3.813   3.100   1.836
 3638TIP3    H110850   3.779   3.106   1.925
 3638TIP3    H210851   3.780   3.017   1.802
 3639TIP3   OH210852   3.602   3.586   2.871
 3639TIP3    H110853   3.562   3.594   2.958
 3639TIP3    H210854   3.580   3.668   2.827
 3640TIP3   OH210855   3.486   3.467   2.396
 3640TIP3    H110856   3.396   3.443   2.421
 3640TIP3    H210857   3.495   3.434   2.307
 3641TIP3   OH210858   3.962   3.539   2.122
 3641TIP3    H110859   3.915   3.611   2.082
 3641TIP3    H210860   4.022   3.508   2.054
 3642TIP3   OH210861   4.154   3.810   3.197
 3642TIP3    H110862   4.125   3.742   3.259
 3642TIP3    H210863   4.246   3.823   3.218
 3643TIP3   OH210864   4.131   3.555   2.346
 3643TIP3    H110865   4.063   3.576   2.282
 3643TIP3    H210866   4.179   3.482   2.307
 3644TIP3   OH210867   3.441   3.589   3.098
 3644TIP3    H110868   3.497   3.641   3.156
 3644TIP3    H210869   3.422   3.510   3.148
 3645TIP3   OH210870   3.480   3.075   1.810
 3645TIP3    H110871   3.474   3.081   1.905
 3645TIP3    H210872   3.404   3.123   1.778
 3646TIP3   OH210873   3.034   3.125   2.681
 3646TIP3    H110874   3.099   3.162   2.741
 3646TIP3    H210875   3.079   3.122   2.596
 3647TIP3   OH210876   2.932   3.099   2.177
 3647TIP3    H110877   2.977   3.135   2.100
 3647TIP3    H210878   2.871   3.167   2.203
 3648TIP3   OH210879   4.174   3.810   2.774
 3648TIP3    H110880   4.199   3.743   2.710
 3648TIP3    H210881   4.133   3.760   2.845
 3649TIP3   OH210882   3.846   3.255   2.446
 3649TIP3    H110883   3.770   3.256   2.504
 3649TIP3    H210884   3.921   3.246   2.505
 3650TIP3   OH210885   3.245   3.342   2.454
 3650TIP3    H110886   3.157   3.345   2.416
 3650TIP3    H210887   3.276   3.253   2.438
 3651TIP3   OH210888   3.496   3.343   2.150
 3651TIP3    H110889   3.591   3.354   2.142
 3651TIP3    H210890   3.462   3.361   2.063
 3652TIP3   OH210891   4.294   3.344   2.652
 3652TIP3    H110892   4.276   3.361   2.745
 3652TIP3    H210893   4.226   3.283   2.625
 3653TIP3   OH210894   3.386   3.366   1.900
 3653TIP3    H110895   3.322   3.319   1.847
 3653TIP3    H210896   3.440   3.414   1.837
 3654TIP3   OH210897   4.494   5.050   2.877
 3654TIP3    H110898   4.492   5.063   2.783
 3654TIP3    H210899   4.574   5.095   2.906
 3655TIP3   OH210900   3.432   4.172   3.284
 3655TIP3    H110901   3.514   4.188   3.331
 3655TIP3    H210902   3.365   4.175   3.352
 3656TIP3   OH210903   3.897   3.630   2.554
 3656TIP3    H110904   3.965   3.582   2.506
 3656TIP3    H210905   3.896   3.589   2.641
 3657TIP3   OH210906   3.386   3.094   2.442
 3657TIP3    H110907   3.359   3.018   2.493
 3657TIP3    H210908   3.416   3.058   2.359
 3658TIP3   OH210909   3.871   3.533   2.818
 3658TIP3    H110910   3.784   3.563   2.843
 3658TIP3    H210911   3.930   3.583   2.874
 3659TIP3   OH210912   3.600   3.881   1.930
 3659TIP3    H110913   3.524   3.828   1.906
 3659TIP3    H210914   3.575   3.923   2.013
 3660TIP3   OH210915   4.493   4.141   2.538
 3660TIP3    H110916   4.530   4.189   2.464
 3660TIP3    H210917   4.414   4.099   2.503
 3661TIP3   OH210918   4.067   3.201   1.835
 3661TIP3    H110919   3.974   3.182   1.833
 3661TIP3    H210920   4.072   3.296   1.849
 3662TIP3   OH210921   4.016   4.222   2.950
 3662TIP3    H110922   4.069   4.207   3.028
 3662TIP3    H210923   3.978   4.309   2.962
 3663TIP3   OH210924   4.129   3.464   1.907
 3663TIP3    H110925   4.224   3.468   1.918
 3663TIP3    H210926   4.107   3.542   1.857
 3664TIP3   OH210927   3.289   3.893   2.583
 3664TIP3    H110928   3.328   3.877   2.497
 3664TIP3    H210929   3.356   3.866   2.646
 3665TIP3   OH210930   3.755   4.043   1.774
 3665TIP3    H110931   3.707   4.126   1.771
 3665TIP3    H210932   3.700   3.985   1.827
 3666TIP3   OH210933   3.187   3.851   3.225
 3666TIP3    H110934   3.217   3.847   3.316
 3666TIP3    H210935   3.123   3.780   3.218
 3667TIP3   OH210936   3.928   3.973   3.226
 3667TIP3    H110937   3.865   3.924   3.174
 3667TIP3    H210938   4.012   3.931   3.207
 3668TIP3   OH210939   4.158   4.514   2.833
 3668TIP3    H110940   4.064   4.498   2.838
 3668TIP3    H210941   4.181   4.549   2.919
 3669TIP3   OH210942   4.544   3.553   1.724
 3669TIP3    H110943   4.488   3.508   1.662
 3669TIP3    H210944   4.550   3.643   1.690
 3670TIP3   OH210945   4.793   4.418   2.808
 3670TIP3    H110946   4.699   4.404   2.799
 3670TIP3    H210947   4.830   4.390   2.724
 3671TIP3   OH210948   4.286   4.368   1.654
 3671TIP3    H110949   4.256   4.295   1.707
 3671TIP3    H210950   4.306   4.329   1.569
 3672TIP3   OH210951   4.264   4.005   2.434
 3672TIP3    H110952   4.175   3.983   2.459
 3672TIP3    H210953   4.300   3.924   2.397
 3673TIP3   OH210954   3.424   4.242   2.249
 3673TIP3    H110955   3.424   4.318   2.190
 3673TIP3    H210956   3.332   4.230   2.272
 3674TIP3   OH210957   2.980   3.525   1.958
 3674TIP3    H110958   3.024   3.607   1.980
 3674TIP3    H210959   2.900   3.527   2.011
 3675TIP3   OH210960   3.501   3.994   2.154
 3675TIP3    H110961   3.490   4.084   2.184
 3675TIP3    H210962   3.477   3.941   2.230
 3676TIP3   OH210963   3.703   4.563   2.704
 3676TIP3    H110964   3.739   4.636   2.653
 3676TIP3    H210965   3.777   4.529   2.754
 3677TIP3   OH210966   3.335   4.465   2.098
 3677TIP3    H110967   3.248   4.471   2.138
 3677TIP3    H210968   3.370   4.554   2.103
 3678TIP3   OH210969   4.052   4.229   2.675
 3678TIP3    H110970   4.040   4.223   2.770
 3678TIP3    H210971   4.128   4.173   2.657
 3679TIP3   OH210972   4.056   4.107   1.550
 3679TIP3    H110973   4.095   4.089   1.636
 3679TIP3    H210974   3.971   4.062   1.552
 3680TIP3   OH210975   4.312   4.724   2.718
 3680TIP3    H110976   4.243   4.661   2.736
 3680TIP3    H210977   4.277   4.778   2.647
 3681TIP3   OH210978   4.358   4.570   1.347
 3681TIP3    H110979   4.367   4.624   1.268
 3681TIP3    H210980   4.291   4.615   1.398
 3682TIP3   OH210981   3.397   3.338   3.230
 3682TIP3    H110982   3.303   3.348   3.245
 3682TIP3    H210983   3.428   3.287   3.304
 3683TIP3   OH210984   4.220   4.055   1.775
 3683TIP3    H110985   4.203   3.980   1.832
 3683TIP3    H210986   4.313   4.050   1.755
 3684TIP3   OH210987   3.130   4.458   2.866
 3684TIP3    H110988   3.181   4.397   2.919
 3684TIP3    H210989   3.147   4.544   2.905
 3685TIP3   OH210990   3.395   4.074   1.562
 3685TIP3    H110991   3.407   3.984   1.534
 3685TIP3    H210992   3.382   4.068   1.657
 3686TIP3   OH210993   3.340   4.087   1.836
 3686TIP3    H110994   3.410   4.062   1.896
 3686TIP3    H210995   3.339   4.183   1.838
 3687TIP3   OH210996   3.074   3.775   2.042
 3687TIP3    H110997   3.010   3.824   2.094
 3687TIP3    H210998   3.095   3.834   1.970
 3688TIP3   OH210999   4.238   3.405   2.914
 3688TIP3    H111000   4.314   3.453   2.946
 3688TIP3    H211001   4.230   3.329   2.972
 3689TIP3   OH211002   4.126   3.152   2.104
 3689TIP3    H111003   4.107   3.171   2.013
 3689TIP3    H211004   4.171   3.231   2.136
 3690TIP3   OH211005   3.609   4.271   1.769
 3690TIP3    H111006   3.525   4.297   1.806
 3690TIP3    H211007   3.632   4.342   1.709
 3691TIP3   OH211008   3.775   3.350   2.195
 3691TIP3    H111009   3.837   3.418   2.168
 3691TIP3    H211010   3.799   3.329   2.285
 3692TIP3   OH211011   4.076   3.645   2.973
 3692TIP3    H111012   4.102   3.688   3.055
 3692TIP3    H211013   4.126   3.563   2.974
 3693TIP3   OH211014   3.942   3.045   2.281
 3693TIP3    H111015   3.920   3.122   2.334
 3693TIP3    H211016   4.012   3.076   2.223
 3694TIP3   OH211017   3.359   4.361   1.846
 3694TIP3    H111018   3.341   4.432   1.785
 3694TIP3    H211019   3.350   4.399   1.933
 3695TIP3   OH211020   3.454   3.070   2.090
 3695TIP3    H111021   3.443   3.161   2.118
 3695TIP3    H211022   3.549   3.054   2.096
 3696TIP3   OH211023   4.692   3.541   2.956
 3696TIP3    H111024   4.598   3.550   2.969
 3696TIP3    H211025   4.701   3.480   2.883
 3697TIP3   OH211026   4.357   3.747   2.347
 3697TIP3    H111027   4.280   3.690   2.359
 3697TIP3    H211028   4.425   3.708   2.402
 3698TIP3   OH211029   3.097   3.953   1.826
 3698TIP3    H111030   3.169   4.016   1.836
 3698TIP3    H211031   3.128   3.891   1.761
 3699TIP3   OH211032   3.002   3.247   1.957
 3699TIP3    H111033   3.017   3.341   1.967
 3699TIP3    H211034   2.954   3.239   1.874
 3700TIP3   OH211035   4.338   4.724   2.292
 3700TIP3    H111036   4.297   4.776   2.224
 3700TIP3    H211037   4.432   4.733   2.277
 3701TIP3   OH211038   3.399   2.972   2.826
 3701TIP3    H111039   3.371   2.939   2.741
 3701TIP3    H211040   3.394   2.895   2.884
 3702TIP3   OH211041   2.925   4.221   2.220
 3702TIP3    H111042   2.885   4.258   2.298
 3702TIP3    H211043   2.882   4.265   2.147
 3703TIP3   OH211044   3.134   4.761   3.295
 3703TIP3    H111045   3.215   4.769   3.345
 3703TIP3    H211046   3.127   4.667   3.275
 3704TIP3   OH211047   3.594   4.670   3.325
 3704TIP3    H111048   3.684   4.639   3.336
 3704TIP3    H211049   3.559   4.617   3.254
 3705TIP3   OH211050   3.551   4.273   1.448
 3705TIP3    H111051   3.503   4.201   1.491
 3705TIP3    H211052   3.624   4.230   1.404
 3706TIP3   OH211053   4.212   4.612   3.084
 3706TIP3    H111054   4.225   4.540   3.146
 3706TIP3    H211055   4.287   4.670   3.098
 3707TIP3   OH211056   3.998   4.312   1.374
 3707TIP3    H111057   4.035   4.247   1.435
 3707TIP3    H211058   4.054   4.304   1.296
 3708TIP3   OH211059   3.229   4.163   3.476
 3708TIP3    H111060   3.252   4.071   3.485
 3708TIP3    H211061   3.142   4.163   3.436
 3709TIP3   OH211062   3.216   3.763   1.671
 3709TIP3    H111063   3.268   3.738   1.748
 3709TIP3    H211064   3.281   3.778   1.603
 3710TIP3   OH211065   3.853   4.246   3.251
 3710TIP3    H111066   3.809   4.264   3.168
 3710TIP3    H211067   3.892   4.159   3.239
 3711TIP3   OH211068   3.807   3.984   1.512
 3711TIP3    H111069   3.779   3.997   1.602
 3711TIP3    H211070   3.783   3.894   1.492
 3712TIP3   OH211071   4.329   4.288   2.875
 3712TIP3    H111072   4.406   4.313   2.823
 3712TIP3    H211073   4.264   4.356   2.855
 3713TIP3   OH211074   3.342   3.904   3.467
 3713TIP3    H111075   3.422   3.876   3.423
 3713TIP3    H211076   3.368   3.920   3.558
 3714TIP3   OH211077   3.391   3.704   1.882
 3714TIP3    H111078   3.375   3.673   1.971
 3714TIP3    H211079   3.441   3.634   1.841
 3715TIP3   OH211080   3.678   3.759   3.123
 3715TIP3    H111081   3.608   3.822   3.142
 3715TIP3    H211082   3.728   3.800   3.052
 3716TIP3   OH211083   3.535   3.520   1.728
 3716TIP3    H111084   3.506   3.524   1.637
 3716TIP3    H211085   3.630   3.528   1.724
 3717TIP3   OH211086   4.210   4.161   3.221
 3717TIP3    H111087   4.282   4.124   3.169
 3717TIP3    H211088   4.207   4.107   3.300
 3718TIP3   OH211089   4.332   3.808   1.409
 3718TIP3    H111090   4.318   3.767   1.324
 3718TIP3    H211091   4.309   3.900   1.396
 3719TIP3   OH211092   3.810   3.554   3.249
 3719TIP3    H111093   3.818   3.481   3.188
 3719TIP3    H211094   3.769   3.624   3.198
 3720TIP3   OH211095   3.822   3.355   3.046
 3720TIP3    H111096   3.849   3.392   2.962
 3720TIP3    H211097   3.731   3.328   3.032
 3721TIP3   OH211098   3.827   3.892   2.939
 3721TIP3    H111099   3.916   3.914   2.913
 3721TIP3    H211100   3.772   3.948   2.884
 3722TIP3   OH211101   4.421   3.841   3.298
 3722TIP3    H111102   4.464   3.756   3.307
 3722TIP3    H211103   4.493   3.904   3.294
 3723TIP3   OH211104   4.452   4.111   3.042
 3723TIP3    H111105   4.401   4.173   2.990
 3723TIP3    H211106   4.542   4.125   3.013
 3724TIP3   OH211107   3.695   3.643   3.490
 3724TIP3    H111108   3.633   3.575   3.515
 3724TIP3    H211109   3.728   3.615   3.405
 3725TIP3   OH211110   3.945   3.121   3.139
 3725TIP3    H111111   3.903   3.203   3.111
 3725TIP3    H211112   3.876   3.055   3.131
 3726TIP3   OH211113   4.067   3.599   3.350
 3726TIP3    H111114   4.064   3.585   3.445
 3726TIP3    H211115   3.979   3.577   3.320
 3727TIP3   OH211116   4.311   3.548   3.218
 3727TIP3    H111117   4.234   3.550   3.275
 3727TIP3    H211118   4.383   3.524   3.276
 3728TIP3   OH211119   4.553   3.512   3.358
 3728TIP3    H111120   4.568   3.417   3.364
 3728TIP3    H211121   4.545   3.541   3.448
 3729TIP3   OH211122   3.543   3.416   3.563
 3729TIP3    H111123   3.548   3.327   3.529
 3729TIP3    H211124   3.565   3.408   3.656
 3730TIP3   OH211125   4.023   3.099   3.400
 3730TIP3    H111126   4.092   3.033   3.394
 3730TIP3    H211127   3.992   3.109   3.310
 3731TIP3   OH211128   4.101   3.311   3.557
 3731TIP3    H111129   4.072   3.239   3.502
 3731TIP3    H211130   4.026   3.371   3.560
 3732TIP3   OH211131   3.360   4.572   1.665
 3732TIP3    H111132   3.448   4.549   1.637
 3732TIP3    H211133   3.321   4.615   1.589
 3733TIP3   OH211134   2.824   3.949   1.848
 3733TIP3    H111135   2.918   3.962   1.841
 3733TIP3    H211136   2.809   3.863   1.808
 3734TIP3   OH211137   2.727   4.534   2.303
 3734TIP3    H111138   2.662   4.480   2.258
 3734TIP3    H211139   2.772   4.472   2.362
 3735TIP3   OH211140   2.871   4.365   2.470
 3735TIP3    H111141   2.864   4.297   2.537
 3735TIP3    H211142   2.924   4.434   2.511
 3736TIP3   OH211143   4.611   4.770   2.279
 3736TIP3    H111144   4.634   4.798   2.368
 3736TIP3    H211145   4.671   4.818   2.222
 3737TIP3   OH211146   4.634   4.800   2.562
 3737TIP3    H111147   4.583   4.719   2.553
 3737TIP3    H211148   4.700   4.780   2.627
 3738TIP3   OH211149   4.674   4.507   3.134
 3738TIP3    H111150   4.607   4.514   3.201
 3738TIP3    H211151   4.723   4.589   3.139
 3739TIP3   OH211152   4.496   4.020   1.743
 3739TIP3    H111153   4.555   4.090   1.711
 3739TIP3    H211154   4.543   3.981   1.816
 3740TIP3   OH211155   4.629   3.877   1.942
 3740TIP3    H111156   4.562   3.839   1.998
 3740TIP3    H211157   4.694   3.913   2.002
 3741TIP3   OH211158   4.673   4.276   2.374
 3741TIP3    H111159   4.727   4.206   2.337
 3741TIP3    H211160   4.678   4.347   2.310
 3742TIP3   OH211161   4.484   4.567   2.562
 3742TIP3    H111162   4.417   4.611   2.615
 3742TIP3    H211163   4.435   4.525   2.492
 3743TIP3   OH211164   4.539   3.794   1.589
 3743TIP3    H111165   4.469   3.793   1.524
 3743TIP3    H211166   4.522   3.872   1.642
 3744TIP3   OH211167   4.393   3.441   1.526
 3744TIP3    H111168   4.344   3.478   1.452
 3744TIP3    H211169   4.385   3.346   1.514
 3745TIP3   OH211170   4.425   3.738   2.078
 3745TIP3    H111171   4.431   3.643   2.064
 3745TIP3    H211172   4.407   3.748   2.171
 3746TIP3   OH211173   3.048   3.805   2.854
 3746TIP3    H111174   3.039   3.771   2.765
 3746TIP3    H211175   3.141   3.796   2.874
 3747TIP3   OH211176   4.714   4.157   2.953
 3747TIP3    H111177   4.775   4.086   2.932
 3747TIP3    H211178   4.734   4.225   2.890
 3748TIP3   OH211179   4.875   3.935   2.917
 3748TIP3    H111180   4.803   3.893   2.964
 3748TIP3    H211181   4.952   3.884   2.942
 3749TIP3   OH211182   4.353   3.169   1.492
 3749TIP3    H111183   4.418   3.146   1.558
 3749TIP3    H211184   4.271   3.131   1.525
 3750TIP3   OH211185   4.418   3.460   1.963
 3750TIP3    H111186   4.464   3.377   1.975
 3750TIP3    H211187   4.461   3.500   1.887
 3751TIP3   OH211188   4.571   3.625   2.487
 3751TIP3    H111189   4.652   3.641   2.439
 3751TIP3    H211190   4.585   3.665   2.573
 3752TIP3   OH211191   4.644   3.772   2.715
 3752TIP3    H111192   4.575   3.802   2.773
 3752TIP3    H211193   4.678   3.852   2.674
 3753TIP3   OH211194   3.292   3.519   3.512
 3753TIP3    H111195   3.384   3.496   3.522
 3753TIP3    H211196   3.245   3.439   3.535
 3754TIP3   OH211197   5.115   3.367   3.259
 3754TIP3    H111198   5.177   3.312   3.212
 3754TIP3    H211199   5.077   3.423   3.192
 3755TIP3   OH211200   4.535   3.212   2.012
 3755TIP3    H111201   4.581   3.197   2.094
 3755TIP3    H211202   4.472   3.140   2.006
 3756TIP3   OH211203   3.237   3.196   2.858
 3756TIP3    H111204   3.291   3.117   2.859
 3756TIP3    H211205   3.298   3.267   2.838
 3757TIP3   OH211206   3.020   3.465   2.895
 3757TIP3    H111207   3.075   3.460   2.817
 3757TIP3    H211208   3.059   3.536   2.946
 3758TIP3   OH211209   4.963   3.500   3.075
 3758TIP3    H111210   4.896   3.541   3.129
 3758TIP3    H211211   4.913   3.442   3.016
 3759TIP3   OH211212   4.578   3.130   1.650
 3759TIP3    H111213   4.625   3.068   1.596
 3759TIP3    H211214   4.636   3.206   1.655
 3760TIP3   OH211215   3.005   2.954   2.398
 3760TIP3    H111216   2.921   2.950   2.444
 3760TIP3    H211217   2.989   3.014   2.324
 3761TIP3   OH211218   4.169   4.688   1.925
 3761TIP3    H111219   4.222   4.673   1.847
 3761TIP3    H211220   4.214   4.757   1.972
 3762TIP3   OH211221   3.228   3.012   3.232
 3762TIP3    H111222   3.190   3.025   3.319
 3762TIP3    H211223   3.173   3.064   3.174
 3763TIP3   OH211224   3.253   4.487   3.292
 3763TIP3    H111225   3.161   4.459   3.287
 3763TIP3    H211226   3.280   4.464   3.381
 3764TIP3   OH211227   3.474   4.525   2.851
 3764TIP3    H111228   3.424   4.600   2.819
 3764TIP3    H211229   3.559   4.533   2.808
 3765TIP3   OH211230   3.872   4.759   2.991
 3765TIP3    H111231   3.910   4.750   3.078
 3765TIP3    H211232   3.935   4.812   2.942
 3766TIP3   OH211233   4.063   4.912   2.863
 3766TIP3    H111234   4.123   4.857   2.813
 3766TIP3    H211235   4.120   4.967   2.916
 3767TIP3   OH211236   4.866   3.250   2.952
 3767TIP3    H111237   4.781   3.247   2.907
 3767TIP3    H211238   4.901   3.161   2.945
 3768TIP3   OH211239   3.137   4.764   2.900
 3768TIP3    H111240   3.046   4.784   2.875
 3768TIP3    H211241   3.159   4.831   2.965
 3769TIP3   OH211242   3.367   4.758   2.750
 3769TIP3    H111243   3.284   4.762   2.797
 3769TIP3    H211244   3.344   4.782   2.660
 3770TIP3   OH211245   3.780   4.774   2.541
 3770TIP3    H111246   3.709   4.784   2.478
 3770TIP3    H211247   3.789   4.861   2.581
 3771TIP3   OH211248   4.046   4.716   2.593
 3771TIP3    H111249   3.954   4.732   2.571
 3771TIP3    H211250   4.094   4.782   2.542
 3772TIP3   OH211251   4.251   4.890   2.494
 3772TIP3    H111252   4.246   4.975   2.452
 3772TIP3    H211253   4.280   4.830   2.425
 3773TIP3   OH211254   3.045   4.544   2.615
 3773TIP3    H111255   3.070   4.520   2.705
 3773TIP3    H211256   3.117   4.511   2.561
 3774TIP3   OH211257   3.249   4.428   2.477
 3774TIP3    H111258   3.260   4.343   2.519
 3774TIP3    H211259   3.335   4.469   2.480
 3775TIP3   OH211260   3.516   4.515   2.501
 3775TIP3    H111261   3.535   4.423   2.485
 3775TIP3    H211262   3.571   4.539   2.576
 3776TIP3   OH211263   4.072   3.162   2.584
 3776TIP3    H111264   4.034   3.092   2.637
 3776TIP3    H211265   4.141   3.119   2.533
 3777TIP3   OH211266   4.577   3.068   2.461
 3777TIP3    H111267   4.616   3.118   2.389
 3777TIP3    H211268   4.488   3.104   2.469
 3778TIP3   OH211269   4.692   3.161   2.232
 3778TIP3    H111270   4.759   3.098   2.205
 3778TIP3    H211271   4.733   3.246   2.220
 3779TIP3   OH211272   3.314   2.866   2.584
 3779TIP3    H111273   3.226   2.831   2.593
 3779TIP3    H211274   3.370   2.788   2.578
 3780TIP3   OH211275   3.135   2.765   2.234
 3780TIP3    H111276   3.164   2.816   2.158
 3780TIP3    H211277   3.098   2.830   2.293
 3781TIP3   OH211278   3.794   2.906   2.481
 3781TIP3    H111279   3.844   2.951   2.412
 3781TIP3    H211280   3.836   2.933   2.563
 3782TIP3   OH211281   4.284   3.039   2.457
 3782TIP3    H111282   4.307   3.004   2.371
 3782TIP3    H211283   4.295   2.965   2.517
 3783TIP3   OH211284   4.347   3.004   2.018
 3783TIP3    H111285   4.268   3.051   2.045
 3783TIP3    H211286   4.337   2.916   2.054
 3784TIP3   OH211287   2.806   4.346   2.006
 3784TIP3    H111288   2.724   4.312   1.972
 3784TIP3    H211289   2.812   4.435   1.972
 3785TIP3   OH211290   3.245   2.902   2.000
 3785TIP3    H111291   3.293   2.844   1.941
 3785TIP3    H211292   3.313   2.959   2.037
 3786TIP3   OH211293   3.730   3.097   2.100
 3786TIP3    H111294   3.791   3.046   2.153
 3786TIP3    H211295   3.744   3.188   2.127
 3787TIP3   OH211296   3.614   4.494   1.594
 3787TIP3    H111297   3.697   4.521   1.555
 3787TIP3    H211298   3.582   4.424   1.536
 3788TIP3   OH211299   4.317   4.636   1.696
 3788TIP3    H111300   4.312   4.541   1.687
 3788TIP3    H211301   4.275   4.670   1.617
 3789TIP3   OH211302   3.518   3.150   3.450
 3789TIP3    H111303   3.479   3.089   3.513
 3789TIP3    H211304   3.612   3.143   3.465
 3790TIP3   OH211305   3.774   3.106   3.523
 3790TIP3    H111306   3.863   3.105   3.488
 3790TIP3    H211307   3.780   3.062   3.608
 3791TIP3   OH211308   2.926   4.343   1.653
 3791TIP3    H111309   2.931   4.354   1.748
 3791TIP3    H211310   3.006   4.295   1.630
 3792TIP3   OH211311   4.617   3.242   3.376
 3792TIP3    H111312   4.633   3.216   3.466
 3792TIP3    H211313   4.703   3.238   3.334
 3793TIP3   OH211314   4.531   4.775   2.886
 3793TIP3    H111315   4.457   4.745   2.832
 3793TIP3    H211316   4.518   4.870   2.893
 3794TIP3   OH211317   5.812   4.160   1.624
 3794TIP3    H111318   5.781   4.247   1.600
 3794TIP3    H211319   5.739   4.102   1.601
 3795TIP3   OH211320   5.812   4.156   2.044
 3795TIP3    H111321   5.862   4.139   2.124
 3795TIP3    H211322   5.764   4.075   2.028
 3796TIP3   OH211323   5.104   4.022   2.395
 3796TIP3    H111324   5.140   3.967   2.465
 3796TIP3    H211325   5.181   4.056   2.350
 3797TIP3   OH211326   6.077   4.465   1.719
 3797TIP3    H111327   6.063   4.399   1.787
 3797TIP3    H211328   6.097   4.545   1.767
 3798TIP3   OH211329   5.096   4.445   2.081
 3798TIP3    H111330   5.079   4.351   2.088
 3798TIP3    H211331   5.191   4.452   2.071
 3799TIP3   OH211332   4.782   3.652   1.860
 3799TIP3    H111333   4.743   3.735   1.885
 3799TIP3    H211334   4.710   3.602   1.822
 3800TIP3   OH211335   4.860   3.960   2.084
 3800TIP3    H111336   4.909   3.882   2.111
 3800TIP3    H211337   4.926   4.024   2.059
 3801TIP3   OH211338   5.730   4.902   1.732
 3801TIP3    H111339   5.760   4.837   1.669
 3801TIP3    H211340   5.731   4.856   1.816
 3802TIP3   OH211341   5.614   4.381   2.048
 3802TIP3    H111342   5.657   4.302   2.017
 3802TIP3    H211343   5.684   4.436   2.081
 3803TIP3   OH211344   6.649   3.702   2.069
 3803TIP3    H111345   6.664   3.785   2.115
 3803TIP3    H211346   6.674   3.720   1.978
 3804TIP3   OH211347   6.023   3.863   2.086
 3804TIP3    H111348   6.055   3.777   2.114
 3804TIP3    H211349   5.985   3.848   2.000
 3805TIP3   OH211350   5.378   3.523   2.043
 3805TIP3    H111351   5.355   3.596   1.986
 3805TIP3    H211352   5.321   3.451   2.015
 3806TIP3   OH211353   6.076   3.625   1.684
 3806TIP3    H111354   6.140   3.618   1.754
 3806TIP3    H211355   6.124   3.661   1.610
 3807TIP3   OH211356   5.000   3.739   2.176
 3807TIP3    H111357   5.083   3.721   2.220
 3807TIP3    H211358   5.004   3.687   2.096
 3808TIP3   OH211359   5.422   3.940   1.985
 3808TIP3    H111360   5.516   3.924   1.993
 3808TIP3    H211361   5.387   3.857   1.952
 3809TIP3   OH211362   6.701   3.920   2.235
 3809TIP3    H111363   6.613   3.957   2.227
 3809TIP3    H211364   6.736   3.957   2.316
 3810TIP3   OH211365   5.358   3.526   2.496
 3810TIP3    H111366   5.306   3.562   2.424
 3810TIP3    H211367   5.303   3.541   2.573
 3811TIP3   OH211368   5.697   4.373   1.494
 3811TIP3    H111369   5.660   4.353   1.408
 3811TIP3    H211370   5.649   4.452   1.522
 3812TIP3   OH211371   5.453   4.305   2.261
 3812TIP3    H111372   5.399   4.375   2.297
 3812TIP3    H211373   5.500   4.345   2.188
 3813TIP3   OH211374   6.241   3.641   1.902
 3813TIP3    H111375   6.194   3.620   1.982
 3813TIP3    H211376   6.292   3.719   1.923
 3814TIP3   OH211377   5.249   3.634   2.265
 3814TIP3    H111378   5.303   3.709   2.288
 3814TIP3    H211379   5.296   3.592   2.193
 3815TIP3   OH211380   5.295   4.506   2.368
 3815TIP3    H111381   5.279   4.595   2.338
 3815TIP3    H211382   5.218   4.484   2.421
 3816TIP3   OH211383   4.670   4.207   1.622
 3816TIP3    H111384   4.636   4.224   1.534
 3816TIP3    H211385   4.693   4.294   1.656
 3817TIP3   OH211386   6.111   4.710   1.859
 3817TIP3    H111387   6.024   4.704   1.899
 3817TIP3    H211388   6.110   4.794   1.814
 3818TIP3   OH211389   6.448   3.583   2.232
 3818TIP3    H111390   6.361   3.605   2.199
 3818TIP3    H211391   6.508   3.614   2.165
 3819TIP3   OH211392   5.700   3.221   2.229
 3819TIP3    H111393   5.691   3.129   2.254
 3819TIP3    H211394   5.623   3.264   2.267
 3820TIP3   OH211395   5.823   4.732   1.533
 3820TIP3    H111396   5.874   4.652   1.518
 3820TIP3    H211397   5.884   4.803   1.511
 3821TIP3   OH211398   5.977   4.515   1.467
 3821TIP3    H111399   5.942   4.432   1.436
 3821TIP3    H211400   6.019   4.494   1.551
 3822TIP3   OH211401   6.347   4.602   2.202
 3822TIP3    H111402   6.329   4.526   2.146
 3822TIP3    H211403   6.332   4.677   2.146
 3823TIP3   OH211404   5.633   3.999   1.480
 3823TIP3    H111405   5.553   4.047   1.460
 3823TIP3    H211406   5.681   3.997   1.397
 3824TIP3   OH211407   5.601   3.810   1.163
 3824TIP3    H111408   5.666   3.858   1.214
 3824TIP3    H211409   5.652   3.742   1.118
 3825TIP3   OH211410   6.526   4.255   2.067
 3825TIP3    H111411   6.442   4.302   2.069
 3825TIP3    H211412   6.561   4.272   1.980
 3826TIP3   OH211413   5.996   4.078   1.441
 3826TIP3    H111414   5.941   4.108   1.514
 3826TIP3    H211415   6.080   4.057   1.482
 3827TIP3   OH211416   6.225   4.117   2.377
 3827TIP3    H111417   6.223   4.202   2.421
 3827TIP3    H211418   6.143   4.114   2.329
 3828TIP3   OH211419   5.222   4.074   1.840
 3828TIP3    H111420   5.185   4.013   1.776
 3828TIP3    H211421   5.295   4.026   1.879
 3829TIP3   OH211422   5.358   4.497   1.980
 3829TIP3    H111423   5.333   4.481   1.889
 3829TIP3    H211424   5.445   4.458   1.988
 3830TIP3   OH211425   5.323   4.068   2.212
 3830TIP3    H111426   5.362   4.032   2.132
 3830TIP3    H211427   5.372   4.149   2.228
 3831TIP3   OH211428   5.875   4.705   1.994
 3831TIP3    H111429   5.863   4.785   2.046
 3831TIP3    H211430   5.859   4.634   2.056
 3832TIP3   OH211431   5.493   4.605   2.536
 3832TIP3    H111432   5.432   4.662   2.583
 3832TIP3    H211433   5.437   4.553   2.479
 3833TIP3   OH211434   5.819   3.950   1.274
 3833TIP3    H111435   5.881   4.006   1.322
 3833TIP3    H211436   5.850   3.953   1.184
 3834TIP3   OH211437   5.260   4.163   2.648
 3834TIP3    H111438   5.264   4.250   2.687
 3834TIP3    H211439   5.166   4.141   2.649
 3835TIP3   OH211440   5.569   4.618   1.535
 3835TIP3    H111441   5.652   4.666   1.543
 3835TIP3    H211442   5.512   4.678   1.488
 3836TIP3   OH211443   5.280   4.764   2.618
 3836TIP3    H111444   5.258   4.772   2.525
 3836TIP3    H211445   5.196   4.750   2.662
 3837TIP3   OH211446   6.344   3.182   1.333
 3837TIP3    H111447   6.266   3.199   1.386
 3837TIP3    H211448   6.351   3.258   1.275
 3838TIP3   OH211449   5.096   3.915   1.639
 3838TIP3    H111450   5.019   3.964   1.609
 3838TIP3    H211451   5.063   3.828   1.659
 3839TIP3   OH211452   6.141   4.508   0.992
 3839TIP3    H111453   6.140   4.600   0.963
 3839TIP3    H211454   6.228   4.476   0.966
 3840TIP3   OH211455   4.877   4.316   2.569
 3840TIP3    H111456   4.807   4.295   2.507
 3840TIP3    H211457   4.912   4.232   2.597
 3841TIP3   OH211458   4.729   4.504   2.214
 3841TIP3    H111459   4.824   4.516   2.220
 3841TIP3    H211460   4.692   4.581   2.256
 3842TIP3   OH211461   6.576   4.962   2.273
 3842TIP3    H111462   6.580   4.867   2.285
 3842TIP3    H211463   6.496   4.988   2.319
 3843TIP3   OH211464   5.682   4.749   2.397
 3843TIP3    H111465   5.675   4.839   2.428
 3843TIP3    H211466   5.616   4.701   2.447
 3844TIP3   OH211467   5.447   4.831   1.369
 3844TIP3    H111468   5.407   4.809   1.285
 3844TIP3    H211469   5.413   4.918   1.391
 3845TIP3   OH211470   4.895   4.701   1.731
 3845TIP3    H111471   4.939   4.692   1.815
 3845TIP3    H211472   4.845   4.620   1.721
 3846TIP3   OH211473   5.668   4.767   1.030
 3846TIP3    H111474   5.723   4.694   1.000
 3846TIP3    H211475   5.697   4.784   1.120
 3847TIP3   OH211476   5.708   4.819   1.294
 3847TIP3    H111477   5.619   4.818   1.328
 3847TIP3    H211478   5.761   4.781   1.364
 3848TIP3   OH211479   6.473   4.073   2.538
 3848TIP3    H111480   6.387   4.087   2.498
 3848TIP3    H211481   6.488   3.979   2.530
 3849TIP3   OH211482   5.078   4.503   2.539
 3849TIP3    H111483   5.130   4.488   2.618
 3849TIP3    H211484   5.006   4.439   2.545
 3850TIP3   OH211485   5.462   3.310   2.353
 3850TIP3    H111486   5.379   3.275   2.322
 3850TIP3    H211487   5.438   3.390   2.400
 3851TIP3   OH211488   6.001   3.430   2.555
 3851TIP3    H111489   6.068   3.408   2.621
 3851TIP3    H211490   5.918   3.417   2.601
 3852TIP3   OH211491   6.227   3.855   2.472
 3852TIP3    H111492   6.185   3.850   2.558
 3852TIP3    H211493   6.210   3.943   2.441
 3853TIP3   OH211494   5.899   3.915   1.016
 3853TIP3    H111495   5.847   3.933   0.937
 3853TIP3    H211496   5.985   3.952   0.997
 3854TIP3   OH211497   5.616   3.349   1.323
 3854TIP3    H111498   5.578   3.358   1.410
 3854TIP3    H211499   5.578   3.269   1.287
 3855TIP3   OH211500   5.399   3.846   2.360
 3855TIP3    H111501   5.353   3.853   2.444
 3855TIP3    H211502   5.376   3.926   2.314
 3856TIP3   OH211503   5.281   3.723   1.882
 3856TIP3    H111504   5.192   3.700   1.908
 3856TIP3    H211505   5.290   3.689   1.793
 3857TIP3   OH211506   5.762   3.796   1.612
 3857TIP3    H111507   5.713   3.869   1.573
 3857TIP3    H211508   5.819   3.765   1.542
 3858TIP3   OH211509   5.946   4.070   2.692
 3858TIP3    H111510   5.920   4.000   2.752
 3858TIP3    H211511   6.034   4.096   2.722
 3859TIP3   OH211512   5.930   3.812   1.834
 3859TIP3    H111513   5.860   3.834   1.772
 3859TIP3    H211514   5.976   3.739   1.793
 3860TIP3   OH211515   5.237   3.859   2.582
 3860TIP3    H111516   5.255   3.920   2.654
 3860TIP3    H211517   5.218   3.776   2.626
 3861TIP3   OH211518   5.281   3.334   1.298
 3861TIP3    H111519   5.271   3.337   1.393
 3861TIP3    H211520   5.203   3.377   1.263
 3862TIP3   OH211521   4.828   3.380   2.157
 3862TIP3    H111522   4.900   3.414   2.210
 3862TIP3    H211523   4.869   3.356   2.074
 3863TIP3   OH211524   4.736   3.359   1.664
 3863TIP3    H111525   4.779   3.395   1.587
 3863TIP3    H211526   4.672   3.427   1.689
 3864TIP3   OH211527   5.973   4.065   2.260
 3864TIP3    H111528   5.996   3.997   2.197
 3864TIP3    H211529   5.929   4.019   2.331
 3865TIP3   OH211530   5.644   3.514   1.935
 3865TIP3    H111531   5.564   3.514   1.988
 3865TIP3    H211532   5.715   3.506   1.998
 3866TIP3   OH211533   5.041   3.600   1.942
 3866TIP3    H111534   4.953   3.605   1.906
 3866TIP3    H211535   5.068   3.509   1.928
 3867TIP3   OH211536   5.295   3.599   1.637
 3867TIP3    H111537   5.390   3.611   1.625
 3867TIP3    H211538   5.258   3.617   1.550
 3868TIP3   OH211539   6.095   3.599   2.135
 3868TIP3    H111540   6.081   3.615   2.229
 3868TIP3    H211541   6.023   3.541   2.110
 3869TIP3   OH211542   5.181   3.622   1.389
 3869TIP3    H111543   5.117   3.573   1.337
 3869TIP3    H211544   5.233   3.670   1.325
 3870TIP3   OH211545   6.290   5.305   2.363
 3870TIP3    H111546   6.286   5.320   2.269
 3870TIP3    H211547   6.369   5.352   2.391
 3871TIP3   OH211548   5.233   4.420   2.771
 3871TIP3    H111549   5.313   4.438   2.820
 3871TIP3    H211550   5.163   4.420   2.838
 3872TIP3   OH211551   5.694   3.886   2.042
 3872TIP3    H111552   5.761   3.835   1.997
 3872TIP3    H211553   5.690   3.849   2.131
 3873TIP3   OH211554   5.183   3.350   1.931
 3873TIP3    H111555   5.155   3.275   1.983
 3873TIP3    H211556   5.203   3.313   1.845
 3874TIP3   OH211557   5.668   3.796   2.309
 3874TIP3    H111558   5.580   3.826   2.331
 3874TIP3    H211559   5.726   3.850   2.363
 3875TIP3   OH211560   5.406   4.144   1.412
 3875TIP3    H111561   5.331   4.089   1.389
 3875TIP3    H211562   5.380   4.185   1.494
 3876TIP3   OH211563   6.291   4.395   2.027
 3876TIP3    H111564   6.328   4.444   1.953
 3876TIP3    H211565   6.211   4.356   1.992
 3877TIP3   OH211566   5.868   3.454   1.326
 3877TIP3    H111567   5.775   3.432   1.323
 3877TIP3    H211568   5.870   3.549   1.338
 3878TIP3   OH211569   5.811   4.477   2.440
 3878TIP3    H111570   5.861   4.462   2.521
 3878TIP3    H211571   5.771   4.563   2.452
 3879TIP3   OH211572   5.925   3.719   1.395
 3879TIP3    H111573   6.020   3.726   1.405
 3879TIP3    H211574   5.900   3.797   1.345
 3880TIP3   OH211575   5.091   4.155   2.071
 3880TIP3    H111576   5.129   4.138   1.985
 3880TIP3    H211577   5.156   4.123   2.133
 3881TIP3   OH211578   5.564   4.303   1.252
 3881TIP3    H111579   5.514   4.384   1.253
 3881TIP3    H211580   5.512   4.242   1.304
 3882TIP3   OH211581   4.992   4.107   2.716
 3882TIP3    H111582   5.026   4.118   2.805
 3882TIP3    H211583   4.927   4.037   2.724
 3883TIP3   OH211584   5.709   4.222   2.718
 3883TIP3    H111585   5.641   4.160   2.692
 3883TIP3    H211586   5.792   4.180   2.692
 3884TIP3   OH211587   5.952   4.767   2.316
 3884TIP3    H111588   5.857   4.752   2.323
 3884TIP3    H211589   5.975   4.807   2.400
 3885TIP3   OH211590   6.343   3.804   1.221
 3885TIP3    H111591   6.287   3.758   1.159
 3885TIP3    H211592   6.349   3.893   1.188
 3886TIP3   OH211593   6.591   4.681   2.295
 3886TIP3    H111594   6.497   4.667   2.287
 3886TIP3    H211595   6.627   4.653   2.211
 3887TIP3   OH211596   6.033   4.634   1.218
 3887TIP3    H111597   6.018   4.585   1.299
 3887TIP3    H211598   6.059   4.567   1.154
 3888TIP3   OH211599   6.062   4.262   1.922
 3888TIP3    H111600   5.972   4.240   1.948
 3888TIP3    H211601   6.096   4.181   1.885
 3889TIP3   OH211602   5.216   4.495   1.736
 3889TIP3    H111603   5.212   4.571   1.679
 3889TIP3    H211604   5.125   4.480   1.762
 3890TIP3   OH211605   4.778   3.784   1.450
 3890TIP3    H111606   4.820   3.867   1.470
 3890TIP3    H211607   4.697   3.784   1.501
 3891TIP3   OH211608   5.305   4.252   1.639
 3891TIP3    H111609   5.288   4.341   1.669
 3891TIP3    H211610   5.278   4.196   1.712
 3892TIP3   OH211611   5.499   4.821   2.191
 3892TIP3    H111612   5.536   4.893   2.141
 3892TIP3    H211613   5.572   4.787   2.243
 3893TIP3   OH211614   5.130   4.717   1.588
 3893TIP3    H111615   5.042   4.722   1.626
 3893TIP3    H211616   5.162   4.807   1.591
 3894TIP3   OH211617   5.847   4.482   2.165
 3894TIP3    H111618   5.835   4.479   2.260
 3894TIP3    H211619   5.925   4.430   2.149
 3895TIP3   OH211620   5.814   4.354   1.096
 3895TIP3    H111621   5.882   4.340   1.162
 3895TIP3    H211622   5.732   4.339   1.143
 3896TIP3   OH211623   6.109   4.979   2.203
 3896TIP3    H111624   6.038   4.917   2.219
 3896TIP3    H211625   6.077   5.035   2.132
 3897TIP3   OH211626   6.132   4.781   0.922
 3897TIP3    H111627   6.154   4.813   0.835
 3897TIP3    H211628   6.081   4.852   0.961
 3898TIP3   OH211629   5.185   3.607   2.700
 3898TIP3    H111630   5.090   3.614   2.704
 3898TIP3    H211631   5.210   3.573   2.786
 3899TIP3   OH211632   6.012   4.293   1.271
 3899TIP3    H111633   6.005   4.218   1.330
 3899TIP3    H211634   6.105   4.298   1.248
 3900TIP3   OH211635   4.927   4.708   2.356
 3900TIP3    H111636   4.975   4.642   2.406
 3900TIP3    H211637   4.943   4.790   2.402
 3901TIP3   OH211638   5.199   4.324   1.048
 3901TIP3    H111639   5.211   4.234   1.020
 3901TIP3    H211640   5.180   4.318   1.141
 3902TIP3   OH211641   5.136   4.344   1.318
 3902TIP3    H111642   5.200   4.318   1.385
 3902TIP3    H211643   5.135   4.439   1.322
 3903TIP3   OH211644   4.870   4.036   1.530
 3903TIP3    H111645   4.805   4.082   1.581
 3903TIP3    H211646   4.889   4.094   1.456
 3904TIP3   OH211647   6.050   3.651   2.397
 3904TIP3    H111648   6.118   3.704   2.439
 3904TIP3    H211649   6.035   3.580   2.459
 3905TIP3   OH211650   5.929   3.407   1.595
 3905TIP3    H111651   5.906   3.425   1.504
 3905TIP3    H211652   5.970   3.487   1.626
 3906TIP3   OH211653   5.411   4.525   1.265
 3906TIP3    H111654   5.326   4.548   1.303
 3906TIP3    H211655   5.431   4.598   1.206
 3907TIP3   OH211656   5.576   3.605   1.681
 3907TIP3    H111657   5.638   3.674   1.656
 3907TIP3    H211658   5.597   3.586   1.772
 3908TIP3   OH211659   5.876   3.910   2.466
 3908TIP3    H111660   5.896   3.960   2.545
 3908TIP3    H211661   5.921   3.826   2.479
 3909TIP3   OH211662   5.739   3.306   1.771
 3909TIP3    H111663   5.713   3.383   1.822
 3909TIP3    H211664   5.807   3.338   1.712
 3910TIP3   OH211665   5.159   4.616   1.335
 3910TIP3    H111666   5.136   4.688   1.275
 3910TIP3    H211667   5.147   4.653   1.422
 3911TIP3   OH211668   5.250   3.326   1.576
 3911TIP3    H111669   5.238   3.417   1.605
 3911TIP3    H211670   5.344   3.311   1.583
 3912TIP3   OH211671   6.491   3.798   2.448
 3912TIP3    H111672   6.397   3.807   2.463
 3912TIP3    H211673   6.497   3.750   2.366
 3913TIP3   OH211674   6.153   4.002   1.837
 3913TIP3    H111675   6.074   3.948   1.849
 3913TIP3    H211676   6.218   3.961   1.895
 3914TIP3   OH211677   4.891   4.211   1.313
 3914TIP3    H111678   4.962   4.276   1.319
 3914TIP3    H211679   4.923   4.148   1.248
 3915TIP3   OH211680   4.799   3.505   1.440
 3915TIP3    H111681   4.815   3.599   1.453
 3915TIP3    H211682   4.738   3.501   1.367
 3916TIP3   OH211683   6.134   4.977   1.780
 3916TIP3    H111684   6.093   5.033   1.714
 3916TIP3    H211685   6.228   4.988   1.765
 3917TIP3   OH211686   5.202   3.222   2.312
 3917TIP3    H111687   5.170   3.188   2.229
 3917TIP3    H211688   5.191   3.149   2.374
 3918TIP3   OH211689   4.719   4.480   1.701
 3918TIP3    H111690   4.673   4.515   1.777
 3918TIP3    H211691   4.677   4.521   1.626
 3919TIP3   OH211692   4.930   5.019   2.778
 3919TIP3    H111693   5.012   5.027   2.828
 3919TIP3    H211694   4.922   4.925   2.761
 3920TIP3   OH211695   5.391   4.927   2.810
 3920TIP3    H111696   5.481   4.895   2.821
 3920TIP3    H211697   5.355   4.874   2.739
 3921TIP3   OH211698   5.369   4.523   0.960
 3921TIP3    H111699   5.319   4.452   1.001
 3921TIP3    H211700   5.443   4.479   0.918
 3922TIP3   OH211701   6.007   4.875   2.561
 3922TIP3    H111702   6.016   4.801   2.622
 3922TIP3    H211703   6.083   4.931   2.581
 3923TIP3   OH211704   5.803   4.562   0.914
 3923TIP3    H111705   5.834   4.493   0.972
 3923TIP3    H211706   5.852   4.551   0.833
 3924TIP3   OH211707   5.026   4.419   2.960
 3924TIP3    H111708   5.042   4.326   2.978
 3924TIP3    H211709   4.938   4.421   2.921
 3925TIP3   OH211710   5.017   4.020   1.165
 3925TIP3    H111711   5.069   3.998   1.242
 3925TIP3    H211712   5.082   4.033   1.095
 3926TIP3   OH211713   5.647   4.498   2.739
 3926TIP3    H111714   5.601   4.519   2.658
 3926TIP3    H211715   5.679   4.409   2.726
 3927TIP3   OH211716   5.530   4.233   0.984
 3927TIP3    H111717   5.537   4.243   1.079
 3927TIP3    H211718   5.529   4.138   0.970
 3928TIP3   OH211719   6.121   4.543   2.352
 3928TIP3    H111720   6.199   4.572   2.304
 3928TIP3    H211721   6.056   4.611   2.336
 3929TIP3   OH211722   5.123   4.144   2.967
 3929TIP3    H111723   5.157   4.055   2.972
 3929TIP3    H211724   5.152   4.186   3.048
 3930TIP3   OH211725   5.195   3.965   1.374
 3930TIP3    H111726   5.173   3.936   1.462
 3930TIP3    H211727   5.240   3.891   1.335
 3931TIP3   OH211728   5.509   4.042   2.618
 3931TIP3    H111729   5.424   4.086   2.627
 3931TIP3    H211730   5.542   4.070   2.533
 3932TIP3   OH211731   5.331   3.777   1.220
 3932TIP3    H111732   5.299   3.780   1.129
 3932TIP3    H211733   5.426   3.786   1.213
 3933TIP3   OH211734   5.996   4.414   2.709
 3933TIP3    H111735   6.066   4.368   2.662
 3933TIP3    H211736   5.995   4.373   2.795
 3934TIP3   OH211737   6.131   4.017   0.910
 3934TIP3    H111738   6.116   3.986   0.821
 3934TIP3    H211739   6.092   4.105   0.912
 3935TIP3   OH211740   5.610   3.811   2.727
 3935TIP3    H111741   5.610   3.741   2.662
 3935TIP3    H211742   5.574   3.887   2.681
 3936TIP3   OH211743   5.618   3.610   2.526
 3936TIP3    H111744   5.642   3.652   2.443
 3936TIP3    H211745   5.527   3.584   2.514
 3937TIP3   OH211746   5.627   4.140   2.394
 3937TIP3    H111747   5.713   4.183   2.389
 3937TIP3    H211748   5.568   4.199   2.348
 3938TIP3   OH211749   6.208   4.128   2.803
 3938TIP3    H111750   6.264   4.050   2.805
 3938TIP3    H211751   6.269   4.201   2.794
 3939TIP3   OH211752   6.249   4.362   2.510
 3939TIP3    H111753   6.192   4.424   2.464
 3939TIP3    H211754   6.337   4.382   2.478
 3940TIP3   OH211755   5.504   3.896   2.978
 3940TIP3    H111756   5.420   3.858   3.002
 3940TIP3    H211757   5.520   3.865   2.889
 3941TIP3   OH211758   5.736   3.381   2.634
 3941TIP3    H111759   5.697   3.461   2.600
 3941TIP3    H211760   5.669   3.314   2.622
 3942TIP3   OH211761   5.863   3.850   2.835
 3942TIP3    H111762   5.849   3.838   2.929
 3942TIP3    H211763   5.778   3.832   2.795
 3943TIP3   OH211764   6.108   3.805   2.708
 3943TIP3    H111765   6.028   3.808   2.761
 3943TIP3    H211766   6.178   3.789   2.771
 3944TIP3   OH211767   6.350   3.776   2.857
 3944TIP3    H111768   6.360   3.681   2.864
 3944TIP3    H211769   6.342   3.806   2.948
 3945TIP3   OH211770   5.321   3.672   3.033
 3945TIP3    H111771   5.326   3.581   3.002
 3945TIP3    H211772   5.364   3.669   3.119
 3946TIP3   OH211773   5.805   3.354   2.899
 3946TIP3    H111774   5.874   3.287   2.889
 3946TIP3    H211775   5.772   3.368   2.811
 3947TIP3   OH211776   5.901   3.567   3.047
 3947TIP3    H111777   5.868   3.497   2.991
 3947TIP3    H211778   5.831   3.633   3.047
 3948TIP3   OH211779   5.145   4.836   1.162
 3948TIP3    H111780   5.234   4.818   1.129
 3948TIP3    H211781   5.103   4.883   1.090
 3949TIP3   OH211782   4.619   4.205   1.333
 3949TIP3    H111783   4.713   4.218   1.327
 3949TIP3    H211784   4.603   4.120   1.293
 3950TIP3   OH211785   4.521   4.793   1.791
 3950TIP3    H111786   4.457   4.738   1.745
 3950TIP3    H211787   4.567   4.732   1.849
 3951TIP3   OH211788   4.665   4.625   1.958
 3951TIP3    H111789   4.656   4.554   2.022
 3951TIP3    H211790   4.717   4.692   2.002
 3952TIP3   OH211791   6.405   5.025   1.768
 3952TIP3    H111792   6.428   5.058   1.855
 3952TIP3    H211793   6.460   5.074   1.708
 3953TIP3   OH211794   6.422   5.061   2.049
 3953TIP3    H111795   6.376   4.978   2.041
 3953TIP3    H211796   6.493   5.044   2.111
 3954TIP3   OH211797   6.475   4.758   2.628
 3954TIP3    H111798   6.401   4.766   2.687
 3954TIP3    H211799   6.518   4.844   2.632
 3955TIP3   OH211800   6.289   4.263   1.244
 3955TIP3    H111801   6.347   4.336   1.221
 3955TIP3    H211802   6.333   4.217   1.314
 3956TIP3   OH211803   6.429   4.121   1.434
 3956TIP3    H111804   6.363   4.088   1.494
 3956TIP3    H211805   6.492   4.166   1.490
 3957TIP3   OH211806   6.473   4.533   1.867
 3957TIP3    H111807   6.525   4.466   1.822
 3957TIP3    H211808   6.476   4.608   1.808
 3958TIP3   OH211809   6.281   4.821   2.051
 3958TIP3    H111810   6.215   4.866   2.103
 3958TIP3    H211811   6.233   4.781   1.979
 3959TIP3   OH211812   6.339   4.041   1.087
 3959TIP3    H111813   6.269   4.034   1.021
 3959TIP3    H211814   6.318   4.122   1.134
 3960TIP3   OH211815   6.190   3.696   1.025
 3960TIP3    H111816   6.147   3.749   0.958
 3960TIP3    H211817   6.174   3.606   0.998
 3961TIP3   OH211818   6.225   3.990   1.572
 3961TIP3    H111819   6.227   3.896   1.558
 3961TIP3    H211820   6.205   4.000   1.665
 3962TIP3   OH211821   4.840   4.058   2.340
 3962TIP3    H111822   4.832   4.024   2.251
 3962TIP3    H211823   4.934   4.054   2.359
 3963TIP3   OH211824   6.508   4.414   2.424
 3963TIP3    H111825   6.574   4.347   2.408
 3963TIP3    H211826   6.526   4.482   2.359
 3964TIP3   OH211827   6.683   4.200   2.417
 3964TIP3    H111828   6.608   4.160   2.461
 3964TIP3    H211829   6.757   4.145   2.440
 3965TIP3   OH211830   6.148   3.423   0.983
 3965TIP3    H111831   6.209   3.407   1.055
 3965TIP3    H211832   6.064   3.390   1.014
 3966TIP3   OH211833   6.217   3.716   1.457
 3966TIP3    H111834   6.262   3.632   1.468
 3966TIP3    H211835   6.258   3.755   1.380
 3967TIP3   OH211836   6.369   3.877   1.977
 3967TIP3    H111837   6.449   3.897   1.929
 3967TIP3    H211838   6.381   3.919   2.062
 3968TIP3   OH211839   6.442   4.029   2.203
 3968TIP3    H111840   6.370   4.057   2.259
 3968TIP3    H211841   6.471   4.109   2.160
 3969TIP3   OH211842   5.059   3.735   2.966
 3969TIP3    H111843   5.150   3.743   2.994
 3969TIP3    H211844   5.027   3.657   3.012
 3970TIP3   OH211845   6.908   3.625   2.744
 3970TIP3    H111846   6.973   3.570   2.700
 3970TIP3    H211847   6.869   3.677   2.674
 3971TIP3   OH211848   6.333   3.466   1.505
 3971TIP3    H111849   6.380   3.450   1.587
 3971TIP3    H211850   6.270   3.395   1.499
 3972TIP3   OH211851   5.040   3.448   2.324
 3972TIP3    H111852   5.093   3.369   2.332
 3972TIP3    H211853   5.103   3.518   2.309
 3973TIP3   OH211854   4.817   3.708   2.391
 3973TIP3    H111855   4.869   3.705   2.311
 3973TIP3    H211856   4.844   3.789   2.434
 3974TIP3   OH211857   6.757   3.749   2.555
 3974TIP3    H111858   6.684   3.790   2.602
 3974TIP3    H211859   6.715   3.689   2.494
 3975TIP3   OH211860   6.369   3.385   1.149
 3975TIP3    H111861   6.415   3.323   1.092
 3975TIP3    H211862   6.425   3.463   1.150
 3976TIP3   OH211863   4.806   3.224   1.891
 3976TIP3    H111864   4.721   3.213   1.933
 3976TIP3    H211865   4.789   3.279   1.815
 3977TIP3   OH211866   5.969   4.941   1.449
 3977TIP3    H111867   6.024   4.930   1.371
 3977TIP3    H211868   6.004   5.018   1.493
 3978TIP3   OH211869   5.028   3.274   2.716
 3978TIP3    H111870   4.983   3.278   2.800
 3978TIP3    H211871   4.973   3.324   2.656
 3979TIP3   OH211872   5.050   4.742   2.777
 3979TIP3    H111873   4.958   4.716   2.775
 3979TIP3    H211874   5.081   4.715   2.864
 3980TIP3   OH211875   5.269   4.782   2.337
 3980TIP3    H111876   5.218   4.857   2.306
 3980TIP3    H211877   5.354   4.790   2.294
 3981TIP3   OH211878   5.670   5.015   2.479
 3981TIP3    H111879   5.709   5.007   2.566
 3981TIP3    H211880   5.731   5.070   2.430
 3982TIP3   OH211881   5.855   5.173   2.347
 3982TIP3    H111882   5.915   5.117   2.298
 3982TIP3    H211883   5.912   5.228   2.401
 3983TIP3   OH211884   6.664   3.501   2.432
 3983TIP3    H111885   6.578   3.503   2.390
 3983TIP3    H211886   6.690   3.409   2.429
 3984TIP3   OH211887   4.933   5.032   2.385
 3984TIP3    H111888   4.841   5.048   2.364
 3984TIP3    H211889   4.954   5.096   2.453
 3985TIP3   OH211890   5.163   5.016   2.236
 3985TIP3    H111891   5.080   5.021   2.284
 3985TIP3    H211892   5.139   5.037   2.146
 3986TIP3   OH211893   5.577   5.032   2.026
 3986TIP3    H111894   5.504   5.041   1.965
 3986TIP3    H211895   5.586   5.118   2.067
 3987TIP3   OH211896   5.841   4.968   2.080
 3987TIP3    H111897   5.750   4.988   2.058
 3987TIP3    H211898   5.892   5.034   2.033
 3988TIP3   OH211899   6.040   5.140   1.981
 3988TIP3    H111900   6.039   5.227   1.943
 3988TIP3    H211901   6.072   5.083   1.911
 3989TIP3   OH211902   4.842   4.800   2.107
 3989TIP3    H111903   4.868   4.775   2.196
 3989TIP3    H211904   4.912   4.768   2.051
 3990TIP3   OH211905   5.043   4.687   1.965
 3990TIP3    H111906   5.055   4.602   2.008
 3990TIP3    H211907   5.130   4.727   1.967
 3991TIP3   OH211908   5.312   4.773   1.988
 3991TIP3    H111909   5.330   4.681   1.972
 3991TIP3    H211910   5.366   4.796   2.063
 3992TIP3   OH211911   5.870   3.424   2.077
 3992TIP3    H111912   5.830   3.354   2.128
 3992TIP3    H211913   5.939   3.381   2.026
 3993TIP3   OH211914   6.374   3.335   1.954
 3993TIP3    H111915   6.410   3.389   1.884
 3993TIP3    H211916   6.282   3.360   1.959
 3994TIP3   OH211917   6.499   3.412   1.720
 3994TIP3    H111918   6.570   3.350   1.700
 3994TIP3    H211919   6.539   3.499   1.705
 3995TIP3   OH211920   5.110   3.121   2.071
 3995TIP3    H111921   5.021   3.088   2.081
 3995TIP3    H211922   5.164   3.042   2.065
 3996TIP3   OH211923   4.907   3.022   1.717
 3996TIP3    H111924   4.943   3.073   1.644
 3996TIP3    H211925   4.881   3.088   1.782
 3997TIP3   OH211926   5.595   3.157   1.967
 3997TIP3    H111927   5.640   3.209   1.900
 3997TIP3    H211928   5.630   3.189   2.050
 3998TIP3   OH211929   6.086   3.313   1.942
 3998TIP3    H111930   6.082   3.280   1.852
 3998TIP3    H211931   6.092   3.234   1.996
 3999TIP3   OH211932   6.149   3.255   1.514
 3999TIP3    H111933   6.069   3.303   1.535
 3999TIP3    H211934   6.135   3.168   1.551
 4000TIP3   OH211935   4.603   4.600   1.482
 4000TIP3    H111936   4.520   4.570   1.446
 4000TIP3    H211937   4.608   4.692   1.457
 4001TIP3   OH211938   5.036   3.159   1.490
 4001TIP3    H111939   5.083   3.096   1.434
 4001TIP3    H211940   5.105   3.215   1.525
 4002TIP3   OH211941   5.526   3.354   1.585
 4002TIP3    H111942   5.584   3.302   1.641
 4002TIP3    H211943   5.540   3.444   1.613
 4003TIP3   OH211944   5.402   4.756   1.097
 4003TIP3    H111945   5.489   4.783   1.068
 4003TIP3    H211946   5.379   4.683   1.040
 4004TIP3   OH211947   6.114   4.891   1.219
 4004TIP3    H111948   6.091   4.798   1.218
 4004TIP3    H211949   6.064   4.929   1.146
 4005TIP3   OH211950   5.340   3.400   2.955
 4005TIP3    H111951   5.304   3.333   3.013
 4005TIP3    H211952   5.431   3.410   2.982
 4006TIP3   OH211953   5.588   3.408   3.075
 4006TIP3    H111954   5.665   3.383   3.025
 4006TIP3    H211955   5.579   3.338   3.141
 4007TIP3   OH211956   4.709   4.568   1.152
 4007TIP3    H111957   4.714   4.584   1.246
 4007TIP3    H211958   4.794   4.529   1.130
 4008TIP3   OH211959   6.412   3.502   2.863
 4008TIP3    H111960   6.430   3.476   2.954
 4008TIP3    H211961   6.497   3.498   2.820
 4009TIP3   OH211962   6.327   5.031   2.373
 4009TIP3    H111963   6.253   5.001   2.318
 4009TIP3    H211964   6.315   5.125   2.379
 4010TIP3   OH211965   7.618   4.385   1.138
 4010TIP3    H111966   7.584   4.474   1.128
 4010TIP3    H211967   7.548   4.329   1.104
 4011TIP3   OH211968   7.578   4.405   1.516
 4011TIP3    H111969   7.606   4.392   1.607
 4011TIP3    H211970   7.536   4.322   1.492
 4012TIP3   OH211971   6.901   4.274   1.877
 4012TIP3    H111972   6.940   4.224   1.948
 4012TIP3    H211973   6.975   4.302   1.823
 4013TIP3   OH211974   7.895   4.694   1.250
 4013TIP3    H111975   7.861   4.642   1.323
 4013TIP3    H211976   7.916   4.779   1.288
 4014TIP3   OH211977   6.889   4.693   1.575
 4014TIP3    H111978   6.871   4.599   1.577
 4014TIP3    H211979   6.983   4.699   1.563
 4015TIP3   OH211980   6.571   3.889   1.368
 4015TIP3    H111981   6.538   3.976   1.387
 4015TIP3    H211982   6.502   3.846   1.319
 4016TIP3   OH211983   6.655   4.219   1.569
 4016TIP3    H111984   6.707   4.142   1.595
 4016TIP3    H211985   6.720   4.285   1.546
 4017TIP3   OH211986   7.464   5.176   1.230
 4017TIP3    H111987   7.502   5.089   1.212
 4017TIP3    H211988   7.377   5.157   1.265
 4018TIP3   OH211989   7.410   4.633   1.539
 4018TIP3    H111990   7.449   4.554   1.501
 4018TIP3    H211991   7.485   4.683   1.572
 4019TIP3   OH211992   7.798   4.137   1.573
 4019TIP3    H111993   7.828   4.046   1.583
 4019TIP3    H211994   7.738   4.134   1.499
 4020TIP3   OH211995   7.162   3.788   1.541
 4020TIP3    H111996   7.143   3.862   1.484
 4020TIP3    H211997   7.112   3.715   1.504
 4021TIP3   OH211998   7.862   3.902   1.173
 4021TIP3    H111999   7.949   3.895   1.210
 4021TIP3    H212000   7.868   3.973   1.109
 4022TIP3   OH212001   6.791   3.995   1.663
 4022TIP3    H112002   6.875   3.980   1.708
 4022TIP3    H212003   6.801   3.948   1.580
 4023TIP3   OH212004   7.213   4.194   1.486
 4023TIP3    H112005   7.308   4.181   1.490
 4023TIP3    H212006   7.179   4.114   1.447
 4024TIP3   OH212007   7.143   3.783   1.988
 4024TIP3    H112008   7.097   3.824   1.915
 4024TIP3    H212009   7.090   3.803   2.064
 4025TIP3   OH212010   7.504   4.614   1.028
 4025TIP3    H112011   7.472   4.573   0.948
 4025TIP3    H212012   7.425   4.648   1.071
 4026TIP3   OH212013   7.245   4.562   1.750
 4026TIP3    H112014   7.190   4.633   1.782
 4026TIP3    H212015   7.292   4.600   1.675
 4027TIP3   OH212016   7.037   3.896   1.761
 4027TIP3    H112017   7.090   3.973   1.782
 4027TIP3    H212018   7.082   3.855   1.687
 4028TIP3   OH212019   7.089   4.761   1.858
 4028TIP3    H112020   7.077   4.850   1.826
 4028TIP3    H212021   7.010   4.743   1.909
 4029TIP3   OH212022   6.484   4.444   1.171
 4029TIP3    H112023   6.452   4.458   1.083
 4029TIP3    H212024   6.510   4.531   1.202
 4030TIP3   OH212025   7.932   4.947   1.355
 4030TIP3    H112026   7.847   4.943   1.399
 4030TIP3    H212027   7.938   5.036   1.321
 4031TIP3   OH212028   7.472   3.470   1.717
 4031TIP3    H112029   7.462   3.376   1.737
 4031TIP3    H212030   7.397   3.511   1.759
 4032TIP3   OH212031   7.625   4.962   1.145
 4032TIP3    H112032   7.669   4.882   1.114
 4032TIP3    H212033   7.666   5.032   1.094
 4033TIP3   OH212034   7.750   4.738   1.026
 4033TIP3    H112035   7.669   4.687   1.025
 4033TIP3    H212036   7.799   4.702   1.100
 4034TIP3   OH212037   8.141   4.817   1.682
 4034TIP3    H112038   8.107   4.759   1.615
 4034TIP3    H212039   8.136   4.905   1.644
 4035TIP3   OH212040   7.447   4.247   0.967
 4035TIP3    H112041   7.355   4.264   0.985
 4035TIP3    H212042   7.468   4.303   0.892
 4036TIP3   OH212043   7.407   4.031   0.718
 4036TIP3    H112044   7.464   4.094   0.761
 4036TIP3    H212045   7.466   3.968   0.678
 4037TIP3   OH212046   7.797   4.315   0.945
 4037TIP3    H112047   7.740   4.346   1.016
 4037TIP3    H212048   7.862   4.260   0.990
 4038TIP3   OH212049   7.884   4.357   1.957
 4038TIP3    H112050   7.919   4.441   1.988
 4038TIP3    H212051   7.821   4.382   1.889
 4039TIP3   OH212052   7.009   4.316   1.337
 4039TIP3    H112053   6.979   4.256   1.268
 4039TIP3    H212054   7.084   4.271   1.376
 4040TIP3   OH212055   7.153   4.728   1.486
 4040TIP3    H112056   7.126   4.716   1.395
 4040TIP3    H212057   7.244   4.699   1.488
 4041TIP3   OH212058   7.114   4.328   1.705
 4041TIP3    H112059   7.151   4.291   1.625
 4041TIP3    H212060   7.161   4.409   1.719
 4042TIP3   OH212061   7.703   4.945   1.494
 4042TIP3    H112062   7.676   5.029   1.533
 4042TIP3    H212063   7.667   4.879   1.553
 4043TIP3   OH212064   7.283   4.861   2.028
 4043TIP3    H112065   7.221   4.920   2.071
 4043TIP3    H212066   7.230   4.809   1.968
 4044TIP3   OH212067   7.638   4.213   0.738
 4044TIP3    H112068   7.687   4.261   0.805
 4044TIP3    H212069   7.622   4.278   0.669
 4045TIP3   OH212070   7.039   4.402   2.169
 4045TIP3    H112071   7.045   4.496   2.187
 4045TIP3    H212072   6.945   4.385   2.162
 4046TIP3   OH212073   7.358   4.893   1.169
 4046TIP3    H112074   7.452   4.902   1.184
 4046TIP3    H212075   7.350   4.876   1.076
 4047TIP3   OH212076   7.077   5.020   2.114
 4047TIP3    H112077   7.055   5.032   2.022
 4047TIP3    H212078   6.992   5.006   2.157
 4048TIP3   OH212079   6.901   4.139   1.142
 4048TIP3    H112080   6.819   4.185   1.125
 4048TIP3    H212081   6.876   4.047   1.150
 4049TIP3   OH212082   6.674   4.574   2.060
 4049TIP3    H112083   6.605   4.558   1.996
 4049TIP3    H212084   6.708   4.487   2.080
 4050TIP3   OH212085   6.523   4.767   1.722
 4050TIP3    H112086   6.616   4.787   1.727
 4050TIP3    H212087   6.479   4.846   1.754
 4051TIP3   OH212088   7.477   4.996   1.888
 4051TIP3    H112089   7.473   5.088   1.916
 4051TIP3    H212090   7.407   4.953   1.937
 4052TIP3   OH212091   7.262   5.174   0.748
 4052TIP3    H112092   7.181   5.135   0.715
 4052TIP3    H212093   7.234   5.253   0.795
 4053TIP3   OH212094   6.668   4.949   1.245
 4053TIP3    H112095   6.715   4.943   1.329
 4053TIP3    H212096   6.627   4.863   1.235
 4054TIP3   OH212097   7.451   5.019   0.626
 4054TIP3    H112098   7.372   5.065   0.652
 4054TIP3    H212099   7.492   4.994   0.708
 4055TIP3   OH212100   6.874   4.761   2.030
 4055TIP3    H112101   6.924   4.745   2.110
 4055TIP3    H212102   6.801   4.700   2.035
 4056TIP3   OH212103   7.244   3.566   1.845
 4056TIP3    H112104   7.162   3.541   1.803
 4056TIP3    H212105   7.224   3.648   1.890
 4057TIP3   OH212106   7.756   3.688   2.056
 4057TIP3    H112107   7.824   3.680   2.122
 4057TIP3    H212108   7.674   3.674   2.104
 4058TIP3   OH212109   8.118   4.156   1.979
 4058TIP3    H112110   8.051   4.184   2.042
 4058TIP3    H212111   8.094   4.198   1.897
 4059TIP3   OH212112   7.426   3.597   0.820
 4059TIP3    H112113   7.388   3.611   0.907
 4059TIP3    H212114   7.379   3.521   0.785
 4060TIP3   OH212115   7.193   4.104   1.849
 4060TIP3    H112116   7.150   4.114   1.934
 4060TIP3    H212117   7.174   4.186   1.803
 4061TIP3   OH212118   7.077   3.984   1.374
 4061TIP3    H112119   6.986   3.964   1.395
 4061TIP3    H212120   7.089   3.951   1.285
 4062TIP3   OH212121   7.568   4.036   1.083
 4062TIP3    H112122   7.521   4.109   1.042
 4062TIP3    H212123   7.636   4.012   1.019
 4063TIP3   OH212124   7.685   4.343   2.175
 4063TIP3    H112125   7.680   4.274   2.241
 4063TIP3    H212126   7.779   4.352   2.158
 4064TIP3   OH212127   7.694   4.075   1.324
 4064TIP3    H112128   7.634   4.085   1.250
 4064TIP3    H212129   7.744   3.996   1.304
 4065TIP3   OH212130   7.033   4.121   2.072
 4065TIP3    H112131   7.042   4.189   2.139
 4065TIP3    H212132   7.014   4.041   2.121
 4066TIP3   OH212133   7.080   3.597   0.786
 4066TIP3    H112134   7.070   3.602   0.881
 4066TIP3    H212135   7.001   3.640   0.752
 4067TIP3   OH212136   6.630   3.640   1.654
 4067TIP3    H112137   6.695   3.674   1.715
 4067TIP3    H212138   6.630   3.702   1.581
 4068TIP3   OH212139   6.532   3.611   1.156
 4068TIP3    H112140   6.575   3.645   1.078
 4068TIP3    H212141   6.470   3.679   1.181
 4069TIP3   OH212142   7.681   4.319   1.758
 4069TIP3    H112143   7.728   4.261   1.698
 4069TIP3    H212144   7.650   4.261   1.827
 4070TIP3   OH212145   7.418   3.839   1.432
 4070TIP3    H112146   7.340   3.820   1.485
 4070TIP3    H212147   7.485   3.779   1.466
 4071TIP3   OH212148   6.837   3.860   1.429
 4071TIP3    H112149   6.748   3.861   1.394
 4071TIP3    H212150   6.870   3.773   1.408
 4072TIP3   OH212151   7.087   3.854   1.133
 4072TIP3    H112152   7.181   3.869   1.120
 4072TIP3    H212153   7.049   3.872   1.047
 4073TIP3   OH212154   7.865   3.865   1.567
 4073TIP3    H112155   7.856   3.848   1.660
 4073TIP3    H212156   7.869   3.778   1.527
 4074TIP3   OH212157   6.963   3.870   0.892
 4074TIP3    H112158   6.900   3.824   0.837
 4074TIP3    H212159   7.020   3.916   0.830
 4075TIP3   OH212160   8.086   5.567   1.874
 4075TIP3    H112161   8.099   5.568   1.779
 4075TIP3    H212162   8.138   5.640   1.907
 4076TIP3   OH212163   7.027   4.668   2.262
 4076TIP3    H112164   7.108   4.692   2.307
 4076TIP3    H212165   6.958   4.680   2.327
 4077TIP3   OH212166   7.481   4.134   1.529
 4077TIP3    H112167   7.519   4.070   1.469
 4077TIP3    H212168   7.481   4.090   1.614
 4078TIP3   OH212169   6.987   3.618   1.403
 4078TIP3    H112170   6.950   3.540   1.443
 4078TIP3    H212171   7.018   3.589   1.318
 4079TIP3   OH212172   7.453   4.033   1.798
 4079TIP3    H112173   7.364   4.065   1.812
 4079TIP3    H212174   7.507   4.084   1.858
 4080TIP3   OH212175   7.195   4.338   0.975
 4080TIP3    H112176   7.113   4.305   0.938
 4080TIP3    H212177   7.170   4.421   1.017
 4081TIP3   OH212178   8.071   4.627   1.503
 4081TIP3    H112179   8.107   4.635   1.415
 4081TIP3    H212180   7.985   4.586   1.491
 4082TIP3   OH212181   7.674   3.700   0.792
 4082TIP3    H112182   7.585   3.667   0.803
 4082TIP3    H212183   7.663   3.782   0.744
 4083TIP3   OH212184   7.600   4.738   1.926
 4083TIP3    H112185   7.640   4.732   2.012
 4083TIP3    H212186   7.561   4.825   1.922
 4084TIP3   OH212187   7.757   4.009   0.885
 4084TIP3    H112188   7.847   4.010   0.852
 4084TIP3    H212189   7.709   4.065   0.824
 4085TIP3   OH212190   6.877   4.405   1.561
 4085TIP3    H112191   6.914   4.387   1.475
 4085TIP3    H212192   6.947   4.382   1.622
 4086TIP3   OH212193   7.384   4.478   0.819
 4086TIP3    H112194   7.362   4.536   0.747
 4086TIP3    H212195   7.300   4.443   0.849
 4087TIP3   OH212196   6.767   4.336   2.186
 4087TIP3    H112197   6.766   4.308   2.278
 4087TIP3    H212198   6.692   4.291   2.147
 4088TIP3   OH212199   7.468   4.494   2.222
 4088TIP3    H112200   7.400   4.434   2.190
 4088TIP3    H212201   7.550   4.455   2.192
 4089TIP3   OH212202   7.749   5.006   1.810
 4089TIP3    H112203   7.654   5.000   1.802
 4089TIP3    H212204   7.764   5.048   1.895
 4090TIP3   OH212205   7.830   4.505   1.444
 4090TIP3    H112206   7.737   4.488   1.463
 4090TIP3    H212207   7.859   4.429   1.394
 4091TIP3   OH212208   7.009   4.724   1.251
 4091TIP3    H112209   7.001   4.816   1.225
 4091TIP3    H212210   6.919   4.693   1.257
 4092TIP3   OH212211   6.575   4.022   0.950
 4092TIP3    H112212   6.622   4.100   0.979
 4092TIP3    H212213   6.492   4.025   0.997
 4093TIP3   OH212214   7.186   4.507   1.231
 4093TIP3    H112215   7.135   4.586   1.212
 4093TIP3    H212216   7.121   4.446   1.268
 4094TIP3   OH212217   7.294   5.067   1.684
 4094TIP3    H112218   7.326   5.144   1.636
 4094TIP3    H212219   7.370   5.035   1.732
 4095TIP3   OH212220   6.926   4.977   1.171
 4095TIP3    H112221   6.833   4.978   1.192
 4095TIP3    H212222   6.948   5.069   1.154
 4096TIP3   OH212223   7.645   4.723   1.656
 4096TIP3    H112224   7.630   4.724   1.750
 4096TIP3    H212225   7.732   4.684   1.645
 4097TIP3   OH212226   7.915   5.211   1.705
 4097TIP3    H112227   7.841   5.152   1.718
 4097TIP3    H212228   7.881   5.279   1.647
 4098TIP3   OH212229   6.976   3.868   2.193
 4098TIP3    H112230   6.881   3.879   2.197
 4098TIP3    H212231   7.000   3.830   2.277
 4099TIP3   OH212232   7.815   4.483   0.731
 4099TIP3    H112233   7.810   4.431   0.811
 4099TIP3    H212234   7.908   4.481   0.706
 4100TIP3   OH212235   6.718   4.980   1.844
 4100TIP3    H112236   6.776   4.924   1.896
 4100TIP3    H212237   6.735   5.068   1.877
 4101TIP3   OH212238   7.092   4.495   0.564
 4101TIP3    H112239   7.075   4.406   0.533
 4101TIP3    H212240   7.026   4.510   0.632
 4102TIP3   OH212241   6.907   4.570   0.755
 4102TIP3    H112242   6.966   4.570   0.831
 4102TIP3    H212243   6.882   4.662   0.745
 4103TIP3   OH212244   6.666   4.256   1.070
 4103TIP3    H112245   6.607   4.306   1.126
 4103TIP3    H212246   6.677   4.312   0.992
 4104TIP3   OH212247   7.835   3.835   1.837
 4104TIP3    H112248   7.829   3.929   1.852
 4104TIP3    H212249   7.792   3.797   1.914
 4105TIP3   OH212250   7.695   3.690   1.081
 4105TIP3    H112251   7.697   3.692   0.985
 4105TIP3    H212252   7.746   3.766   1.108
 4106TIP3   OH212253   7.200   4.709   0.728
 4106TIP3    H112254   7.165   4.796   0.708
 4106TIP3    H212255   7.216   4.670   0.642
 4107TIP3   OH212256   7.364   3.871   1.163
 4107TIP3    H112257   7.433   3.926   1.127
 4107TIP3    H212258   7.383   3.866   1.256
 4108TIP3   OH212259   7.616   4.160   1.979
 4108TIP3    H112260   7.619   4.232   2.042
 4108TIP3    H212261   7.697   4.111   1.994
 4109TIP3   OH212262   7.531   3.556   1.256
 4109TIP3    H112263   7.549   3.598   1.340
 4109TIP3    H212264   7.586   3.603   1.193
 4110TIP3   OH212265   6.921   4.798   0.968
 4110TIP3    H112266   6.906   4.839   0.883
 4110TIP3    H212267   6.936   4.872   1.027
 4111TIP3   OH212268   7.051   3.583   1.070
 4111TIP3    H112269   7.038   3.675   1.094
 4111TIP3    H212270   7.146   3.571   1.073
 4112TIP3   OH212271   7.910   4.255   1.343
 4112TIP3    H112272   7.826   4.216   1.321
 4112TIP3    H212273   7.926   4.228   1.433
 4113TIP3   OH212274   6.673   4.419   0.848
 4113TIP3    H112275   6.708   4.504   0.873
 4113TIP3    H212276   6.737   4.384   0.786
 4114TIP3   OH212277   6.605   3.749   0.933
 4114TIP3    H112278   6.612   3.843   0.947
 4114TIP3    H212279   6.575   3.740   0.843
 4115TIP3   OH212280   7.951   5.231   1.350
 4115TIP3    H112281   7.860   5.250   1.326
 4115TIP3    H212282   7.997   5.224   1.266
 4116TIP3   OH212283   6.990   3.480   1.773
 4116TIP3    H112284   6.953   3.444   1.693
 4116TIP3    H212285   6.994   3.406   1.833
 4117TIP3   OH212286   6.526   4.710   1.242
 4117TIP3    H112287   6.487   4.752   1.319
 4117TIP3    H212288   6.474   4.742   1.169
 4118TIP3   OH212289   6.721   5.276   2.260
 4118TIP3    H112290   6.804   5.281   2.309
 4118TIP3    H212291   6.709   5.183   2.242
 4119TIP3   OH212292   7.186   5.179   2.310
 4119TIP3    H112293   7.278   5.156   2.311
 4119TIP3    H212294   7.149   5.129   2.237
 4120TIP3   OH212295   7.778   5.114   2.057
 4120TIP3    H112296   7.798   5.051   2.125
 4120TIP3    H212297   7.848   5.179   2.062
 4121TIP3   OH212298   6.821   4.674   2.451
 4121TIP3    H112299   6.839   4.580   2.463
 4121TIP3    H212300   6.735   4.676   2.410
 4122TIP3   OH212301   6.823   4.272   0.668
 4122TIP3    H112302   6.882   4.249   0.739
 4122TIP3    H212303   6.880   4.288   0.593
 4123TIP3   OH212304   7.444   4.768   2.228
 4123TIP3    H112305   7.395   4.790   2.148
 4123TIP3    H212306   7.464   4.674   2.218
 4124TIP3   OH212307   7.385   4.480   0.456
 4124TIP3    H112308   7.441   4.526   0.517
 4124TIP3    H212309   7.371   4.394   0.497
 4125TIP3   OH212310   7.921   4.791   1.850
 4125TIP3    H112311   7.999   4.811   1.799
 4125TIP3    H212312   7.860   4.862   1.830
 4126TIP3   OH212313   6.937   4.418   2.461
 4126TIP3    H112314   7.011   4.403   2.403
 4126TIP3    H212315   6.976   4.438   2.546
 4127TIP3   OH212316   6.982   4.197   0.877
 4127TIP3    H112317   6.961   4.165   0.965
 4127TIP3    H212318   7.034   4.128   0.837
 4128TIP3   OH212319   7.296   4.301   2.109
 4128TIP3    H112320   7.209   4.341   2.115
 4128TIP3    H212321   7.332   4.333   2.026
 4129TIP3   OH212322   7.127   4.012   0.728
 4129TIP3    H112323   7.103   4.018   0.635
 4129TIP3    H212324   7.223   4.015   0.728
 4130TIP3   OH212325   7.797   4.666   2.224
 4130TIP3    H112326   7.862   4.632   2.162
 4130TIP3    H212327   7.790   4.598   2.290
 4131TIP3   OH212328   7.391   4.069   2.222
 4131TIP3    H112329   7.398   3.999   2.157
 4131TIP3    H212330   7.362   4.145   2.172
 4132TIP3   OH212331   7.404   3.864   2.024
 4132TIP3    H112332   7.433   3.904   1.943
 4132TIP3    H212333   7.312   3.842   2.009
 4133TIP3   OH212334   7.419   4.405   1.890
 4133TIP3    H112335   7.506   4.421   1.854
 4133TIP3    H212336   7.362   4.467   1.844
 4134TIP3   OH212337   7.953   4.331   2.261
 4134TIP3    H112338   7.940   4.238   2.241
 4134TIP3    H212339   8.046   4.346   2.243
 4135TIP3   OH212340   7.986   4.601   2.029
 4135TIP3    H112341   7.956   4.671   1.971
 4135TIP3    H212342   8.075   4.581   1.999
 4136TIP3   OH212343   7.279   4.151   2.465
 4136TIP3    H112344   7.209   4.089   2.484
 4136TIP3    H212345   7.306   4.131   2.375
 4137TIP3   OH212346   7.499   3.630   2.143
 4137TIP3    H112347   7.463   3.710   2.106
 4137TIP3    H212348   7.434   3.563   2.121
 4138TIP3   OH212349   7.644   4.116   2.324
 4138TIP3    H112350   7.637   4.098   2.418
 4138TIP3    H212351   7.558   4.095   2.289
 4139TIP3   OH212352   7.869   4.085   2.169
 4139TIP3    H112353   7.787   4.085   2.218
 4139TIP3    H212354   7.927   4.030   2.221
 4140TIP3   OH212355   8.006   3.970   2.369
 4140TIP3    H112356   8.067   3.899   2.391
 4140TIP3    H212357   7.971   3.999   2.454
 4141TIP3   OH212358   7.117   3.927   2.526
 4141TIP3    H112359   7.126   3.838   2.491
 4141TIP3    H212360   7.155   3.922   2.614
 4142TIP3   OH212361   7.609   3.604   2.392
 4142TIP3    H112362   7.678   3.539   2.378
 4142TIP3    H212363   7.566   3.611   2.306
 4143TIP3   OH212364   7.686   3.830   2.531
 4143TIP3    H112365   7.661   3.756   2.476
 4143TIP3    H212366   7.611   3.889   2.527
 4144TIP3   OH212367   6.891   5.068   0.521
 4144TIP3    H112368   6.962   5.049   0.460
 4144TIP3    H212369   6.930   5.125   0.587
 4145TIP3   OH212370   6.405   4.419   0.908
 4145TIP3    H112371   6.499   4.424   0.889
 4145TIP3    H212372   6.376   4.340   0.863
 4146TIP3   OH212373   6.322   5.043   1.299
 4146TIP3    H112374   6.253   4.989   1.259
 4146TIP3    H212375   6.369   4.983   1.357
 4147TIP3   OH212376   6.462   4.872   1.466
 4147TIP3    H112377   6.455   4.809   1.538
 4147TIP3    H212378   6.514   4.943   1.501
 4148TIP3   OH212379   8.236   5.294   1.552
 4148TIP3    H112380   8.195   5.211   1.526
 4148TIP3    H212381   8.220   5.300   1.646
 4149TIP3   OH212382   8.141   5.054   2.022
 4149TIP3    H112383   8.171   5.120   2.085
 4149TIP3    H212384   8.151   5.096   1.937
 4150TIP3   OH212385   8.095   5.056   1.562
 4150TIP3    H112386   8.027   5.107   1.606
 4150TIP3    H212387   8.054   5.025   1.482
 4151TIP3   OH212388   7.990   4.174   1.092
 4151TIP3    H112389   8.079   4.205   1.072
 4151TIP3    H212390   7.972   4.209   1.179
 4152TIP3   OH212391   6.637   4.310   1.826
 4152TIP3    H112392   6.628   4.282   1.735
 4152TIP3    H212393   6.732   4.308   1.842
 4153TIP3   OH212394   6.856   3.991   2.467
 4153TIP3    H112395   6.950   3.989   2.487
 4153TIP3    H212396   6.821   3.912   2.507
 4154TIP3   OH212397   6.834   3.708   1.828
 4154TIP3    H112398   6.888   3.630   1.819
 4154TIP3    H212399   6.894   3.781   1.810
 4155TIP3   OH212400   6.612   3.969   1.878
 4155TIP3    H112401   6.665   3.967   1.799
 4155TIP3    H212402   6.625   4.057   1.914
 4156TIP3   OH212403   6.588   3.447   1.367
 4156TIP3    H112404   6.507   3.451   1.417
 4156TIP3    H212405   6.578   3.514   1.299
 4157TIP3   OH212406   7.736   5.147   0.977
 4157TIP3    H112407   7.680   5.110   0.908
 4157TIP3    H212408   7.742   5.240   0.955
 4158TIP3   OH212409   6.809   3.511   2.186
 4158TIP3    H112410   6.770   3.521   2.273
 4158TIP3    H212411   6.763   3.575   2.132
 4159TIP3   OH212412   6.850   4.994   2.276
 4159TIP3    H112413   6.757   4.973   2.266
 4159TIP3    H212414   6.867   4.985   2.369
 4160TIP3   OH212415   7.068   5.036   1.835
 4160TIP3    H112416   7.015   5.107   1.800
 4160TIP3    H212417   7.152   5.045   1.791
 4161TIP3   OH212418   7.465   5.261   1.971
 4161TIP3    H112419   7.500   5.260   2.060
 4161TIP3    H212420   7.529   5.312   1.920
 4162TIP3   OH212421   7.659   5.414   1.851
 4162TIP3    H112422   7.713   5.383   1.778
 4162TIP3    H212423   7.716   5.474   1.899
 4163TIP3   OH212424   6.722   5.268   1.884
 4163TIP3    H112425   6.632   5.291   1.857
 4163TIP3    H212426   6.748   5.341   1.941
 4164TIP3   OH212427   6.953   5.256   1.729
 4164TIP3    H112428   6.869   5.269   1.774
 4164TIP3    H212429   6.935   5.279   1.638
 4165TIP3   OH212430   7.390   5.284   1.544
 4165TIP3    H112431   7.318   5.313   1.487
 4165TIP3    H212432   7.415   5.362   1.592
 4166TIP3   OH212433   7.647   5.205   1.580
 4166TIP3    H112434   7.554   5.221   1.565
 4166TIP3    H212435   7.692   5.264   1.519
 4167TIP3   OH212436   7.856   5.419   1.536
 4167TIP3    H112437   7.872   5.509   1.509
 4167TIP3    H212438   7.892   5.366   1.465
 4168TIP3   OH212439   6.629   5.065   1.595
 4168TIP3    H112440   6.657   5.045   1.684
 4168TIP3    H212441   6.701   5.035   1.540
 4169TIP3   OH212442   6.828   4.936   1.466
 4169TIP3    H112443   6.841   4.850   1.507
 4169TIP3    H212444   6.914   4.977   1.468
 4170TIP3   OH212445   7.097   5.000   1.500
 4170TIP3    H112446   7.119   4.907   1.488
 4170TIP3    H212447   7.157   5.031   1.567
 4171TIP3   OH212448   7.584   3.634   1.516
 4171TIP3    H112449   7.561   3.584   1.594
 4171TIP3    H212450   7.679   3.626   1.510
 4172TIP3   OH212451   6.873   3.379   1.500
 4172TIP3    H112452   6.798   3.352   1.553
 4172TIP3    H212453   6.845   3.362   1.410
 4173TIP3   OH212454   6.781   3.298   1.245
 4173TIP3    H112455   6.795   3.333   1.157
 4173TIP3    H212456   6.704   3.345   1.277
 4174TIP3   OH212457   7.337   3.420   1.450
 4174TIP3    H112458   7.382   3.462   1.376
 4174TIP3    H212459   7.385   3.449   1.527
 4175TIP3   OH212460   7.849   3.586   1.456
 4175TIP3    H112461   7.868   3.586   1.362
 4175TIP3    H212462   7.871   3.497   1.485
 4176TIP3   OH212463   6.385   4.809   1.033
 4176TIP3    H112464   6.295   4.781   1.016
 4176TIP3    H212465   6.387   4.901   1.008
 4177TIP3   OH212466   6.840   3.414   0.995
 4177TIP3    H112467   6.879   3.355   0.931
 4177TIP3    H212468   6.911   3.474   1.019
 4178TIP3   OH212469   7.324   3.614   1.079
 4178TIP3    H112470   7.389   3.570   1.134
 4178TIP3    H212471   7.335   3.707   1.099
 4179TIP3   OH212472   7.137   3.656   2.437
 4179TIP3    H112473   7.104   3.591   2.499
 4179TIP3    H212474   7.230   3.665   2.460
 4180TIP3   OH212475   7.386   3.663   2.563
 4180TIP3    H112476   7.465   3.638   2.515
 4180TIP3    H212477   7.377   3.595   2.630
 4181TIP3   OH212478   6.483   4.836   0.637
 4181TIP3    H112479   6.428   4.907   0.605
 4181TIP3    H212480   6.544   4.819   0.565
 4182TIP3   OH212481   8.137   5.290   1.839
 4182TIP3    H112482   8.056   5.264   1.794
 4182TIP3    H212483   8.128   5.385   1.850
 4183TIP3   OH212484   0.068   5.207   2.851
 4183TIP3    H112485   0.029   5.290   2.824
 4183TIP3    H212486   0.007   5.140   2.818
 4184TIP3   OH212487   0.129   5.179   3.120
 4184TIP3    H112488   0.067   5.237   3.162
 4184TIP3    H212489   0.107   5.183   3.027
 4185TIP3   OH212490   0.320   5.503   2.878
 4185TIP3    H112491   0.338   5.436   2.944
 4185TIP3    H212492   0.349   5.585   2.919
 4186TIP3   OH212493   8.485   5.991   2.894
 4186TIP3    H112494   8.536   5.915   2.868
 4186TIP3    H212495   8.398   5.956   2.916
 4187TIP3   OH212496   8.461   5.342   3.270
 4187TIP3    H112497   8.396   5.342   3.200
 4187TIP3    H212498   8.475   5.435   3.289
 4188TIP3   OH212499   0.900   4.741   3.237
 4188TIP3    H112500   0.919   4.825   3.280
 4188TIP3    H212501   0.927   4.755   3.146
 4189TIP3   OH212502   0.275   4.904   3.260
 4189TIP3    H112503   0.317   4.820   3.277
 4189TIP3    H212504   0.256   4.902   3.166
 4190TIP3   OH212505   0.347   4.661   2.853
 4190TIP3    H112506   0.409   4.653   2.925
 4190TIP3    H212507   0.398   4.697   2.780
 4191TIP3   OH212508   0.961   4.953   3.412
 4191TIP3    H112509   0.878   4.999   3.398
 4191TIP3    H212510   0.998   4.994   3.490
 4192TIP3   OH212511   8.426   5.401   2.716
 4192TIP3    H112512   8.361   5.401   2.646
 4192TIP3    H212513   8.498   5.453   2.682
 4193TIP3   OH212514   0.498   4.683   3.079
 4193TIP3    H112515   0.459   4.664   3.164
 4193TIP3    H212516   0.556   4.757   3.095
 4194TIP3   OH212517   0.365   5.751   3.001
 4194TIP3    H112518   0.274   5.745   3.029
 4194TIP3    H212519   0.376   5.843   2.976
 4195TIP3   OH212520   0.694   4.629   3.398
 4195TIP3    H112521   0.611   4.670   3.377
 4195TIP3    H212522   0.755   4.661   3.332
 4196TIP3   OH212523   0.012   4.288   3.391
 4196TIP3    H112524   0.005   4.200   3.355
 4196TIP3    H212525   0.028   4.275   3.484
 4197TIP3   OH212526   0.053   5.771   2.717
 4197TIP3    H112527   0.081   5.680   2.705
 4197TIP3    H212528   0.124   5.823   2.679
 4198TIP3   OH212529   0.165   5.526   2.654
 4198TIP3    H112530   0.214   5.484   2.584
 4198TIP3    H212531   0.221   5.516   2.732
 4199TIP3   OH212532   0.600   5.650   3.386
 4199TIP3    H112533   0.582   5.575   3.330
 4199TIP3    H212534   0.587   5.726   3.329
 4200TIP3   OH212535   8.410   5.055   2.677
 4200TIP3    H112536   8.331   5.108   2.687
 4200TIP3    H212537   8.439   5.072   2.588
 4201TIP3   OH212538   8.401   4.780   2.413
 4201TIP3    H112539   8.440   4.866   2.431
 4201TIP3    H212540   8.460   4.739   2.351
 4202TIP3   OH212541   0.790   5.302   3.243
 4202TIP3    H112542   0.706   5.348   3.247
 4202TIP3    H212543   0.822   5.319   3.155
 4203TIP3   OH212544   0.241   5.156   2.626
 4203TIP3    H112545   0.193   5.180   2.705
 4203TIP3    H212546   0.324   5.121   2.658
 4204TIP3   OH212547   0.536   5.185   3.550
 4204TIP3    H112548   0.514   5.261   3.603
 4204TIP3    H212549   0.452   5.150   3.522
 4205TIP3   OH212550   0.101   5.773   3.083
 4205TIP3    H112551   0.108   5.864   3.112
 4205TIP3    H212552   0.092   5.723   3.163
 4206TIP3   OH212553   0.086   4.998   2.455
 4206TIP3    H112554   0.138   5.064   2.500
 4206TIP3    H212555   0.115   5.001   2.364
 4207TIP3   OH212556   0.596   4.226   2.488
 4207TIP3    H112557   0.517   4.249   2.537
 4207TIP3    H212558   0.607   4.297   2.425
 4208TIP3   OH212559   0.403   5.585   2.046
 4208TIP3    H112560   0.402   5.678   2.023
 4208TIP3    H212561   0.493   5.558   2.030
 4209TIP3   OH212562   0.831   6.010   3.449
 4209TIP3    H112563   0.838   5.916   3.462
 4209TIP3    H212564   0.751   6.035   3.497
 4210TIP3   OH212565   8.413   5.838   2.147
 4210TIP3    H112566   8.473   5.782   2.097
 4210TIP3    H212567   8.459   5.853   2.230
 4211TIP3   OH212568   0.023   5.861   2.399
 4211TIP3    H112569  -0.025   5.781   2.421
 4211TIP3    H212570   0.099   5.859   2.458
 4212TIP3   OH212571   0.724   5.125   3.742
 4212TIP3    H112572   0.656   5.139   3.676
 4212TIP3    H212573   0.747   5.032   3.733
 4213TIP3   OH212574   0.325   4.479   3.707
 4213TIP3    H112575   0.402   4.451   3.756
 4213TIP3    H212576   0.255   4.486   3.772
 4214TIP3   OH212577   0.495   4.877   3.575
 4214TIP3    H112578   0.482   4.872   3.669
 4214TIP3    H212579   0.438   4.947   3.546
 4215TIP3   OH212580   0.190   4.978   2.201
 4215TIP3    H112581   0.140   4.975   2.120
 4215TIP3    H212582   0.268   5.030   2.181
 4216TIP3   OH212583   8.398   4.399   2.454
 4216TIP3    H112584   8.342   4.407   2.532
 4216TIP3    H212585   8.366   4.321   2.410
 4217TIP3   OH212586   0.037   4.842   2.782
 4217TIP3    H112587  -0.007   4.921   2.752
 4217TIP3    H212588   0.091   4.814   2.708
 4218TIP3   OH212589   0.255   5.122   3.852
 4218TIP3    H112590   0.239   5.032   3.878
 4218TIP3    H212591   0.348   5.137   3.871
 4219TIP3   OH212592   0.217   4.863   2.991
 4219TIP3    H112593   0.149   4.881   2.925
 4219TIP3    H212594   0.264   4.787   2.957
 4220TIP3   OH212595   0.303   5.057   3.486
 4220TIP3    H112596   0.287   5.007   3.406
 4220TIP3    H212597   0.253   5.137   3.476
 4221TIP3   OH212598   8.438   4.531   3.146
 4221TIP3    H112599   8.374   4.536   3.217
 4221TIP3    H212600   8.523   4.533   3.191
 4222TIP3   OH212601   0.369   4.651   3.323
 4222TIP3    H112602   0.346   4.672   3.414
 4222TIP3    H212603   0.306   4.584   3.297
 4223TIP3   OH212604   0.563   6.350   3.546
 4223TIP3    H112605   0.557   6.363   3.452
 4223TIP3    H212606   0.640   6.400   3.572
 4224TIP3   OH212607  -0.013   4.835   3.150
 4224TIP3    H112608   0.066   4.850   3.098
 4224TIP3    H212609   0.018   4.800   3.233
 4225TIP3   OH212610   8.493   4.764   3.423
 4225TIP3    H112611   8.443   4.846   3.417
 4225TIP3    H212612   8.575   4.789   3.466
 4226TIP3   OH212613   0.563   5.450   3.205
 4226TIP3    H112614   0.601   5.501   3.133
 4226TIP3    H212615   0.487   5.408   3.167
 4227TIP3   OH212616   0.144   4.503   2.495
 4227TIP3    H112617   0.053   4.484   2.475
 4227TIP3    H212618   0.150   4.599   2.494
 4228TIP3   OH212619   0.029   5.493   3.576
 4228TIP3    H112620   0.064   5.533   3.655
 4228TIP3    H212621  -0.061   5.525   3.570
 4229TIP3   OH212622   0.196   4.769   2.567
 4229TIP3    H112623   0.291   4.777   2.575
 4229TIP3    H212624   0.170   4.845   2.516
 4230TIP3   OH212625   8.232   5.370   2.504
 4230TIP3    H112626   8.148   5.414   2.489
 4230TIP3    H212627   8.209   5.278   2.509
 4231TIP3   OH212628   0.019   5.325   3.911
 4231TIP3    H112629  -0.060   5.296   3.866
 4231TIP3    H212630   0.087   5.263   3.884
 4232TIP3   OH212631   0.232   5.776   3.577
 4232TIP3    H112632   0.141   5.757   3.601
 4232TIP3    H212633   0.257   5.849   3.635
 4233TIP3   OH212634   0.597   4.853   2.386
 4233TIP3    H112635   0.539   4.810   2.323
 4233TIP3    H212636   0.605   4.943   2.353
 4234TIP3   OH212637   0.848   5.734   3.470
 4234TIP3    H112638   0.754   5.716   3.469
 4234TIP3    H212639   0.880   5.701   3.386
 4235TIP3   OH212640   0.346   5.660   2.310
 4235TIP3    H112641   0.322   5.582   2.359
 4235TIP3    H212642   0.363   5.629   2.221
 4236TIP3   OH212643   0.372   5.304   3.071
 4236TIP3    H112644   0.286   5.276   3.104
 4236TIP3    H212645   0.411   5.224   3.037
 4237TIP3   OH212646   0.244   5.536   3.308
 4237TIP3    H112647   0.150   5.550   3.320
 4237TIP3    H212648   0.261   5.452   3.352
 4238TIP3   OH212649   0.135   5.436   2.250
 4238TIP3    H112650   0.196   5.419   2.322
 4238TIP3    H212651   0.057   5.385   2.273
 4239TIP3   OH212652   0.360   6.067   3.375
 4239TIP3    H112653   0.325   5.982   3.350
 4239TIP3    H212654   0.356   6.119   3.294
 4240TIP3   OH212655   0.407   5.858   2.016
 4240TIP3    H112656   0.424   5.908   1.936
 4240TIP3    H212657   0.344   5.912   2.064
 4241TIP3   OH212658   0.299   5.374   2.459
 4241TIP3    H112659   0.270   5.298   2.509
 4241TIP3    H212660   0.391   5.357   2.440
 4242TIP3   OH212661   0.272   4.715   3.577
 4242TIP3    H112662   0.356   4.759   3.591
 4242TIP3    H212663   0.281   4.632   3.624
 4243TIP3   OH212664   0.161   4.478   2.765
 4243TIP3    H112665   0.159   4.491   2.671
 4243TIP3    H212666   0.226   4.542   2.796
 4244TIP3   OH212667   0.108   4.928   3.665
 4244TIP3    H112668   0.164   5.000   3.637
 4244TIP3    H212669   0.162   4.849   3.653
 4245TIP3   OH212670   0.021   4.346   2.958
 4245TIP3    H112671  -0.004   4.423   3.008
 4245TIP3    H212672   0.082   4.379   2.891
 4246TIP3   OH212673   0.763   4.870   3.626
 4246TIP3    H112674   0.669   4.862   3.608
 4246TIP3    H212675   0.804   4.842   3.544
 4247TIP3   OH212676   0.438   5.043   2.998
 4247TIP3    H112677   0.356   4.996   3.010
 4247TIP3    H212678   0.500   5.001   3.058
 4248TIP3   OH212679   0.399   6.022   2.957
 4248TIP3    H112680   0.361   6.060   2.879
 4248TIP3    H212681   0.494   6.034   2.945
 4249TIP3   OH212682   0.275   5.966   3.763
 4249TIP3    H112683   0.231   5.952   3.847
 4249TIP3    H212684   0.354   6.015   3.785
 4250TIP3   OH212685   0.078   5.636   2.051
 4250TIP3    H112686   0.123   5.586   2.120
 4250TIP3    H212687   0.135   5.627   1.975
 4251TIP3   OH212688   8.232   5.264   2.178
 4251TIP3    H112689   8.252   5.354   2.153
 4251TIP3    H212690   8.316   5.218   2.168
 4252TIP3   OH212691   0.423   5.586   3.589
 4252TIP3    H112692   0.482   5.608   3.517
 4252TIP3    H212693   0.345   5.641   3.573
 4253TIP3   OH212694   8.084   4.864   2.488
 4253TIP3    H112695   7.998   4.889   2.453
 4253TIP3    H212696   8.128   4.822   2.414
 4254TIP3   OH212697   0.338   5.446   3.937
 4254TIP3    H112698   0.399   5.408   3.873
 4254TIP3    H212699   0.328   5.379   4.004
 4255TIP3   OH212700   0.388   5.126   2.077
 4255TIP3    H112701   0.378   5.080   1.993
 4255TIP3    H212702   0.350   5.212   2.061
 4256TIP3   OH212703   8.397   4.566   3.601
 4256TIP3    H112704   8.432   4.605   3.521
 4256TIP3    H212705   8.363   4.640   3.651
 4257TIP3   OH212706   8.362   5.204   3.501
 4257TIP3    H112707   8.428   5.145   3.464
 4257TIP3    H212708   8.370   5.284   3.450
 4258TIP3   OH212709   0.523   5.117   3.955
 4258TIP3    H112710   0.549   5.027   3.974
 4258TIP3    H212711   0.593   5.152   3.899
 4259TIP3   OH212712   0.529   5.392   3.736
 4259TIP3    H112713   0.476   5.456   3.689
 4259TIP3    H212714   0.617   5.404   3.701
 4260TIP3   OH212715   0.050   4.399   3.756
 4260TIP3    H112716   0.001   4.460   3.702
 4260TIP3    H212717  -0.009   4.324   3.767
 4261TIP3   OH212718   0.214   4.873   3.963
 4261TIP3    H112719   0.226   4.874   4.058
 4261TIP3    H212720   0.163   4.794   3.946
 4262TIP3   OH212721   0.445   4.834   3.831
 4262TIP3    H112722   0.362   4.840   3.878
 4262TIP3    H212723   0.509   4.812   3.898
 4263TIP3   OH212724   0.625   4.804   4.033
 4263TIP3    H112725   0.631   4.709   4.045
 4263TIP3    H212726   0.615   4.838   4.122
 4264TIP3   OH212727   0.210   4.458   3.968
 4264TIP3    H112728   0.248   4.372   3.988
 4264TIP3    H212729   0.135   4.439   3.912
 4265TIP3   OH212730   0.210   4.648   4.159
 4265TIP3    H112731   0.215   4.581   4.091
 4265TIP3    H212732   0.122   4.638   4.195
 4266TIP3   OH212733   0.667   6.072   2.947
 4266TIP3    H112734   0.685   6.101   3.036
 4266TIP3    H212735   0.721   6.127   2.892
 4267TIP3   OH212736   0.676   6.100   3.228
 4267TIP3    H112737   0.625   6.019   3.221
 4267TIP3    H212738   0.743   6.079   3.293
 4268TIP3   OH212739   0.739   5.807   3.782
 4268TIP3    H112740   0.649   5.810   3.816
 4268TIP3    H212741   0.772   5.896   3.794
 4269TIP3   OH212742   0.562   5.319   2.408
 4269TIP3    H112743   0.619   5.388   2.375
 4269TIP3    H212744   0.611   5.278   2.479
 4270TIP3   OH212745   0.688   5.174   2.604
 4270TIP3    H112746   0.619   5.139   2.660
 4270TIP3    H212747   0.751   5.212   2.665
 4271TIP3   OH212748   0.729   5.587   3.034
 4271TIP3    H112749   0.781   5.517   2.993
 4271TIP3    H212750   0.733   5.659   2.972
 4272TIP3   OH212751   0.540   5.856   3.207
 4272TIP3    H112752   0.454   5.854   3.249
 4272TIP3    H212753   0.525   5.816   3.121
 4273TIP3   OH212754   0.595   5.094   2.253
 4273TIP3    H112755   0.526   5.098   2.187
 4273TIP3    H212756   0.582   5.172   2.307
 4274TIP3   OH212757   0.443   4.748   2.190
 4274TIP3    H112758   0.402   4.785   2.111
 4274TIP3    H212759   0.424   4.654   2.184
 4275TIP3   OH212760   0.474   5.038   2.727
 4275TIP3    H112761   0.482   4.944   2.710
 4275TIP3    H212762   0.468   5.044   2.823
 4276TIP3   OH212763   0.763   5.452   3.606
 4276TIP3    H112764   0.827   5.383   3.585
 4276TIP3    H212765   0.761   5.507   3.528
 4277TIP3   OH212766   0.931   5.235   3.594
 4277TIP3    H112767   0.861   5.200   3.649
 4277TIP3    H212768   1.008   5.181   3.614
 4278TIP3   OH212769   0.389   4.482   2.182
 4278TIP3    H112770   0.455   4.448   2.243
 4278TIP3    H212771   0.310   4.433   2.205
 4279TIP3   OH212772   0.481   4.764   2.624
 4279TIP3    H112773   0.523   4.678   2.635
 4279TIP3    H212774   0.522   4.801   2.546
 4280TIP3   OH212775   0.630   4.916   3.155
 4280TIP3    H112776   0.711   4.935   3.106
 4280TIP3    H212777   0.643   4.957   3.240
 4281TIP3   OH212778   0.715   5.072   3.372
 4281TIP3    H112779   0.652   5.103   3.436
 4281TIP3    H212780   0.743   5.151   3.325
 4282TIP3   OH212781   1.163   4.674   3.919
 4282TIP3    H112782   1.223   4.614   3.876
 4282TIP3    H212783   1.123   4.723   3.847
 4283TIP3   OH212784   0.580   4.508   2.675
 4283TIP3    H112785   0.627   4.489   2.757
 4283TIP3    H212786   0.515   4.439   2.668
 4284TIP3   OH212787   1.012   4.781   3.720
 4284TIP3    H112788   0.929   4.824   3.743
 4284TIP3    H212789   0.986   4.705   3.669
 4285TIP3   OH212790   0.641   4.407   2.280
 4285TIP3    H112791   0.644   4.401   2.185
 4285TIP3    H212792   0.692   4.486   2.300
 4286TIP3   OH212793   0.224   5.937   2.587
 4286TIP3    H112794   0.287   5.936   2.515
 4286TIP3    H212795   0.254   6.006   2.645
 4287TIP3   OH212796   0.173   6.206   3.529
 4287TIP3    H112797   0.238   6.156   3.480
 4287TIP3    H212798   0.224   6.271   3.577
 4288TIP3   OH212799   0.919   4.537   3.617
 4288TIP3    H112800   0.829   4.528   3.584
 4288TIP3    H212801   0.956   4.449   3.611
 4289TIP3   OH212802   0.107   6.039   3.168
 4289TIP3    H112803   0.049   6.077   3.103
 4289TIP3    H212804   0.178   6.103   3.176
 4290TIP3   OH212805   0.330   6.217   3.141
 4290TIP3    H112806   0.312   6.298   3.093
 4290TIP3    H212807   0.354   6.154   3.073
 4291TIP3   OH212808   0.179   4.465   3.260
 4291TIP3    H112809   0.122   4.402   3.303
 4291TIP3    H212810   0.232   4.412   3.200
 4292TIP3   OH212811   0.637   4.378   3.131
 4292TIP3    H112812   0.674   4.428   3.058
 4292TIP3    H212813   0.546   4.407   3.136
 4293TIP3   OH212814   0.746   4.450   2.889
 4293TIP3    H112815   0.819   4.397   2.856
 4293TIP3    H212816   0.779   4.539   2.888
 4294TIP3   OH212817   8.353   4.229   3.142
 4294TIP3    H112818   8.424   4.281   3.103
 4294TIP3    H212819   8.398   4.155   3.182
 4295TIP3   OH212820   0.353   4.313   3.113
 4295TIP3    H112821   0.391   4.272   3.035
 4295TIP3    H212822   0.357   4.244   3.180
 4296TIP3   OH212823   0.393   4.300   2.666
 4296TIP3    H112824   0.307   4.342   2.671
 4296TIP3    H212825   0.383   4.219   2.716
 4297TIP3   OH212826   0.375   5.927   2.360
 4297TIP3    H112827   0.374   5.833   2.344
 4297TIP3    H212828   0.334   5.966   2.283
 4298TIP3   OH212829   0.673   4.534   4.047
 4298TIP3    H112830   0.691   4.506   4.137
 4298TIP3    H212831   0.759   4.533   4.004
 4299TIP3   OH212832   0.582   6.076   3.548
 4299TIP3    H112833   0.505   6.054   3.496
 4299TIP3    H212834   0.576   6.171   3.561
 4300TIP3   OH212835   1.854   5.462   2.286
 4300TIP3    H112836   1.821   5.549   2.263
 4300TIP3    H212837   1.783   5.403   2.260
 4301TIP3   OH212838   1.841   5.460   2.706
 4301TIP3    H112839   1.893   5.440   2.784
 4301TIP3    H212840   1.800   5.377   2.683
 4302TIP3   OH212841   1.151   5.317   3.055
 4302TIP3    H112842   1.190   5.266   3.126
 4302TIP3    H212843   1.225   5.342   3.001
 4303TIP3   OH212844   2.119   5.771   2.392
 4303TIP3    H112845   2.115   5.702   2.458
 4303TIP3    H212846   2.151   5.847   2.440
 4304TIP3   OH212847   1.141   5.743   2.742
 4304TIP3    H112848   1.123   5.649   2.747
 4304TIP3    H212849   1.235   5.749   2.731
 4305TIP3   OH212850   0.831   4.946   2.524
 4305TIP3    H112851   0.794   5.031   2.549
 4305TIP3    H212852   0.758   4.900   2.483
 4306TIP3   OH212853   0.912   5.264   2.745
 4306TIP3    H112854   0.962   5.187   2.772
 4306TIP3    H212855   0.978   5.330   2.723
 4307TIP3   OH212856   1.780   6.191   2.395
 4307TIP3    H112857   1.805   6.130   2.326
 4307TIP3    H212858   1.785   6.140   2.476
 4308TIP3   OH212859   1.657   5.681   2.713
 4308TIP3    H112860   1.702   5.601   2.686
 4308TIP3    H212861   1.727   5.740   2.742
 4309TIP3   OH212862   2.681   4.972   2.718
 4309TIP3    H112863   2.683   5.059   2.757
 4309TIP3    H212864   2.708   4.987   2.627
 4310TIP3   OH212865   2.057   5.169   2.749
 4310TIP3    H112866   2.093   5.085   2.777
 4310TIP3    H212867   2.024   5.153   2.660
 4311TIP3   OH212868   1.423   4.828   2.710
 4311TIP3    H112869   1.402   4.902   2.653
 4311TIP3    H212870   1.368   4.757   2.679
 4312TIP3   OH212871   2.119   4.927   2.345
 4312TIP3    H112872   2.182   4.922   2.417
 4312TIP3    H212873   2.169   4.961   2.271
 4313TIP3   OH212874   1.047   5.041   2.838
 4313TIP3    H112875   1.130   5.024   2.882
 4313TIP3    H212876   1.051   4.989   2.758
 4314TIP3   OH212877   1.465   5.240   2.656
 4314TIP3    H112878   1.559   5.225   2.662
 4314TIP3    H212879   1.429   5.159   2.621
 4315TIP3   OH212880   1.404   4.829   3.160
 4315TIP3    H112881   1.354   4.865   3.087
 4315TIP3    H212882   1.350   4.844   3.237
 4316TIP3   OH212883   1.733   5.675   2.160
 4316TIP3    H112884   1.700   5.654   2.073
 4316TIP3    H212885   1.689   5.757   2.184
 4317TIP3   OH212886   1.497   5.604   2.926
 4317TIP3    H112887   1.443   5.676   2.960
 4317TIP3    H212888   1.545   5.643   2.852
 4318TIP3   OH212889   2.274   4.952   2.569
 4318TIP3    H112890   2.231   4.931   2.652
 4318TIP3    H212891   2.332   5.025   2.590
 4319TIP3   OH212892   1.293   4.938   2.931
 4319TIP3    H112893   1.348   5.013   2.954
 4319TIP3    H212894   1.341   4.896   2.859
 4320TIP3   OH212895   1.341   5.807   3.031
 4320TIP3    H112896   1.327   5.896   3.000
 4320TIP3    H212897   1.264   5.787   3.084
 4321TIP3   OH212898   0.725   5.508   2.291
 4321TIP3    H112899   0.691   5.523   2.203
 4321TIP3    H212900   0.747   5.595   2.324
 4322TIP3   OH212901   2.166   6.021   2.539
 4322TIP3    H112902   2.076   6.010   2.571
 4322TIP3    H212903   2.164   6.102   2.489
 4323TIP3   OH212904   2.502   4.858   2.903
 4323TIP3    H112905   2.419   4.902   2.885
 4323TIP3    H212906   2.561   4.889   2.834
 4324TIP3   OH212907   1.744   4.520   2.889
 4324TIP3    H112908   1.738   4.429   2.916
 4324TIP3    H212909   1.667   4.562   2.930
 4325TIP3   OH212910   1.864   6.044   2.174
 4325TIP3    H112911   1.917   5.964   2.166
 4325TIP3    H212912   1.923   6.114   2.148
 4326TIP3   OH212913   2.019   5.824   2.139
 4326TIP3    H112914   1.992   5.741   2.100
 4326TIP3    H212915   2.058   5.800   2.223
 4327TIP3   OH212916   2.425   5.897   2.869
 4327TIP3    H112917   2.405   5.825   2.809
 4327TIP3    H212918   2.409   5.976   2.818
 4328TIP3   OH212919   1.680   5.301   2.137
 4328TIP3    H112920   1.600   5.349   2.118
 4328TIP3    H212921   1.728   5.301   2.054
 4329TIP3   OH212922   1.652   5.108   1.828
 4329TIP3    H112923   1.717   5.158   1.877
 4329TIP3    H212924   1.702   5.042   1.780
 4330TIP3   OH212925   2.671   5.643   2.787
 4330TIP3    H112926   2.576   5.633   2.775
 4330TIP3    H212927   2.707   5.640   2.698
 4331TIP3   OH212928   2.039   5.393   2.097
 4331TIP3    H112929   1.984   5.420   2.171
 4331TIP3    H212930   2.121   5.367   2.137
 4332TIP3   OH212931   2.221   5.421   3.074
 4332TIP3    H112932   2.185   5.489   3.131
 4332TIP3    H212933   2.156   5.412   3.004
 4333TIP3   OH212934   1.267   5.373   2.504
 4333TIP3    H112935   1.232   5.313   2.439
 4333TIP3    H212936   1.341   5.327   2.544
 4334TIP3   OH212937   1.402   5.793   2.645
 4334TIP3    H112938   1.379   5.781   2.553
 4334TIP3    H212939   1.490   5.756   2.652
 4335TIP3   OH212940   1.363   5.369   2.879
 4335TIP3    H112941   1.402   5.333   2.800
 4335TIP3    H212942   1.412   5.450   2.895
 4336TIP3   OH212943   1.917   6.013   2.654
 4336TIP3    H112944   1.908   6.090   2.710
 4336TIP3    H212945   1.904   5.939   2.713
 4337TIP3   OH212946   1.540   5.904   3.199
 4337TIP3    H112947   1.480   5.962   3.246
 4337TIP3    H212948   1.484   5.853   3.140
 4338TIP3   OH212949   1.871   5.252   1.931
 4338TIP3    H112950   1.930   5.310   1.978
 4338TIP3    H212951   1.899   5.258   1.840
 4339TIP3   OH212952   1.296   5.453   3.345
 4339TIP3    H112953   1.300   5.547   3.362
 4339TIP3    H212954   1.202   5.433   3.338
 4340TIP3   OH212955   1.615   5.927   2.189
 4340TIP3    H112956   1.699   5.971   2.191
 4340TIP3    H212957   1.558   5.985   2.138
 4341TIP3   OH212958   1.331   6.062   3.287
 4341TIP3    H112959   1.305   6.073   3.195
 4341TIP3    H212960   1.248   6.047   3.333
 4342TIP3   OH212961   2.381   4.480   1.987
 4342TIP3    H112962   2.305   4.503   2.041
 4342TIP3    H212963   2.393   4.556   1.930
 4343TIP3   OH212964   1.142   5.214   2.305
 4343TIP3    H112965   1.068   5.264   2.272
 4343TIP3    H212966   1.105   5.128   2.327
 4344TIP3   OH212967   2.205   5.855   1.543
 4344TIP3    H112968   2.200   5.948   1.521
 4344TIP3    H212969   2.295   5.831   1.521
 4345TIP3   OH212970   0.925   5.621   3.235
 4345TIP3    H112971   0.858   5.603   3.170
 4345TIP3    H212972   0.960   5.534   3.259
 4346TIP3   OH212973   0.773   5.818   2.883
 4346TIP3    H112974   0.866   5.835   2.893
 4346TIP3    H212975   0.731   5.898   2.916
 4347TIP3   OH212976   2.609   6.252   2.923
 4347TIP3    H112977   2.584   6.162   2.905
 4347TIP3    H212978   2.539   6.286   2.978
 4348TIP3   OH212979   1.734   6.044   3.061
 4348TIP3    H112980   1.725   6.136   3.089
 4348TIP3    H212981   1.665   5.998   3.110
 4349TIP3   OH212982   1.509   6.145   2.018
 4349TIP3    H112983   1.461   6.126   1.937
 4349TIP3    H212984   1.474   6.228   2.048
 4350TIP3   OH212985   0.940   6.004   2.394
 4350TIP3    H112986   0.986   5.995   2.477
 4350TIP3    H212987   0.892   5.922   2.384
 4351TIP3   OH212988   1.711   6.083   1.640
 4351TIP3    H112989   1.760   6.008   1.606
 4351TIP3    H212990   1.745   6.095   1.729
 4352TIP3   OH212991   1.762   6.123   1.912
 4352TIP3    H112992   1.675   6.126   1.952
 4352TIP3    H212993   1.819   6.086   1.979
 4353TIP3   OH212994   2.477   5.424   3.183
 4353TIP3    H112995   2.394   5.414   3.138
 4353TIP3    H212996   2.512   5.334   3.189
 4354TIP3   OH212997   1.125   5.808   3.203
 4354TIP3    H112998   1.174   5.797   3.284
 4354TIP3    H212999   1.052   5.746   3.210
 4355TIP3   OH213000   1.508   4.612   3.018
 4355TIP3    H113001   1.423   4.580   2.986
 4355TIP3    H213002   1.487   4.694   3.063
 4356TIP3   OH213003   2.050   4.737   3.216
 4356TIP3    H113004   2.120   4.711   3.276
 4356TIP3    H213005   1.969   4.719   3.265
 4357TIP3   OH213006   2.287   5.151   3.121
 4357TIP3    H113007   2.249   5.142   3.209
 4357TIP3    H213008   2.260   5.239   3.093
 4358TIP3   OH213009   1.950   5.237   1.669
 4358TIP3    H113010   1.904   5.239   1.585
 4358TIP3    H213011   2.032   5.282   1.652
 4359TIP3   OH213012   1.639   4.669   1.982
 4359TIP3    H113013   1.615   4.670   2.075
 4359TIP3    H213014   1.613   4.582   1.952
 4360TIP3   OH213015   1.446   5.148   3.026
 4360TIP3    H113016   1.401   5.155   3.111
 4360TIP3    H213017   1.425   5.229   2.981
 4361TIP3   OH213018   1.324   5.027   2.548
 4361TIP3    H113019   1.236   5.000   2.573
 4361TIP3    H213020   1.334   4.996   2.458
 4362TIP3   OH213021   1.806   5.097   2.271
 4362TIP3    H113022   1.759   5.170   2.230
 4362TIP3    H213023   1.865   5.066   2.202
 4363TIP3   OH213024   1.995   5.368   3.345
 4363TIP3    H113025   1.966   5.299   3.406
 4363TIP3    H213026   2.087   5.382   3.366
 4364TIP3   OH213027   1.971   5.113   2.496
 4364TIP3    H113028   1.905   5.134   2.430
 4364TIP3    H213029   2.020   5.040   2.458
 4365TIP3   OH213030   1.284   5.160   3.249
 4365TIP3    H113031   1.302   5.223   3.318
 4365TIP3    H213032   1.267   5.077   3.294
 4366TIP3   OH213033   1.288   4.606   1.976
 4366TIP3    H113034   1.305   4.651   2.059
 4366TIP3    H213035   1.230   4.665   1.928
 4367TIP3   OH213036   0.856   4.691   2.849
 4367TIP3    H113037   0.935   4.726   2.890
 4367TIP3    H213038   0.879   4.680   2.757
 4368TIP3   OH213039   0.777   4.648   2.323
 4368TIP3    H113040   0.820   4.687   2.247
 4368TIP3    H213041   0.716   4.714   2.354
 4369TIP3   OH213042   1.992   5.366   2.922
 4369TIP3    H113043   2.022   5.302   2.857
 4369TIP3    H213044   1.956   5.313   2.993
 4370TIP3   OH213045   1.689   4.812   2.596
 4370TIP3    H113046   1.611   4.815   2.652
 4370TIP3    H213047   1.762   4.804   2.656
 4371TIP3   OH213048   1.088   4.897   2.608
 4371TIP3    H113049   1.000   4.901   2.571
 4371TIP3    H213050   1.117   4.807   2.595
 4372TIP3   OH213051   1.342   4.909   2.301
 4372TIP3    H113052   1.437   4.919   2.294
 4372TIP3    H213053   1.310   4.920   2.211
 4373TIP3   OH213054   2.126   4.906   2.803
 4373TIP3    H113055   2.109   4.922   2.896
 4373TIP3    H213056   2.058   4.844   2.777
 4374TIP3   OH213057   1.243   4.907   2.045
 4374TIP3    H113058   1.173   4.872   1.990
 4374TIP3    H213059   1.293   4.964   1.987
 4375TIP3   OH213060   2.337   6.609   3.022
 4375TIP3    H113061   2.333   6.623   2.927
 4375TIP3    H213062   2.416   6.654   3.050
 4376TIP3   OH213063   1.278   5.718   3.437
 4376TIP3    H113064   1.359   5.740   3.484
 4376TIP3    H213065   1.209   5.728   3.502
 4377TIP3   OH213066   1.736   5.184   2.702
 4377TIP3    H113067   1.805   5.139   2.653
 4377TIP3    H213068   1.736   5.143   2.788
 4378TIP3   OH213069   1.237   4.653   2.593
 4378TIP3    H113070   1.208   4.577   2.644
 4378TIP3    H213071   1.262   4.617   2.508
 4379TIP3   OH213072   1.712   5.087   2.968
 4379TIP3    H113073   1.625   5.120   2.992
 4379TIP3    H213074   1.772   5.137   3.023
 4380TIP3   OH213075   1.447   5.443   2.082
 4380TIP3    H113076   1.373   5.387   2.060
 4380TIP3    H213077   1.421   5.484   2.165
 4381TIP3   OH213078   2.363   5.684   2.708
 4381TIP3    H113079   2.397   5.729   2.630
 4381TIP3    H213080   2.284   5.640   2.678
 4382TIP3   OH213081   1.901   4.758   1.991
 4382TIP3    H113082   1.807   4.745   1.983
 4382TIP3    H213083   1.912   4.852   2.000
 4383TIP3   OH213084   1.869   5.784   3.098
 4383TIP3    H113085   1.905   5.770   3.185
 4383TIP3    H213086   1.823   5.868   3.104
 4384TIP3   OH213087   1.971   5.020   2.056
 4384TIP3    H113088   2.066   5.024   2.067
 4384TIP3    H213089   1.950   5.098   2.004
 4385TIP3   OH213090   1.131   5.451   2.732
 4385TIP3    H113091   1.170   5.436   2.646
 4385TIP3    H213092   1.199   5.425   2.794
 4386TIP3   OH213093   1.597   5.603   1.922
 4386TIP3    H113094   1.550   5.686   1.920
 4386TIP3    H213095   1.543   5.546   1.976
 4387TIP3   OH213096   1.023   5.389   3.369
 4387TIP3    H113097   1.028   5.364   3.461
 4387TIP3    H213098   0.950   5.339   3.333
 4388TIP3   OH213099   1.761   5.523   3.385
 4388TIP3    H113100   1.693   5.463   3.356
 4388TIP3    H213101   1.843   5.483   3.356
 4389TIP3   OH213102   2.010   6.063   2.986
 4389TIP3    H113103   1.915   6.047   2.988
 4389TIP3    H213104   2.029   6.100   3.072
 4390TIP3   OH213105   2.385   5.113   1.876
 4390TIP3    H113106   2.327   5.068   1.814
 4390TIP3    H213107   2.392   5.202   1.842
 4391TIP3   OH213108   2.127   5.928   1.806
 4391TIP3    H113109   2.099   5.857   1.864
 4391TIP3    H213110   2.146   5.885   1.722
 4392TIP3   OH213111   2.112   5.561   2.594
 4392TIP3    H113112   2.020   5.540   2.609
 4392TIP3    H213113   2.149   5.482   2.555
 4393TIP3   OH213114   1.262   5.799   2.401
 4393TIP3    H113115   1.261   5.876   2.344
 4393TIP3    H213116   1.170   5.786   2.425
 4394TIP3   OH213117   0.837   5.077   2.119
 4394TIP3    H113118   0.876   5.163   2.136
 4394TIP3    H213119   0.755   5.079   2.168
 4395TIP3   OH213120   1.344   5.554   2.305
 4395TIP3    H113121   1.330   5.643   2.335
 4395TIP3    H213122   1.319   5.499   2.380
 4396TIP3   OH213123   1.544   6.117   2.856
 4396TIP3    H113124   1.580   6.189   2.804
 4396TIP3    H213125   1.619   6.084   2.905
 4397TIP3   OH213126   1.177   6.022   2.254
 4397TIP3    H113127   1.089   6.030   2.290
 4397TIP3    H213128   1.212   6.112   2.257
 4398TIP3   OH213129   1.894   5.786   2.821
 4398TIP3    H113130   1.889   5.781   2.917
 4398TIP3    H213131   1.964   5.725   2.798
 4399TIP3   OH213132   1.893   5.663   1.701
 4399TIP3    H113133   1.938   5.642   1.783
 4399TIP3    H213134   1.808   5.619   1.709
 4400TIP3   OH213135   2.161   6.277   2.865
 4400TIP3    H113136   2.090   6.216   2.884
 4400TIP3    H213137   2.127   6.334   2.795
 4401TIP3   OH213138   2.197   6.128   1.498
 4401TIP3    H113139   2.203   6.182   1.420
 4401TIP3    H213140   2.130   6.171   1.551
 4402TIP3   OH213141   1.237   4.903   3.369
 4402TIP3    H113142   1.141   4.909   3.374
 4402TIP3    H213143   1.262   4.851   3.445
 4403TIP3   OH213144   2.062   5.600   1.913
 4403TIP3    H113145   2.047   5.530   1.977
 4403TIP3    H213146   2.157   5.600   1.900
 4404TIP3   OH213147   0.976   6.018   3.016
 4404TIP3    H113148   1.027   5.958   3.070
 4404TIP3    H213149   0.989   6.104   3.056
 4405TIP3   OH213150   1.248   5.626   1.717
 4405TIP3    H113151   1.259   5.535   1.690
 4405TIP3    H213152   1.231   5.622   1.811
 4406TIP3   OH213153   1.184   5.642   1.988
 4406TIP3    H113154   1.249   5.616   2.053
 4406TIP3    H213155   1.182   5.738   1.992
 4407TIP3   OH213156   0.920   5.335   2.191
 4407TIP3    H113157   0.856   5.383   2.243
 4407TIP3    H213158   0.938   5.393   2.116
 4408TIP3   OH213159   2.079   4.968   3.068
 4408TIP3    H113160   2.161   5.009   3.095
 4408TIP3    H213161   2.071   4.891   3.124
 4409TIP3   OH213162   1.970   4.708   2.257
 4409TIP3    H113163   1.947   4.728   2.166
 4409TIP3    H213164   2.014   4.787   2.288
 4410TIP3   OH213165   1.452   5.831   1.920
 4410TIP3    H113166   1.368   5.855   1.960
 4410TIP3    H213167   1.473   5.905   1.863
 4411TIP3   OH213168   1.619   4.910   2.345
 4411TIP3    H113169   1.682   4.977   2.318
 4411TIP3    H213170   1.643   4.889   2.435
 4412TIP3   OH213171   1.916   5.197   3.124
 4412TIP3    H113172   1.946   5.240   3.204
 4412TIP3    H213173   1.969   5.117   3.119
 4413TIP3   OH213174   1.784   4.602   2.432
 4413TIP3    H113175   1.762   4.678   2.485
 4413TIP3    H213176   1.855   4.632   2.376
 4414TIP3   OH213177   1.202   5.914   2.004
 4414TIP3    H113178   1.185   5.986   1.943
 4414TIP3    H213179   1.192   5.953   2.091
 4415TIP3   OH213180   1.297   4.635   2.265
 4415TIP3    H113181   1.290   4.728   2.287
 4415TIP3    H213182   1.391   4.618   2.261
 4416TIP3   OH213183   2.568   5.169   3.125
 4416TIP3    H113184   2.479   5.137   3.109
 4416TIP3    H213185   2.602   5.186   3.037
 4417TIP3   OH213186   2.200   5.305   2.500
 4417TIP3    H113187   2.124   5.247   2.512
 4417TIP3    H213188   2.267   5.268   2.557
 4418TIP3   OH213189   0.935   5.515   1.976
 4418TIP3    H113190   1.005   5.580   1.987
 4418TIP3    H213191   0.970   5.454   1.911
 4419TIP3   OH213192   0.847   4.796   2.101
 4419TIP3    H113193   0.868   4.888   2.118
 4419TIP3    H213194   0.786   4.798   2.027
 4420TIP3   OH213195   2.179   6.284   2.442
 4420TIP3    H113196   2.133   6.334   2.374
 4420TIP3    H213197   2.272   6.296   2.423
 4421TIP3   OH213198   1.245   4.529   2.978
 4421TIP3    H113199   1.218   4.496   2.892
 4421TIP3    H213200   1.238   4.453   3.036
 4422TIP3   OH213201   0.771   5.776   2.379
 4422TIP3    H113202   0.727   5.816   2.454
 4422TIP3    H213203   0.725   5.812   2.303
 4423TIP3   OH213204   0.971   6.314   3.428
 4423TIP3    H113205   1.052   6.318   3.479
 4423TIP3    H213206   0.951   6.221   3.423
 4424TIP3   OH213207   1.435   6.227   3.482
 4424TIP3    H113208   1.527   6.200   3.491
 4424TIP3    H213209   1.402   6.172   3.410
 4425TIP3   OH213210   1.396   5.827   1.600
 4425TIP3    H113211   1.351   5.757   1.647
 4425TIP3    H213212   1.471   5.784   1.559
 4426TIP3   OH213213   2.057   6.165   3.238
 4426TIP3    H113214   2.071   6.095   3.302
 4426TIP3    H213215   2.129   6.226   3.252
 4427TIP3   OH213216   1.838   5.869   1.527
 4427TIP3    H113217   1.873   5.805   1.588
 4427TIP3    H213218   1.897   5.865   1.452
 4428TIP3   OH213219   1.075   5.717   3.627
 4428TIP3    H113220   1.090   5.623   3.641
 4428TIP3    H213221   0.989   5.722   3.587
 4429TIP3   OH213222   1.072   5.326   1.835
 4429TIP3    H113223   1.125   5.305   1.911
 4429TIP3    H213224   1.136   5.339   1.764
 4430TIP3   OH213225   1.693   5.800   3.404
 4430TIP3    H113226   1.648   5.820   3.322
 4430TIP3    H213227   1.729   5.712   3.390
 4431TIP3   OH213228   1.637   5.543   1.659
 4431TIP3    H113229   1.613   5.556   1.750
 4431TIP3    H213230   1.618   5.451   1.641
 4432TIP3   OH213231   2.198   5.843   3.026
 4432TIP3    H113232   2.270   5.872   2.970
 4432TIP3    H213233   2.126   5.904   3.007
 4433TIP3   OH213234   1.187   5.456   3.634
 4433TIP3    H113235   1.263   5.447   3.576
 4433TIP3    H213236   1.225   5.479   3.719
 4434TIP3   OH213237   1.243   5.261   2.042
 4434TIP3    H113238   1.223   5.230   2.130
 4434TIP3    H213239   1.291   5.189   2.001
 4435TIP3   OH213240   1.550   5.343   3.292
 4435TIP3    H113241   1.466   5.387   3.303
 4435TIP3    H213242   1.582   5.372   3.207
 4436TIP3   OH213243   1.381   5.078   1.883
 4436TIP3    H113244   1.350   5.084   1.793
 4436TIP3    H213245   1.476   5.087   1.877
 4437TIP3   OH213246   2.036   5.722   3.382
 4437TIP3    H113247   2.110   5.695   3.328
 4437TIP3    H213248   2.038   5.664   3.458
 4438TIP3   OH213249   2.170   5.368   1.562
 4438TIP3    H113250   2.159   5.326   1.477
 4438TIP3    H213251   2.146   5.459   1.548
 4439TIP3   OH213252   1.654   5.112   3.400
 4439TIP3    H113253   1.658   5.042   3.335
 4439TIP3    H213254   1.620   5.188   3.352
 4440TIP3   OH213255   1.663   4.914   3.197
 4440TIP3    H113256   1.691   4.951   3.113
 4440TIP3    H213257   1.572   4.888   3.182
 4441TIP3   OH213258   1.666   5.440   3.067
 4441TIP3    H113259   1.756   5.464   3.044
 4441TIP3    H213260   1.612   5.502   3.019
 4442TIP3   OH213261   2.263   5.390   3.447
 4442TIP3    H113262   2.289   5.298   3.457
 4442TIP3    H213263   2.342   5.435   3.420
 4443TIP3   OH213264   2.258   5.667   3.224
 4443TIP3    H113265   2.234   5.730   3.157
 4443TIP3    H213266   2.336   5.623   3.189
 4444TIP3   OH213267   1.538   5.198   3.642
 4444TIP3    H113268   1.469   5.135   3.663
 4444TIP3    H213269   1.566   5.174   3.554
 4445TIP3   OH213270   1.785   4.682   3.297
 4445TIP3    H113271   1.744   4.763   3.264
 4445TIP3    H213272   1.718   4.615   3.284
 4446TIP3   OH213273   1.915   5.152   3.495
 4446TIP3    H113274   1.908   5.141   3.589
 4446TIP3    H213275   1.827   5.131   3.462
 4447TIP3   OH213276   2.162   5.109   3.360
 4447TIP3    H113277   2.081   5.108   3.412
 4447TIP3    H213278   2.230   5.081   3.420
 4448TIP3   OH213279   2.382   5.069   3.522
 4448TIP3    H113280   2.401   4.975   3.528
 4448TIP3    H213281   2.380   5.098   3.613
 4449TIP3   OH213282   1.372   4.978   3.709
 4449TIP3    H113283   1.377   4.890   3.672
 4449TIP3    H213284   1.410   4.970   3.796
 4450TIP3   OH213285   1.850   4.660   3.561
 4450TIP3    H113286   1.919   4.594   3.556
 4450TIP3    H213287   1.822   4.671   3.471
 4451TIP3   OH213288   1.945   4.874   3.708
 4451TIP3    H113289   1.915   4.803   3.651
 4451TIP3    H213290   1.873   4.937   3.706
 4452TIP3   OH213291   1.207   6.125   1.828
 4452TIP3    H113292   1.293   6.104   1.793
 4452TIP3    H213293   1.161   6.166   1.754
 4453TIP3   OH213294   0.662   5.492   2.012
 4453TIP3    H113295   0.755   5.512   1.996
 4453TIP3    H213296   0.646   5.412   1.963
 4454TIP3   OH213297   0.565   6.101   2.458
 4454TIP3    H113298   0.505   6.044   2.410
 4454TIP3    H213299   0.614   6.041   2.515
 4455TIP3   OH213300   0.711   5.929   2.622
 4455TIP3    H113301   0.705   5.861   2.689
 4455TIP3    H213302   0.766   5.996   2.662
 4456TIP3   OH213303   2.448   6.339   2.421
 4456TIP3    H113304   2.477   6.366   2.508
 4456TIP3    H213305   2.513   6.374   2.361
 4457TIP3   OH213306   2.474   6.369   2.702
 4457TIP3    H113307   2.424   6.288   2.695
 4457TIP3    H213308   2.541   6.351   2.768
 4458TIP3   OH213309   2.532   6.059   3.276
 4458TIP3    H113310   2.458   6.064   3.336
 4458TIP3    H213311   2.572   6.146   3.281
 4459TIP3   OH213312   2.342   5.577   1.896
 4459TIP3    H113313   2.400   5.647   1.865
 4459TIP3    H213314   2.388   5.540   1.972
 4460TIP3   OH213315   2.472   5.437   2.103
 4460TIP3    H113316   2.401   5.397   2.154
 4460TIP3    H213317   2.532   5.473   2.169
 4461TIP3   OH213318   2.493   5.831   2.518
 4461TIP3    H113319   2.570   5.776   2.505
 4461TIP3    H213320   2.501   5.900   2.452
 4462TIP3   OH213321   2.345   6.121   2.727
 4462TIP3    H113322   2.276   6.165   2.778
 4462TIP3    H213323   2.298   6.078   2.656
 4463TIP3   OH213324   2.380   5.353   1.739
 4463TIP3    H113325   2.308   5.351   1.676
 4463TIP3    H213326   2.363   5.431   1.793
 4464TIP3   OH213327   2.227   5.005   1.681
 4464TIP3    H113328   2.184   5.040   1.603
 4464TIP3    H213329   2.219   4.910   1.672
 4465TIP3   OH213330   2.264   5.296   2.229
 4465TIP3    H113331   2.272   5.201   2.217
 4465TIP3    H213332   2.248   5.306   2.323
 4466TIP3   OH213333   0.890   5.364   2.998
 4466TIP3    H113334   0.881   5.331   2.909
 4466TIP3    H213335   0.984   5.358   3.017
 4467TIP3   OH213336   2.574   5.736   3.038
 4467TIP3    H113337   2.505   5.668   3.040
 4467TIP3    H213338   2.533   5.809   2.991
 4468TIP3   OH213339   2.737   5.498   3.099
 4468TIP3    H113340   2.655   5.453   3.117
 4468TIP3    H213341   2.805   5.436   3.124
 4469TIP3   OH213342   2.190   4.735   1.654
 4469TIP3    H113343   2.258   4.704   1.714
 4469TIP3    H213344   2.110   4.690   1.684
 4470TIP3   OH213345   2.260   5.017   2.114
 4470TIP3    H113346   2.306   4.934   2.127
 4470TIP3    H213347   2.302   5.057   2.038
 4471TIP3   OH213348   2.412   5.185   2.645
 4471TIP3    H113349   2.485   5.208   2.587
 4471TIP3    H213350   2.444   5.207   2.732
 4472TIP3   OH213351   1.109   5.031   3.643
 4472TIP3    H113352   1.202   5.031   3.663
 4472TIP3    H213353   1.076   4.950   3.682
 4473TIP3   OH213354   2.947   4.930   3.402
 4473TIP3    H113355   3.013   4.874   3.361
 4473TIP3    H213356   2.912   4.983   3.331
 4474TIP3   OH213357   2.376   4.769   2.165
 4474TIP3    H113358   2.423   4.753   2.248
 4474TIP3    H213359   2.314   4.696   2.159
 4475TIP3   OH213360   1.084   4.755   2.996
 4475TIP3    H113361   1.137   4.675   3.000
 4475TIP3    H213362   1.146   4.824   2.977
 4476TIP3   OH213363   0.867   5.016   3.054
 4476TIP3    H113364   0.918   5.008   2.974
 4476TIP3    H213365   0.891   5.101   3.090
 4477TIP3   OH213366   2.808   5.059   3.202
 4477TIP3    H113367   2.725   5.106   3.199
 4477TIP3    H213368   2.792   4.980   3.150
 4478TIP3   OH213369   2.421   4.680   1.802
 4478TIP3    H113370   2.469   4.620   1.746
 4478TIP3    H213371   2.476   4.758   1.807
 4479TIP3   OH213372   0.845   4.580   2.587
 4479TIP3    H113373   0.757   4.548   2.609
 4479TIP3    H213374   0.841   4.599   2.494
 4480TIP3   OH213375   2.011   6.247   2.075
 4480TIP3    H113376   2.065   6.233   1.997
 4480TIP3    H213377   2.054   6.318   2.123
 4481TIP3   OH213378   1.073   4.578   3.380
 4481TIP3    H113379   1.021   4.571   3.460
 4481TIP3    H213380   1.017   4.628   3.320
 4482TIP3   OH213381   1.107   6.033   3.453
 4482TIP3    H113382   1.013   6.016   3.444
 4482TIP3    H213383   1.124   6.026   3.547
 4483TIP3   OH213384   1.315   6.083   3.005
 4483TIP3    H113385   1.263   6.157   2.972
 4483TIP3    H213386   1.400   6.092   2.961
 4484TIP3   OH213387   1.713   6.311   3.139
 4484TIP3    H113388   1.752   6.305   3.226
 4484TIP3    H213389   1.771   6.369   3.090
 4485TIP3   OH213390   1.894   6.475   3.009
 4485TIP3    H113391   1.950   6.421   2.952
 4485TIP3    H213392   1.956   6.527   3.061
 4486TIP3   OH213393   2.715   4.811   3.095
 4486TIP3    H113394   2.634   4.818   3.043
 4486TIP3    H213395   2.740   4.719   3.087
 4487TIP3   OH213396   0.973   6.321   3.050
 4487TIP3    H113397   0.881   6.337   3.031
 4487TIP3    H213398   0.997   6.388   3.114
 4488TIP3   OH213399   1.204   6.312   2.900
 4488TIP3    H113400   1.120   6.317   2.946
 4488TIP3    H213401   1.183   6.336   2.810
 4489TIP3   OH213402   1.623   6.322   2.688
 4489TIP3    H113403   1.553   6.331   2.624
 4489TIP3    H213404   1.632   6.410   2.726
 4490TIP3   OH213405   1.890   6.277   2.749
 4490TIP3    H113406   1.798   6.288   2.725
 4490TIP3    H213407   1.937   6.339   2.693
 4491TIP3   OH213408   2.098   6.448   2.646
 4491TIP3    H113409   2.080   6.530   2.600
 4491TIP3    H213410   2.126   6.387   2.577
 4492TIP3   OH213411   0.891   6.104   2.765
 4492TIP3    H113412   0.917   6.081   2.854
 4492TIP3    H213413   0.961   6.070   2.709
 4493TIP3   OH213414   1.090   5.985   2.625
 4493TIP3    H113415   1.101   5.900   2.668
 4493TIP3    H213416   1.176   6.025   2.629
 4494TIP3   OH213417   1.357   6.070   2.653
 4494TIP3    H113418   1.376   5.978   2.637
 4494TIP3    H213419   1.411   6.094   2.728
 4495TIP3   OH213420   1.913   4.721   2.736
 4495TIP3    H113421   1.874   4.649   2.786
 4495TIP3    H213422   1.982   4.679   2.684
 4496TIP3   OH213423   2.421   4.628   2.617
 4496TIP3    H113424   2.462   4.678   2.546
 4496TIP3    H213425   2.335   4.667   2.628
 4497TIP3   OH213426   2.535   4.716   2.386
 4497TIP3    H113427   2.604   4.654   2.360
 4497TIP3    H213428   2.574   4.802   2.372
 4498TIP3   OH213429   1.165   4.422   2.735
 4498TIP3    H113430   1.075   4.389   2.741
 4498TIP3    H213431   1.219   4.344   2.731
 4499TIP3   OH213432   1.635   4.462   2.630
 4499TIP3    H113433   1.684   4.508   2.562
 4499TIP3    H213434   1.676   4.490   2.712
 4500TIP3   OH213435   2.124   4.600   2.607
 4500TIP3    H113436   2.154   4.568   2.522
 4500TIP3    H213437   2.134   4.525   2.666
 4501TIP3   OH213438   2.190   4.559   2.170
 4501TIP3    H113439   2.111   4.606   2.197
 4501TIP3    H213440   2.179   4.472   2.209
 4502TIP3   OH213441   0.645   5.880   2.161
 4502TIP3    H113442   0.565   5.852   2.117
 4502TIP3    H213443   0.654   5.973   2.140
 4503TIP3   OH213444   1.116   4.446   2.121
 4503TIP3    H113445   1.179   4.494   2.065
 4503TIP3    H213446   1.126   4.486   2.207
 4504TIP3   OH213447   1.574   4.657   2.250
 4504TIP3    H113448   1.636   4.607   2.303
 4504TIP3    H213449   1.588   4.748   2.277
 4505TIP3   OH213450   1.457   6.051   1.744
 4505TIP3    H113451   1.540   6.080   1.706
 4505TIP3    H213452   1.427   5.981   1.686
 4506TIP3   OH213453   2.157   6.197   1.844
 4506TIP3    H113454   2.151   6.102   1.836
 4506TIP3    H213455   2.113   6.231   1.766
 4507TIP3   OH213456   1.381   4.709   3.616
 4507TIP3    H113457   1.348   4.641   3.675
 4507TIP3    H213458   1.474   4.716   3.637
 4508TIP3   OH213459   1.632   4.716   3.728
 4508TIP3    H113460   1.710   4.696   3.676
 4508TIP3    H213461   1.627   4.645   3.792
 4509TIP3   OH213462   0.760   5.850   1.802
 4509TIP3    H113463   0.762   5.898   1.885
 4509TIP3    H213464   0.851   5.828   1.785
 4510TIP3   OH213465   2.456   4.801   3.525
 4510TIP3    H113466   2.475   4.771   3.615
 4510TIP3    H213467   2.541   4.797   3.480
 4511TIP3   OH213468   2.373   6.336   3.036
 4511TIP3    H113469   2.299   6.305   2.982
 4511TIP3    H213470   2.360   6.431   3.041
 4512TIP3   OH213471   3.648   5.720   1.776
 4512TIP3    H113472   3.613   5.807   1.755
 4512TIP3    H213473   3.578   5.659   1.751
 4513TIP3   OH213474   3.647   5.714   2.199
 4513TIP3    H113475   3.702   5.694   2.275
 4513TIP3    H213476   3.604   5.631   2.178
 4514TIP3   OH213477   2.977   5.618   2.575
 4514TIP3    H113478   2.995   5.534   2.618
 4514TIP3    H213479   3.035   5.619   2.500
 4515TIP3   OH213480   3.917   6.022   1.868
 4515TIP3    H113481   3.904   5.955   1.935
 4515TIP3    H213482   3.937   6.101   1.917
 4516TIP3   OH213483   2.939   6.012   2.244
 4516TIP3    H113484   2.923   5.918   2.243
 4516TIP3    H213485   3.033   6.021   2.226
 4517TIP3   OH213486   2.622   5.212   2.015
 4517TIP3    H113487   2.582   5.295   2.042
 4517TIP3    H213488   2.550   5.163   1.974
 4518TIP3   OH213489   2.694   5.522   2.263
 4518TIP3    H113490   2.744   5.443   2.287
 4518TIP3    H213491   2.757   5.577   2.217
 4519TIP3   OH213492   3.577   6.446   1.884
 4519TIP3    H113493   3.602   6.384   1.816
 4519TIP3    H213494   3.586   6.397   1.966
 4520TIP3   OH213495   3.452   5.934   2.202
 4520TIP3    H113496   3.496   5.855   2.172
 4520TIP3    H213497   3.522   5.992   2.231
 4521TIP3   OH213498   4.488   5.255   2.214
 4521TIP3    H113499   4.504   5.341   2.253
 4521TIP3    H213500   4.512   5.265   2.122
 4522TIP3   OH213501   3.861   5.422   2.236
 4522TIP3    H113502   3.896   5.338   2.263
 4522TIP3    H213503   3.825   5.407   2.149
 4523TIP3   OH213504   3.219   5.081   2.194
 4523TIP3    H113505   3.198   5.154   2.136
 4523TIP3    H213506   3.164   5.009   2.163
 4524TIP3   OH213507   3.914   5.184   1.831
 4524TIP3    H113508   3.978   5.178   1.902
 4524TIP3    H213509   3.965   5.216   1.756
 4525TIP3   OH213510   2.853   5.305   2.335
 4525TIP3    H113511   2.936   5.277   2.374
 4525TIP3    H213512   2.846   5.255   2.254
 4526TIP3   OH213513   3.259   5.494   2.145
 4526TIP3    H113514   3.354   5.480   2.149
 4526TIP3    H213515   3.224   5.413   2.108
 4527TIP3   OH213516   4.545   5.477   2.381
 4527TIP3    H113517   4.456   5.511   2.376
 4527TIP3    H213518   4.579   5.510   2.464
 4528TIP3   OH213519   3.193   5.086   2.655
 4528TIP3    H113520   3.144   5.118   2.580
 4528TIP3    H213521   3.135   5.101   2.730
 4529TIP3   OH213522   3.514   5.929   1.659
 4529TIP3    H113523   3.490   5.911   1.569
 4529TIP3    H213524   3.472   6.013   1.679
 4530TIP3   OH213525   3.289   5.860   2.412
 4530TIP3    H113526   3.237   5.933   2.446
 4530TIP3    H213527   3.339   5.897   2.339
 4531TIP3   OH213528   4.071   5.209   2.053
 4531TIP3    H113529   4.032   5.184   2.137
 4531TIP3    H213530   4.129   5.282   2.073
 4532TIP3   OH213531   3.094   5.188   2.418
 4532TIP3    H113532   3.152   5.261   2.440
 4532TIP3    H213533   3.138   5.144   2.345
 4533TIP3   OH213534   3.137   6.065   2.523
 4533TIP3    H113535   3.119   6.153   2.489
 4533TIP3    H213536   3.059   6.043   2.574
 4534TIP3   OH213537   2.512   5.766   1.773
 4534TIP3    H113538   2.478   5.781   1.684
 4534TIP3    H213539   2.535   5.853   1.805
 4535TIP3   OH213540   3.950   6.268   2.012
 4535TIP3    H113541   3.862   6.262   2.048
 4535TIP3    H213542   3.951   6.351   1.965
 4536TIP3   OH213543   4.285   5.153   2.385
 4536TIP3    H113544   4.200   5.171   2.344
 4536TIP3    H213545   4.349   5.177   2.318
 4537TIP3   OH213546   3.541   4.777   2.380
 4537TIP3    H113547   3.533   4.685   2.404
 4537TIP3    H213548   3.464   4.819   2.418
 4538TIP3   OH213549   3.662   6.295   1.668
 4538TIP3    H113550   3.712   6.214   1.655
 4538TIP3    H213551   3.723   6.365   1.645
 4539TIP3   OH213552   3.818   6.079   1.616
 4539TIP3    H113553   3.821   5.999   1.562
 4539TIP3    H213554   3.854   6.052   1.700
 4540TIP3   OH213555   4.186   6.157   2.354
 4540TIP3    H113556   4.169   6.082   2.296
 4540TIP3    H213557   4.172   6.234   2.298
 4541TIP3   OH213558   3.472   5.558   1.631
 4541TIP3    H113559   3.391   5.605   1.609
 4541TIP3    H213560   3.520   5.554   1.548
 4542TIP3   OH213561   3.451   5.357   1.319
 4542TIP3    H113562   3.515   5.407   1.371
 4542TIP3    H213563   3.504   5.294   1.270
 4543TIP3   OH213564   4.369   5.818   2.218
 4543TIP3    H113565   4.284   5.863   2.216
 4543TIP3    H213566   4.405   5.831   2.131
 4544TIP3   OH213567   3.835   5.653   1.589
 4544TIP3    H113568   3.780   5.679   1.663
 4544TIP3    H213569   3.916   5.623   1.629
 4545TIP3   OH213570   4.065   5.678   2.531
 4545TIP3    H113571   4.061   5.762   2.578
 4545TIP3    H213572   3.983   5.675   2.481
 4546TIP3   OH213573   3.061   5.629   1.991
 4546TIP3    H113574   3.024   5.569   1.926
 4546TIP3    H213575   3.133   5.580   2.030
 4547TIP3   OH213576   3.197   6.054   2.133
 4547TIP3    H113577   3.171   6.039   2.042
 4547TIP3    H213578   3.283   6.014   2.140
 4548TIP3   OH213579   3.161   5.622   2.368
 4548TIP3    H113580   3.197   5.583   2.288
 4548TIP3    H213581   3.211   5.702   2.380
 4549TIP3   OH213582   3.708   6.266   2.139
 4549TIP3    H113583   3.700   6.345   2.193
 4549TIP3    H213584   3.696   6.194   2.199
 4550TIP3   OH213585   3.335   6.166   2.687
 4550TIP3    H113586   3.273   6.221   2.735
 4550TIP3    H213587   3.281   6.115   2.628
 4551TIP3   OH213588   3.662   5.510   1.431
 4551TIP3    H113589   3.723   5.566   1.479
 4551TIP3    H213590   3.687   5.522   1.339
 4552TIP3   OH213591   3.097   5.713   2.810
 4552TIP3    H113592   3.096   5.808   2.823
 4552TIP3    H213593   3.050   5.699   2.728
 4553TIP3   OH213594   3.406   6.187   1.680
 4553TIP3    H113595   3.493   6.227   1.683
 4553TIP3    H213596   3.352   6.248   1.630
 4554TIP3   OH213597   3.117   6.317   2.774
 4554TIP3    H113598   3.097   6.330   2.681
 4554TIP3    H213599   3.032   6.306   2.816
 4555TIP3   OH213600   4.181   4.738   1.477
 4555TIP3    H113601   4.103   4.758   1.528
 4555TIP3    H213602   4.192   4.813   1.419
 4556TIP3   OH213603   2.937   5.471   1.790
 4556TIP3    H113604   2.859   5.517   1.759
 4556TIP3    H213605   2.907   5.381   1.803
 4557TIP3   OH213606   3.996   6.109   1.041
 4557TIP3    H113607   3.998   6.204   1.031
 4557TIP3    H213608   4.087   6.082   1.028
 4558TIP3   OH213609   2.574   6.054   2.356
 4558TIP3    H113610   2.670   6.055   2.350
 4558TIP3    H213611   2.553   6.133   2.407
 4559TIP3   OH213612   4.417   6.519   2.423
 4559TIP3    H113613   4.422   6.424   2.436
 4559TIP3    H213614   4.338   6.545   2.471
 4560TIP3   OH213615   3.525   6.308   2.549
 4560TIP3    H113616   3.517   6.399   2.577
 4560TIP3    H213617   3.459   6.261   2.599
 4561TIP3   OH213618   3.297   6.401   1.510
 4561TIP3    H113619   3.251   6.378   1.429
 4561TIP3    H213620   3.260   6.486   1.535
 4562TIP3   OH213621   2.737   6.259   1.880
 4562TIP3    H113622   2.781   6.249   1.964
 4562TIP3    H213623   2.687   6.179   1.869
 4563TIP3   OH213624   3.492   6.322   1.162
 4563TIP3    H113625   3.549   6.258   1.120
 4563TIP3    H213626   3.534   6.339   1.247
 4564TIP3   OH213627   3.555   6.381   1.422
 4564TIP3    H113628   3.466   6.384   1.458
 4564TIP3    H213629   3.608   6.343   1.492
 4565TIP3   OH213630   4.309   5.634   2.689
 4565TIP3    H113631   4.228   5.641   2.639
 4565TIP3    H213632   4.328   5.540   2.690
 4566TIP3   OH213633   2.921   6.042   2.695
 4566TIP3    H113634   2.967   6.034   2.779
 4566TIP3    H213635   2.848   5.980   2.702
 4567TIP3   OH213636   3.302   4.872   2.506
 4567TIP3    H113637   3.220   4.837   2.473
 4567TIP3    H213638   3.278   4.951   2.555
 4568TIP3   OH213639   3.844   4.993   2.704
 4568TIP3    H113640   3.914   4.966   2.763
 4568TIP3    H213641   3.763   4.974   2.752
 4569TIP3   OH213642   4.068   5.413   2.621
 4569TIP3    H113643   4.028   5.411   2.708
 4569TIP3    H213644   4.052   5.503   2.590
 4570TIP3   OH213645   3.736   5.528   1.174
 4570TIP3    H113646   3.688   5.503   1.095
 4570TIP3    H213647   3.820   5.560   1.142
 4571TIP3   OH213648   3.450   4.912   1.470
 4571TIP3    H113649   3.414   4.919   1.558
 4571TIP3    H213650   3.416   4.829   1.437
 4572TIP3   OH213651   3.247   5.399   2.512
 4572TIP3    H113652   3.200   5.404   2.596
 4572TIP3    H213653   3.225   5.481   2.468
 4573TIP3   OH213654   3.121   5.281   2.034
 4573TIP3    H113655   3.031   5.258   2.060
 4573TIP3    H213656   3.129   5.249   1.944
 4574TIP3   OH213657   3.602   5.354   1.761
 4574TIP3    H113658   3.553   5.425   1.720
 4574TIP3    H213659   3.659   5.321   1.691
 4575TIP3   OH213660   3.786   5.623   2.834
 4575TIP3    H113661   3.761   5.554   2.896
 4575TIP3    H213662   3.879   5.639   2.852
 4576TIP3   OH213663   3.770   5.370   1.983
 4576TIP3    H113664   3.702   5.390   1.919
 4576TIP3    H213665   3.818   5.297   1.945
 4577TIP3   OH213666   3.081   5.411   2.731
 4577TIP3    H113667   3.109   5.461   2.808
 4577TIP3    H213668   3.049   5.328   2.767
 4578TIP3   OH213669   3.119   4.892   1.447
 4578TIP3    H113670   3.110   4.896   1.543
 4578TIP3    H213671   3.041   4.936   1.414
 4579TIP3   OH213672   2.668   4.936   2.310
 4579TIP3    H113673   2.739   4.974   2.362
 4579TIP3    H213674   2.708   4.919   2.224
 4580TIP3   OH213675   2.572   4.915   1.817
 4580TIP3    H113676   2.618   4.950   1.741
 4580TIP3    H213677   2.510   4.983   1.842
 4581TIP3   OH213678   3.812   5.623   2.411
 4581TIP3    H113679   3.837   5.557   2.346
 4581TIP3    H213680   3.769   5.574   2.480
 4582TIP3   OH213681   3.488   5.071   2.084
 4582TIP3    H113682   3.411   5.070   2.140
 4582TIP3    H213683   3.562   5.061   2.145
 4583TIP3   OH213684   2.881   5.161   2.100
 4583TIP3    H113685   2.793   5.166   2.062
 4583TIP3    H213686   2.909   5.071   2.083
 4584TIP3   OH213687   3.134   5.160   1.787
 4584TIP3    H113688   3.229   5.169   1.778
 4584TIP3    H213689   3.099   5.177   1.700
 4585TIP3   OH213690   3.935   5.161   2.295
 4585TIP3    H113691   3.914   5.178   2.387
 4585TIP3    H213692   3.869   5.098   2.267
 4586TIP3   OH213693   3.022   5.185   1.538
 4586TIP3    H113694   2.959   5.135   1.486
 4586TIP3    H213695   3.077   5.229   1.473
 4587TIP3   OH213696   4.131   6.865   2.513
 4587TIP3    H113697   4.128   6.879   2.419
 4587TIP3    H213698   4.210   6.911   2.542
 4588TIP3   OH213699   3.061   5.966   2.930
 4588TIP3    H113700   3.142   5.994   2.974
 4588TIP3    H213701   3.009   5.926   3.000
 4589TIP3   OH213702   3.534   5.443   2.190
 4589TIP3    H113703   3.598   5.395   2.138
 4589TIP3    H213704   3.534   5.400   2.275
 4590TIP3   OH213705   3.024   4.910   2.080
 4590TIP3    H113706   2.996   4.833   2.131
 4590TIP3    H213707   3.047   4.874   1.994
 4591TIP3   OH213708   3.511   5.341   2.453
 4591TIP3    H113709   3.424   5.372   2.478
 4591TIP3    H213710   3.571   5.392   2.507
 4592TIP3   OH213711   3.239   5.698   1.565
 4592TIP3    H113712   3.165   5.642   1.542
 4592TIP3    H213713   3.214   5.739   1.648
 4593TIP3   OH213714   4.132   5.954   2.175
 4593TIP3    H113715   4.169   6.002   2.101
 4593TIP3    H213716   4.053   5.913   2.140
 4594TIP3   OH213717   3.706   5.008   1.479
 4594TIP3    H113718   3.613   4.989   1.471
 4594TIP3    H213719   3.710   5.104   1.485
 4595TIP3   OH213720   3.651   6.038   2.584
 4595TIP3    H113721   3.707   6.027   2.660
 4595TIP3    H213722   3.617   6.128   2.593
 4596TIP3   OH213723   3.766   5.275   1.545
 4596TIP3    H113724   3.861   5.279   1.552
 4596TIP3    H213725   3.743   5.352   1.492
 4597TIP3   OH213726   2.942   5.730   2.221
 4597TIP3    H113727   2.972   5.706   2.133
 4597TIP3    H213728   3.008   5.693   2.279
 4598TIP3   OH213729   3.398   5.857   1.410
 4598TIP3    H113730   3.349   5.939   1.408
 4598TIP3    H213731   3.344   5.798   1.462
 4599TIP3   OH213732   3.556   5.778   2.876
 4599TIP3    H113733   3.489   5.716   2.848
 4599TIP3    H213734   3.639   5.739   2.846
 4600TIP3   OH213735   3.796   6.327   2.471
 4600TIP3    H113736   3.701   6.315   2.474
 4600TIP3    H213737   3.818   6.365   2.556
 4601TIP3   OH213738   4.188   5.372   1.366
 4601TIP3    H113739   4.130   5.326   1.305
 4601TIP3    H213740   4.189   5.462   1.334
 4602TIP3   OH213741   4.432   6.239   2.445
 4602TIP3    H113742   4.338   6.224   2.438
 4602TIP3    H213743   4.467   6.210   2.361
 4603TIP3   OH213744   3.919   6.173   1.305
 4603TIP3    H113745   3.892   6.105   1.367
 4603TIP3    H213746   3.936   6.126   1.224
 4604TIP3   OH213747   3.902   5.818   2.071
 4604TIP3    H113748   3.812   5.796   2.094
 4604TIP3    H213749   3.938   5.737   2.034
 4605TIP3   OH213750   3.058   6.054   1.889
 4605TIP3    H113751   3.060   6.131   1.832
 4605TIP3    H213752   2.965   6.034   1.898
 4606TIP3   OH213753   2.617   5.340   1.597
 4606TIP3    H113754   2.660   5.422   1.619
 4606TIP3    H213755   2.536   5.340   1.648
 4607TIP3   OH213756   3.141   5.808   1.791
 4607TIP3    H113757   3.130   5.898   1.823
 4607TIP3    H213758   3.116   5.753   1.865
 4608TIP3   OH213759   3.336   6.378   2.345
 4608TIP3    H113760   3.372   6.450   2.294
 4608TIP3    H213761   3.411   6.343   2.393
 4609TIP3   OH213762   2.974   6.278   1.739
 4609TIP3    H113763   2.886   6.284   1.776
 4609TIP3    H213764   3.008   6.367   1.743
 4610TIP3   OH213765   3.687   6.043   2.309
 4610TIP3    H113766   3.676   6.037   2.404
 4610TIP3    H213767   3.760   5.984   2.290
 4611TIP3   OH213768   3.681   5.911   1.217
 4611TIP3    H113769   3.731   5.896   1.297
 4611TIP3    H213770   3.598   5.866   1.231
 4612TIP3   OH213771   3.950   6.540   2.353
 4612TIP3    H113772   3.878   6.478   2.369
 4612TIP3    H213773   3.917   6.595   2.282
 4613TIP3   OH213774   4.001   6.387   1.009
 4613TIP3    H113775   4.047   6.465   0.979
 4613TIP3    H213776   3.922   6.420   1.052
 4614TIP3   OH213777   3.006   5.172   2.852
 4614TIP3    H113778   2.913   5.193   2.852
 4614TIP3    H213779   3.017   5.113   2.927
 4615TIP3   OH213780   3.861   5.872   1.424
 4615TIP3    H113781   3.843   5.795   1.478
 4615TIP3    H213782   3.954   5.865   1.402
 4616TIP3   OH213783   2.759   6.279   2.502
 4616TIP3    H113784   2.818   6.217   2.545
 4616TIP3    H213785   2.776   6.363   2.545
 4617TIP3   OH213786   3.036   5.883   1.197
 4617TIP3    H113787   3.048   5.791   1.170
 4617TIP3    H213788   3.021   5.879   1.291
 4618TIP3   OH213789   2.978   5.899   1.469
 4618TIP3    H113790   3.047   5.873   1.529
 4618TIP3    H213791   2.976   5.995   1.475
 4619TIP3   OH213792   2.711   5.591   1.680
 4619TIP3    H113793   2.646   5.638   1.731
 4619TIP3    H213794   2.731   5.649   1.606
 4620TIP3   OH213795   3.873   5.225   2.557
 4620TIP3    H113796   3.953   5.267   2.588
 4620TIP3    H213797   3.864   5.147   2.612
 4621TIP3   OH213798   3.765   4.964   1.746
 4621TIP3    H113799   3.744   4.980   1.654
 4621TIP3    H213800   3.809   5.044   1.775
 4622TIP3   OH213801   3.245   6.080   1.412
 4622TIP3    H113802   3.162   6.105   1.452
 4622TIP3    H213803   3.266   6.154   1.354
 4623TIP3   OH213804   3.414   5.165   1.833
 4623TIP3    H113805   3.477   5.232   1.806
 4623TIP3    H213806   3.439   5.144   1.923
 4624TIP3   OH213807   3.713   5.457   2.607
 4624TIP3    H113808   3.739   5.498   2.689
 4624TIP3    H213809   3.764   5.376   2.603
 4625TIP3   OH213810   3.577   4.859   1.919
 4625TIP3    H113811   3.555   4.937   1.970
 4625TIP3    H213812   3.648   4.889   1.861
 4626TIP3   OH213813   2.996   6.172   1.487
 4626TIP3    H113814   2.972   6.243   1.427
 4626TIP3    H213815   2.987   6.211   1.574
 4627TIP3   OH213816   3.090   4.886   1.727
 4627TIP3    H113817   3.079   4.976   1.755
 4627TIP3    H213818   3.184   4.870   1.732
 4628TIP3   OH213819   4.332   5.353   2.600
 4628TIP3    H113820   4.238   5.366   2.612
 4628TIP3    H213821   4.339   5.293   2.526
 4629TIP3   OH213822   3.994   5.560   1.985
 4629TIP3    H113823   3.918   5.503   1.995
 4629TIP3    H213824   4.062   5.520   2.039
 4630TIP3   OH213825   2.733   5.767   1.463
 4630TIP3    H113826   2.805   5.830   1.471
 4630TIP3    H213827   2.765   5.704   1.398
 4631TIP3   OH213828   2.643   5.062   1.598
 4631TIP3    H113829   2.654   5.157   1.604
 4631TIP3    H213830   2.594   5.049   1.517
 4632TIP3   OH213831   3.975   6.534   1.929
 4632TIP3    H113832   3.933   6.588   1.862
 4632TIP3    H213833   4.068   6.545   1.914
 4633TIP3   OH213834   3.043   4.782   2.463
 4633TIP3    H113835   3.013   4.750   2.378
 4633TIP3    H213836   3.034   4.707   2.522
 4634TIP3   OH213837   2.561   6.039   1.849
 4634TIP3    H113838   2.514   6.073   1.925
 4634TIP3    H213839   2.518   6.081   1.774
 4635TIP3   OH213840   2.776   6.583   2.914
 4635TIP3    H113841   2.855   6.593   2.968
 4635TIP3    H213842   2.772   6.490   2.893
 4636TIP3   OH213843   3.229   6.479   2.967
 4636TIP3    H113844   3.321   6.453   2.975
 4636TIP3    H213845   3.195   6.426   2.895
 4637TIP3   OH213846   3.189   6.086   1.090
 4637TIP3    H113847   3.142   6.014   1.133
 4637TIP3    H213848   3.267   6.046   1.053
 4638TIP3   OH213849   3.847   6.428   2.721
 4638TIP3    H113850   3.860   6.356   2.783
 4638TIP3    H213851   3.923   6.485   2.734
 4639TIP3   OH213852   3.638   6.120   1.048
 4639TIP3    H113853   3.658   6.054   1.114
 4639TIP3    H213854   3.709   6.114   0.985
 4640TIP3   OH213855   2.856   5.577   1.310
 4640TIP3    H113856   2.907   5.552   1.388
 4640TIP3    H213857   2.922   5.591   1.242
 4641TIP3   OH213858   3.483   6.054   2.893
 4641TIP3    H113859   3.445   6.077   2.809
 4641TIP3    H213860   3.522   5.968   2.879
 4642TIP3   OH213861   3.415   5.792   1.145
 4642TIP3    H113862   3.396   5.803   1.238
 4642TIP3    H213863   3.401   5.699   1.128
 4643TIP3   OH213864   3.965   6.103   2.511
 4643TIP3    H113865   4.042   6.127   2.460
 4643TIP3    H213866   3.901   6.171   2.491
 4644TIP3   OH213867   2.912   5.723   3.031
 4644TIP3    H113868   2.992   5.703   2.982
 4644TIP3    H213869   2.942   5.734   3.122
 4645TIP3   OH213870   3.032   5.518   1.521
 4645TIP3    H113871   3.013   5.486   1.609
 4645TIP3    H213872   3.081   5.447   1.479
 4646TIP3   OH213873   3.352   5.596   2.782
 4646TIP3    H113874   3.268   5.641   2.792
 4646TIP3    H213875   3.384   5.624   2.696
 4647TIP3   OH213876   3.174   5.335   1.365
 4647TIP3    H113877   3.146   5.339   1.273
 4647TIP3    H213878   3.270   5.338   1.360
 4648TIP3   OH213879   3.847   5.974   2.859
 4648TIP3    H113880   3.917   5.938   2.805
 4648TIP3    H213881   3.846   5.918   2.937
 4649TIP3   OH213882   3.961   5.622   1.045
 4649TIP3    H113883   3.942   5.577   0.963
 4649TIP3    H213884   3.935   5.713   1.030
 4650TIP3   OH213885   3.454   5.365   2.889
 4650TIP3    H113886   3.456   5.294   2.825
 4650TIP3    H213887   3.421   5.440   2.840
 4651TIP3   OH213888   3.455   5.169   2.685
 4651TIP3    H113889   3.482   5.202   2.599
 4651TIP3    H213890   3.364   5.143   2.673
 4652TIP3   OH213891   3.459   5.696   2.555
 4652TIP3    H113892   3.549   5.722   2.536
 4652TIP3    H213893   3.406   5.758   2.505
 4653TIP3   OH213894   4.055   5.656   2.931
 4653TIP3    H113895   4.086   5.565   2.935
 4653TIP3    H213896   4.134   5.707   2.913
 4654TIP3   OH213897   4.085   5.923   2.675
 4654TIP3    H113898   4.034   5.986   2.624
 4654TIP3    H213899   4.175   5.936   2.644
 4655TIP3   OH213900   3.339   5.453   3.130
 4655TIP3    H113901   3.272   5.387   3.151
 4655TIP3    H213902   3.369   5.429   3.042
 4656TIP3   OH213903   3.580   4.939   2.786
 4656TIP3    H113904   3.538   5.019   2.753
 4656TIP3    H213905   3.515   4.870   2.773
 4657TIP3   OH213906   3.709   5.411   2.990
 4657TIP3    H113907   3.700   5.398   3.085
 4657TIP3    H213908   3.623   5.387   2.955
 4658TIP3   OH213909   3.957   5.374   2.864
 4658TIP3    H113910   3.878   5.369   2.917
 4658TIP3    H213911   4.027   5.342   2.921
 4659TIP3   OH213912   4.188   5.326   3.011
 4659TIP3    H113913   4.203   5.231   3.018
 4659TIP3    H213914   4.185   5.356   3.102
 4660TIP3   OH213915   3.184   5.226   3.193
 4660TIP3    H113916   3.184   5.141   3.150
 4660TIP3    H213917   3.226   5.211   3.278
 4661TIP3   OH213918   3.647   4.917   3.051
 4661TIP3    H113919   3.716   4.850   3.045
 4661TIP3    H213920   3.617   4.928   2.961
 4662TIP3   OH213921   3.744   5.131   3.196
 4662TIP3    H113922   3.713   5.059   3.141
 4662TIP3    H213923   3.670   5.193   3.197
 4663TIP3   OH213924   2.982   6.385   1.309
 4663TIP3    H113925   3.072   6.363   1.284
 4663TIP3    H213926   2.946   6.429   1.232
 4664TIP3   OH213927   2.460   5.763   1.484
 4664TIP3    H113928   2.555   5.775   1.478
 4664TIP3    H213929   2.444   5.678   1.443
 4665TIP3   OH213930   2.364   6.350   1.937
 4665TIP3    H113931   2.299   6.298   1.890
 4665TIP3    H213932   2.408   6.288   1.995
 4666TIP3   OH213933   2.503   6.180   2.104
 4666TIP3    H113934   2.493   6.111   2.169
 4666TIP3    H213935   2.554   6.248   2.149
 4667TIP3   OH213936   4.246   6.583   1.918
 4667TIP3    H113937   4.269   6.615   2.005
 4667TIP3    H213938   4.305   6.629   1.859
 4668TIP3   OH213939   4.265   6.617   2.200
 4668TIP3    H113940   4.218   6.534   2.192
 4668TIP3    H213941   4.334   6.600   2.263
 4669TIP3   OH213942   4.316   6.320   2.774
 4669TIP3    H113943   4.247   6.329   2.839
 4669TIP3    H213944   4.362   6.404   2.775
 4670TIP3   OH213945   4.132   5.837   1.384
 4670TIP3    H113946   4.192   5.906   1.356
 4670TIP3    H213947   4.176   5.793   1.456
 4671TIP3   OH213948   4.257   5.688   1.580
 4671TIP3    H113949   4.190   5.647   1.634
 4671TIP3    H213950   4.322   5.720   1.643
 4672TIP3   OH213951   4.316   6.087   2.013
 4672TIP3    H113952   4.369   6.019   1.971
 4672TIP3    H213953   4.319   6.161   1.951
 4673TIP3   OH213954   4.122   6.378   2.204
 4673TIP3    H113955   4.055   6.424   2.255
 4673TIP3    H213956   4.073   6.338   2.132
 4674TIP3   OH213957   4.168   5.611   1.229
 4674TIP3    H113958   4.098   5.608   1.164
 4674TIP3    H213959   4.150   5.690   1.280
 4675TIP3   OH213960   4.034   5.268   1.171
 4675TIP3    H113961   3.994   5.305   1.092
 4675TIP3    H213962   4.014   5.174   1.166
 4676TIP3   OH213963   4.059   5.547   1.715
 4676TIP3    H113964   4.064   5.452   1.700
 4676TIP3    H213965   4.042   5.555   1.809
 4677TIP3   OH213966   2.711   5.658   2.507
 4677TIP3    H113967   2.688   5.608   2.429
 4677TIP3    H213968   2.806   5.649   2.515
 4678TIP3   OH213969   4.343   5.967   2.579
 4678TIP3    H113970   4.411   5.900   2.564
 4678TIP3    H213971   4.357   6.031   2.509
 4679TIP3   OH213972   4.523   5.757   2.571
 4679TIP3    H113973   4.448   5.714   2.613
 4679TIP3    H213974   4.597   5.701   2.592
 4680TIP3   OH213975   3.981   5.001   1.155
 4680TIP3    H113976   4.052   4.965   1.208
 4680TIP3    H213977   3.904   4.949   1.178
 4681TIP3   OH213978   4.058   5.274   1.602
 4681TIP3    H113979   4.103   5.190   1.615
 4681TIP3    H213980   4.102   5.313   1.526
 4682TIP3   OH213981   4.210   5.440   2.125
 4682TIP3    H113982   4.291   5.456   2.076
 4682TIP3    H213983   4.225   5.479   2.211
 4683TIP3   OH213984   4.285   5.590   2.352
 4683TIP3    H113985   4.212   5.619   2.406
 4683TIP3    H213986   4.316   5.669   2.308
 4684TIP3   OH213987   2.929   5.323   3.197
 4684TIP3    H113988   3.020   5.297   3.188
 4684TIP3    H213989   2.881   5.241   3.202
 4685TIP3   OH213990   4.744   5.187   2.889
 4685TIP3    H113991   4.810   5.131   2.849
 4685TIP3    H213992   4.706   5.236   2.816
 4686TIP3   OH213993   4.172   5.025   1.655
 4686TIP3    H113994   4.216   5.008   1.738
 4686TIP3    H213995   4.110   4.953   1.646
 4687TIP3   OH213996   2.879   5.006   2.478
 4687TIP3    H113997   2.932   4.926   2.484
 4687TIP3    H213998   2.942   5.076   2.461
 4688TIP3   OH213999   2.648   5.268   2.537
 4688TIP3    H114000   2.722   5.279   2.477
 4688TIP3    H214001   2.687   5.279   2.625
 4689TIP3   OH214002   4.593   5.298   2.687
 4689TIP3    H114003   4.507   5.336   2.700
 4689TIP3    H214004   4.577   5.218   2.637
 4690TIP3   OH214005   4.221   4.937   1.291
 4690TIP3    H114006   4.266   4.876   1.233
 4690TIP3    H214007   4.276   5.015   1.293
 4691TIP3   OH214008   2.647   4.780   2.042
 4691TIP3    H114009   2.562   4.769   2.084
 4691TIP3    H214010   2.629   4.834   1.966
 4692TIP3   OH214011   3.809   6.501   1.573
 4692TIP3    H114012   3.860   6.484   1.494
 4692TIP3    H214013   3.853   6.574   1.616
 4693TIP3   OH214014   2.877   4.840   2.863
 4693TIP3    H114015   2.828   4.838   2.945
 4693TIP3    H214016   2.818   4.883   2.801
 4694TIP3   OH214017   2.880   6.304   2.930
 4694TIP3    H114018   2.789   6.275   2.927
 4694TIP3    H214019   2.905   6.295   3.022
 4695TIP3   OH214020   3.105   6.343   2.493
 4695TIP3    H114021   3.056   6.418   2.460
 4695TIP3    H214022   3.191   6.349   2.449
 4696TIP3   OH214023   3.508   6.575   2.629
 4696TIP3    H114024   3.547   6.567   2.716
 4696TIP3    H214025   3.571   6.627   2.579
 4697TIP3   OH214026   3.699   6.727   2.499
 4697TIP3    H114027   3.759   6.674   2.448
 4697TIP3    H214028   3.756   6.783   2.553
 4698TIP3   OH214029   4.510   5.046   2.589
 4698TIP3    H114030   4.422   5.032   2.556
 4698TIP3    H214031   4.552   4.960   2.584
 4699TIP3   OH214032   2.756   6.598   2.534
 4699TIP3    H114033   2.668   6.627   2.513
 4699TIP3    H214034   2.787   6.660   2.601
 4700TIP3   OH214035   2.994   6.573   2.390
 4700TIP3    H114036   2.908   6.582   2.432
 4700TIP3    H214037   2.978   6.594   2.298
 4701TIP3   OH214038   3.417   6.586   2.181
 4701TIP3    H114039   3.349   6.597   2.114
 4701TIP3    H214040   3.427   6.674   2.218
 4702TIP3   OH214041   3.682   6.527   2.233
 4702TIP3    H114042   3.590   6.544   2.210
 4702TIP3    H214043   3.731   6.592   2.183
 4703TIP3   OH214044   3.883   6.699   2.130
 4703TIP3    H114045   3.881   6.785   2.089
 4703TIP3    H214046   3.913   6.640   2.060
 4704TIP3   OH214047   2.677   6.359   2.252
 4704TIP3    H114048   2.705   6.335   2.340
 4704TIP3    H214049   2.748   6.327   2.195
 4705TIP3   OH214050   2.883   6.248   2.115
 4705TIP3    H114051   2.897   6.164   2.160
 4705TIP3    H214052   2.970   6.289   2.115
 4706TIP3   OH214053   3.153   6.331   2.137
 4706TIP3    H114054   3.172   6.239   2.120
 4706TIP3    H214055   3.207   6.354   2.213
 4707TIP3   OH214056   3.716   4.978   2.225
 4707TIP3    H114057   3.676   4.906   2.274
 4707TIP3    H214058   3.784   4.937   2.172
 4708TIP3   OH214059   4.216   4.899   2.120
 4708TIP3    H114060   4.251   4.945   2.044
 4708TIP3    H214061   4.121   4.914   2.116
 4709TIP3   OH214062   4.327   4.970   1.879
 4709TIP3    H114063   4.396   4.910   1.851
 4709TIP3    H214064   4.365   5.057   1.866
 4710TIP3   OH214065   2.953   4.680   2.222
 4710TIP3    H114066   2.864   4.646   2.231
 4710TIP3    H214067   3.008   4.602   2.214
 4711TIP3   OH214068   2.770   4.585   1.873
 4711TIP3    H114069   2.799   4.634   1.796
 4711TIP3    H214070   2.735   4.652   1.932
 4712TIP3   OH214071   3.431   4.721   2.118
 4712TIP3    H114072   3.480   4.764   2.049
 4712TIP3    H214073   3.475   4.748   2.199
 4713TIP3   OH214074   3.930   4.860   2.094
 4713TIP3    H114075   3.944   4.826   2.006
 4713TIP3    H214076   3.936   4.784   2.151
 4714TIP3   OH214077   3.987   4.814   1.659
 4714TIP3    H114078   3.906   4.860   1.683
 4714TIP3    H214079   3.977   4.727   1.697
 4715TIP3   OH214080   2.442   6.162   1.632
 4715TIP3    H114081   2.359   6.131   1.596
 4715TIP3    H214082   2.448   6.254   1.606
 4716TIP3   OH214083   2.881   4.715   1.638
 4716TIP3    H114084   2.927   4.655   1.579
 4716TIP3    H214085   2.950   4.772   1.673
 4717TIP3   OH214086   3.365   4.914   1.734
 4717TIP3    H114087   3.424   4.860   1.786
 4717TIP3    H214088   3.382   5.003   1.764
 4718TIP3   OH214089   3.235   6.305   1.245
 4718TIP3    H114090   3.324   6.326   1.216
 4718TIP3    H214091   3.206   6.238   1.184
 4719TIP3   OH214092   3.949   6.440   1.341
 4719TIP3    H114093   3.943   6.345   1.336
 4719TIP3    H214094   3.898   6.471   1.267
 4720TIP3   OH214095   3.188   4.956   3.106
 4720TIP3    H114096   3.153   4.890   3.167
 4720TIP3    H214097   3.281   4.964   3.130
 4721TIP3   OH214098   3.435   4.966   3.231
 4721TIP3    H114099   3.511   4.945   3.177
 4721TIP3    H214100   3.431   4.895   3.295
 4722TIP3   OH214101   2.561   6.152   1.289
 4722TIP3    H114102   2.562   6.161   1.384
 4722TIP3    H214103   2.642   6.105   1.268
 4723TIP3   OH214104   4.252   5.055   3.015
 4723TIP3    H114105   4.269   5.025   3.104
 4723TIP3    H214106   4.337   5.051   2.971
 4724TIP3   OH214107   4.168   6.590   2.522
 4724TIP3    H114108   4.095   6.561   2.467
 4724TIP3    H214109   4.157   6.685   2.528
 4725TIP3   OH214110   5.384   5.927   1.370
 4725TIP3    H114111   5.385   6.023   1.370
 4725TIP3    H214112   5.337   5.904   1.290
 4726TIP3   OH214113   4.748   5.834   2.028
 4726TIP3    H114114   4.782   5.778   2.098
 4726TIP3    H214115   4.826   5.859   1.978
 4727TIP3   OH214116   5.740   6.236   1.455
 4727TIP3    H114117   5.675   6.247   1.386
 4727TIP3    H214118   5.765   6.325   1.480
 4728TIP3   OH214119   4.722   6.268   1.737
 4728TIP3    H114120   4.707   6.174   1.741
 4728TIP3    H214121   4.816   6.277   1.725
 4729TIP3   OH214122   4.419   5.468   1.501
 4729TIP3    H114123   4.378   5.551   1.525
 4729TIP3    H214124   4.348   5.417   1.462
 4730TIP3   OH214125   4.486   5.759   1.722
 4730TIP3    H114126   4.537   5.683   1.749
 4730TIP3    H214127   4.547   5.813   1.673
 4731TIP3   OH214128   5.305   6.728   1.398
 4731TIP3    H114129   5.366   6.667   1.357
 4731TIP3    H214130   5.308   6.705   1.491
 4732TIP3   OH214131   5.241   6.223   1.682
 4732TIP3    H114132   5.275   6.197   1.596
 4732TIP3    H214133   5.319   6.252   1.730
 4733TIP3   OH214134   6.277   5.509   1.712
 4733TIP3    H114135   6.293   5.593   1.756
 4733TIP3    H214136   6.316   5.519   1.626
 4734TIP3   OH214137   5.009   5.337   1.678
 4734TIP3    H114138   4.981   5.407   1.620
 4734TIP3    H214139   4.960   5.260   1.649
 4735TIP3   OH214140   5.679   5.437   1.339
 4735TIP3    H114141   5.743   5.442   1.410
 4735TIP3    H214142   5.729   5.464   1.261
 4736TIP3   OH214143   4.637   5.547   1.812
 4736TIP3    H114144   4.721   5.530   1.856
 4736TIP3    H214145   4.640   5.495   1.732
 4737TIP3   OH214146   5.058   5.739   1.628
 4737TIP3    H114147   5.148   5.708   1.637
 4737TIP3    H214148   5.011   5.663   1.593
 4738TIP3   OH214149   6.339   5.725   1.877
 4738TIP3    H114150   6.250   5.761   1.868
 4738TIP3    H214151   6.376   5.771   1.952
 4739TIP3   OH214152   4.991   5.340   2.135
 4739TIP3    H114153   4.940   5.373   2.061
 4739TIP3    H214154   4.935   5.355   2.211
 4740TIP3   OH214155   5.343   6.166   1.153
 4740TIP3    H114156   5.296   6.128   1.079
 4740TIP3    H214157   5.288   6.239   1.181
 4741TIP3   OH214158   5.085   6.121   1.890
 4741TIP3    H114159   5.030   6.189   1.929
 4741TIP3    H214160   5.133   6.165   1.820
 4742TIP3   OH214161   5.868   5.477   1.533
 4742TIP3    H114162   5.848   5.452   1.623
 4742TIP3    H214163   5.928   5.552   1.542
 4743TIP3   OH214164   4.885   5.446   1.902
 4743TIP3    H114165   4.943   5.519   1.924
 4743TIP3    H214166   4.929   5.402   1.829
 4744TIP3   OH214167   4.931   6.320   2.006
 4744TIP3    H114168   4.917   6.410   1.976
 4744TIP3    H214169   4.853   6.300   2.058
 4745TIP3   OH214170   4.309   6.022   1.283
 4745TIP3    H114171   4.284   6.044   1.193
 4745TIP3    H214172   4.337   6.106   1.320
 4746TIP3   OH214173   5.771   6.502   1.510
 4746TIP3    H114174   5.678   6.522   1.523
 4746TIP3    H214175   5.798   6.558   1.438
 4747TIP3   OH214176   6.077   5.399   1.877
 4747TIP3    H114177   5.990   5.410   1.839
 4747TIP3    H214178   6.136   5.430   1.808
 4748TIP3   OH214179   5.334   5.032   1.867
 4748TIP3    H114180   5.328   4.939   1.891
 4748TIP3    H214181   5.257   5.072   1.906
 4749TIP3   OH214182   5.475   6.565   1.260
 4749TIP3    H114183   5.524   6.483   1.262
 4749TIP3    H214184   5.539   6.630   1.232
 4750TIP3   OH214185   5.574   6.304   1.243
 4750TIP3    H114186   5.502   6.257   1.200
 4750TIP3    H214187   5.648   6.296   1.184
 4751TIP3   OH214188   5.980   6.409   1.853
 4751TIP3    H114189   5.965   6.337   1.792
 4751TIP3    H214190   5.967   6.488   1.801
 4752TIP3   OH214191   5.250   5.807   1.163
 4752TIP3    H114192   5.171   5.860   1.152
 4752TIP3    H214193   5.250   5.748   1.087
 4753TIP3   OH214194   5.259   5.622   0.961
 4753TIP3    H114195   5.340   5.668   0.940
 4753TIP3    H214196   5.232   5.582   0.878
 4754TIP3   OH214197   6.156   6.072   1.732
 4754TIP3    H114198   6.071   6.115   1.724
 4754TIP3    H214199   6.197   6.084   1.646
 4755TIP3   OH214200   5.600   5.886   1.185
 4755TIP3    H114201   5.553   5.920   1.261
 4755TIP3    H214202   5.682   5.852   1.221
 4756TIP3   OH214203   5.880   5.932   2.025
 4756TIP3    H114204   5.870   6.019   2.064
 4756TIP3    H214205   5.801   5.920   1.972
 4757TIP3   OH214206   4.840   5.872   1.504
 4757TIP3    H114207   4.796   5.812   1.444
 4757TIP3    H214208   4.917   5.824   1.534
 4758TIP3   OH214209   4.978   6.313   1.633
 4758TIP3    H114210   4.954   6.297   1.542
 4758TIP3    H214211   5.069   6.282   1.640
 4759TIP3   OH214212   4.965   5.877   1.854
 4759TIP3    H114213   4.999   5.841   1.772
 4759TIP3    H214214   5.010   5.960   1.866
 4760TIP3   OH214215   5.514   6.510   1.624
 4760TIP3    H114216   5.503   6.594   1.669
 4760TIP3    H214217   5.500   6.444   1.692
 4761TIP3   OH214218   5.128   6.418   2.177
 4761TIP3    H114219   5.067   6.475   2.223
 4761TIP3    H214220   5.073   6.366   2.118
 4762TIP3   OH214221   5.489   5.768   0.957
 4762TIP3    H114222   5.529   5.821   1.026
 4762TIP3    H214223   5.492   5.825   0.879
 4763TIP3   OH214224   4.884   5.962   2.318
 4763TIP3    H114225   4.887   6.056   2.335
 4763TIP3    H214226   4.790   5.943   2.311
 4764TIP3   OH214227   5.240   6.420   1.232
 4764TIP3    H114228   5.307   6.478   1.268
 4764TIP3    H214229   5.166   6.478   1.214
 4765TIP3   OH214230   4.918   6.577   2.260
 4765TIP3    H114231   4.895   6.587   2.168
 4765TIP3    H214232   4.835   6.563   2.305
 4766TIP3   OH214233   5.966   4.992   1.010
 4766TIP3    H114234   5.891   5.009   1.067
 4766TIP3    H214235   5.982   5.075   0.965
 4767TIP3   OH214236   4.705   5.701   1.331
 4767TIP3    H114237   4.637   5.755   1.290
 4767TIP3    H214238   4.671   5.612   1.325
 4768TIP3   OH214239   4.515   6.131   2.209
 4768TIP3    H114240   4.446   6.113   2.145
 4768TIP3    H214241   4.550   6.045   2.232
 4769TIP3   OH214242   4.368   6.318   1.859
 4769TIP3    H114243   4.463   6.332   1.862
 4769TIP3    H214244   4.332   6.397   1.899
 4770TIP3   OH214245   6.213   6.776   1.913
 4770TIP3    H114246   6.218   6.681   1.922
 4770TIP3    H214247   6.131   6.800   1.957
 4771TIP3   OH214248   5.315   6.563   2.038
 4771TIP3    H114249   5.309   6.654   2.068
 4771TIP3    H214250   5.248   6.517   2.089
 4772TIP3   OH214251   5.054   6.602   1.136
 4772TIP3    H114252   4.987   6.564   1.079
 4772TIP3    H214253   5.020   6.689   1.158
 4773TIP3   OH214254   4.519   6.516   1.385
 4773TIP3    H114255   4.566   6.507   1.468
 4773TIP3    H214256   4.480   6.430   1.370
 4774TIP3   OH214257   5.342   6.563   0.725
 4774TIP3    H114258   5.306   6.486   0.682
 4774TIP3    H214259   5.341   6.542   0.818
 4775TIP3   OH214260   5.422   6.724   0.977
 4775TIP3    H114261   5.328   6.737   0.964
 4775TIP3    H214262   5.430   6.634   1.009
 4776TIP3   OH214263   6.106   5.885   2.186
 4776TIP3    H114264   6.028   5.899   2.133
 4776TIP3    H214265   6.123   5.791   2.180
 4777TIP3   OH214266   4.714   6.319   2.177
 4777TIP3    H114267   4.765   6.306   2.257
 4777TIP3    H214268   4.642   6.257   2.184
 4778TIP3   OH214269   5.098   5.126   1.990
 4778TIP3    H114270   5.016   5.090   1.958
 4778TIP3    H214271   5.073   5.205   2.039
 4779TIP3   OH214272   5.638   5.254   2.184
 4779TIP3    H114273   5.709   5.230   2.244
 4779TIP3    H214274   5.558   5.237   2.233
 4780TIP3   OH214275   5.852   5.663   2.104
 4780TIP3    H114276   5.817   5.659   2.194
 4780TIP3    H214277   5.850   5.756   2.082
 4781TIP3   OH214278   5.493   5.754   0.458
 4781TIP3    H114279   5.429   5.823   0.443
 4781TIP3    H214280   5.571   5.800   0.488
 4782TIP3   OH214281   5.226   5.168   0.970
 4782TIP3    H114282   5.178   5.176   1.052
 4782TIP3    H214283   5.191   5.088   0.930
 4783TIP3   OH214284   5.048   5.652   1.995
 4783TIP3    H114285   5.004   5.656   2.080
 4783TIP3    H214286   5.024   5.734   1.952
 4784TIP3   OH214287   4.912   5.536   1.520
 4784TIP3    H114288   4.822   5.513   1.543
 4784TIP3    H214289   4.923   5.503   1.431
 4785TIP3   OH214290   5.411   5.640   1.309
 4785TIP3    H114291   5.360   5.683   1.241
 4785TIP3    H214292   5.475   5.587   1.261
 4786TIP3   OH214293   5.579   5.879   2.319
 4786TIP3    H114294   5.555   5.810   2.381
 4786TIP3    H214295   5.671   5.897   2.337
 4787TIP3   OH214296   4.880   5.669   2.215
 4787TIP3    H114297   4.892   5.733   2.285
 4787TIP3    H214298   4.858   5.588   2.261
 4788TIP3   OH214299   4.937   5.231   0.963
 4788TIP3    H114300   4.907   5.196   1.047
 4788TIP3    H214301   4.884   5.184   0.898
 4789TIP3   OH214302   4.457   5.194   1.803
 4789TIP3    H114303   4.534   5.226   1.849
 4789TIP3    H214304   4.490   5.170   1.716
 4790TIP3   OH214305   4.374   5.171   1.302
 4790TIP3    H114306   4.420   5.200   1.223
 4790TIP3    H214307   4.314   5.242   1.322
 4791TIP3   OH214308   5.654   5.841   1.899
 4791TIP3    H114309   5.667   5.765   1.842
 4791TIP3    H214310   5.589   5.812   1.963
 4792TIP3   OH214311   5.272   5.402   1.600
 4792TIP3    H114312   5.190   5.371   1.639
 4792TIP3    H214313   5.336   5.336   1.625
 4793TIP3   OH214314   4.676   5.407   1.581
 4793TIP3    H114315   4.588   5.413   1.544
 4793TIP3    H214316   4.703   5.317   1.562
 4794TIP3   OH214317   4.928   5.413   1.277
 4794TIP3    H114318   5.019   5.419   1.247
 4794TIP3    H214319   4.875   5.433   1.200
 4795TIP3   OH214320   5.801   5.392   1.787
 4795TIP3    H114321   5.748   5.424   1.860
 4795TIP3    H214322   5.753   5.317   1.753
 4796TIP3   OH214323   4.765   5.461   1.064
 4796TIP3    H114324   4.714   5.401   1.011
 4796TIP3    H214325   4.832   5.495   1.005
 4797TIP3   OH214326   5.930   7.117   2.014
 4797TIP3    H114327   5.928   7.128   1.919
 4797TIP3    H214328   6.009   7.163   2.042
 4798TIP3   OH214329   4.868   6.230   2.410
 4798TIP3    H114330   4.949   6.251   2.456
 4798TIP3    H214331   4.800   6.239   2.476
 4799TIP3   OH214332   5.348   5.664   1.622
 4799TIP3    H114333   5.331   5.570   1.612
 4799TIP3    H214334   5.350   5.678   1.717
 4800TIP3   OH214335   4.822   5.160   1.559
 4800TIP3    H114336   4.794   5.085   1.611
 4800TIP3    H214337   4.840   5.123   1.472
 4801TIP3   OH214338   5.313   5.666   1.894
 4801TIP3    H114339   5.227   5.664   1.935
 4801TIP3    H214340   5.372   5.692   1.965
 4802TIP3   OH214341   5.018   5.942   1.125
 4802TIP3    H114342   4.941   5.892   1.101
 4802TIP3    H214343   4.995   5.985   1.208
 4803TIP3   OH214344   5.925   6.212   1.666
 4803TIP3    H114345   5.982   6.261   1.606
 4803TIP3    H214346   5.847   6.192   1.614
 4804TIP3   OH214347   5.464   5.292   0.973
 4804TIP3    H114348   5.375   5.255   0.973
 4804TIP3    H214349   5.452   5.382   1.004
 4805TIP3   OH214350   5.430   6.288   2.083
 4805TIP3    H114351   5.487   6.278   2.159
 4805TIP3    H214352   5.398   6.378   2.088
 4806TIP3   OH214353   5.533   5.533   1.088
 4806TIP3    H114354   5.624   5.509   1.069
 4806TIP3    H214355   5.517   5.609   1.032
 4807TIP3   OH214356   4.729   5.989   1.726
 4807TIP3    H114357   4.760   5.958   1.641
 4807TIP3    H214358   4.789   5.949   1.790
 4808TIP3   OH214359   5.165   6.073   0.938
 4808TIP3    H114360   5.127   6.160   0.953
 4808TIP3    H214361   5.107   6.014   0.986
 4809TIP3   OH214362   4.609   5.898   2.340
 4809TIP3    H114363   4.611   5.871   2.432
 4809TIP3    H214364   4.534   5.851   2.303
 4810TIP3   OH214365   5.349   6.035   2.364
 4810TIP3    H114366   5.280   5.975   2.336
 4810TIP3    H214367   5.430   5.993   2.334
 4811TIP3   OH214368   5.583   6.565   1.964
 4811TIP3    H114369   5.488   6.562   1.970
 4811TIP3    H214370   5.611   6.610   2.044
 4812TIP3   OH214371   5.979   5.634   0.847
 4812TIP3    H114372   5.948   5.580   0.774
 4812TIP3    H214373   5.943   5.721   0.830
 4813TIP3   OH214374   6.225   6.498   1.945
 4813TIP3    H114375   6.130   6.483   1.946
 4813TIP3    H214376   6.254   6.465   1.860
 4814TIP3   OH214377   5.817   6.395   0.775
 4814TIP3    H114378   5.806   6.304   0.747
 4814TIP3    H214379   5.733   6.436   0.756
 4815TIP3   OH214380   4.836   6.307   1.390
 4815TIP3    H114381   4.839   6.392   1.345
 4815TIP3    H214382   4.743   6.289   1.402
 4816TIP3   OH214383   4.417   5.586   1.114
 4816TIP3    H114384   4.463   5.668   1.130
 4816TIP3    H214385   4.334   5.595   1.162
 4817TIP3   OH214386   4.964   6.069   1.356
 4817TIP3    H114387   4.924   6.156   1.364
 4817TIP3    H214388   4.913   6.013   1.415
 4818TIP3   OH214389   5.135   6.636   1.832
 4818TIP3    H114390   5.171   6.711   1.785
 4818TIP3    H214391   5.209   6.603   1.884
 4819TIP3   OH214392   4.766   6.548   1.275
 4819TIP3    H114393   4.677   6.559   1.309
 4819TIP3    H214394   4.800   6.637   1.267
 4820TIP3   OH214395   5.481   6.284   1.811
 4820TIP3    H114396   5.459   6.282   1.904
 4820TIP3    H214397   5.575   6.266   1.808
 4821TIP3   OH214398   5.538   6.225   0.573
 4821TIP3    H114399   5.483   6.206   0.648
 4821TIP3    H214400   5.476   6.243   0.502
 4822TIP3   OH214401   5.744   6.780   1.858
 4822TIP3    H114402   5.665   6.726   1.865
 4822TIP3    H214403   5.717   6.854   1.803
 4823TIP3   OH214404   4.819   5.420   2.339
 4823TIP3    H114405   4.724   5.430   2.343
 4823TIP3    H214406   4.840   5.364   2.414
 4824TIP3   OH214407   5.650   6.057   0.957
 4824TIP3    H114408   5.587   6.044   1.028
 4824TIP3    H214409   5.709   5.982   0.963
 4825TIP3   OH214410   4.562   6.530   1.996
 4825TIP3    H114411   4.614   6.468   2.047
 4825TIP3    H214412   4.580   6.615   2.036
 4826TIP3   OH214413   4.934   6.201   0.757
 4826TIP3    H114414   4.973   6.116   0.738
 4826TIP3    H214415   4.879   6.186   0.834
 4827TIP3   OH214416   4.793   6.159   1.003
 4827TIP3    H114417   4.866   6.144   1.063
 4827TIP3    H214418   4.751   6.239   1.036
 4828TIP3   OH214419   4.503   5.840   1.204
 4828TIP3    H114420   4.438   5.892   1.250
 4828TIP3    H214421   4.531   5.894   1.130
 4829TIP3   OH214422   5.668   5.476   2.020
 4829TIP3    H114423   5.741   5.528   2.053
 4829TIP3    H214424   5.660   5.403   2.080
 4830TIP3   OH214425   5.548   5.220   1.231
 4830TIP3    H114426   5.523   5.245   1.143
 4830TIP3    H214427   5.589   5.298   1.268
 4831TIP3   OH214428   5.086   6.324   0.982
 4831TIP3    H114429   5.009   6.379   0.968
 4831TIP3    H214430   5.160   6.384   0.973
 4832TIP3   OH214431   5.222   5.418   1.325
 4832TIP3    H114432   5.288   5.481   1.295
 4832TIP3    H214433   5.237   5.412   1.420
 4833TIP3   OH214434   5.502   5.718   2.094
 4833TIP3    H114435   5.524   5.768   2.173
 4833TIP3    H214436   5.551   5.636   2.104
 4834TIP3   OH214437   5.378   5.102   1.411
 4834TIP3    H114438   5.407   5.147   1.490
 4834TIP3    H214439   5.434   5.138   1.342
 4835TIP3   OH214440   4.666   6.386   1.079
 4835TIP3    H114441   4.696   6.430   1.000
 4835TIP3    H214442   4.698   6.442   1.150
 4836TIP3   OH214443   4.877   5.140   1.229
 4836TIP3    H114444   4.871   5.231   1.257
 4836TIP3    H214445   4.971   5.121   1.232
 4837TIP3   OH214446   6.120   5.612   2.091
 4837TIP3    H114447   6.025   5.617   2.099
 4837TIP3    H214448   6.135   5.559   2.013
 4838TIP3   OH214449   4.534   6.033   1.001
 4838TIP3    H114450   4.608   6.093   1.004
 4838TIP3    H214451   4.563   5.962   0.944
 4839TIP3   OH214452   4.437   5.312   1.070
 4839TIP3    H114453   4.449   5.405   1.093
 4839TIP3    H214454   4.356   5.311   1.019
 4840TIP3   OH214455   5.706   6.832   1.486
 4840TIP3    H114456   5.675   6.895   1.420
 4840TIP3    H214457   5.777   6.786   1.442
 4841TIP3   OH214458   4.838   5.037   1.951
 4841TIP3    H114459   4.809   5.005   1.866
 4841TIP3    H214460   4.828   4.962   2.010
 4842TIP3   OH214461   4.367   6.281   1.371
 4842TIP3    H114462   4.328   6.321   1.449
 4842TIP3    H214463   4.322   6.322   1.297
 4843TIP3   OH214464   4.561   6.836   2.413
 4843TIP3    H114465   4.643   6.841   2.462
 4843TIP3    H214466   4.547   6.742   2.399
 4844TIP3   OH214467   5.027   6.739   2.455
 4844TIP3    H114468   5.119   6.714   2.462
 4844TIP3    H214469   4.993   6.686   2.383
 4845TIP3   OH214470   4.936   6.417   0.590
 4845TIP3    H114471   4.922   6.338   0.642
 4845TIP3    H214472   4.920   6.389   0.500
 4846TIP3   OH214473   5.645   6.681   2.205
 4846TIP3    H114474   5.659   6.612   2.270
 4846TIP3    H214475   5.719   6.741   2.217
 4847TIP3   OH214476   4.663   6.231   2.600
 4847TIP3    H114477   4.683   6.138   2.611
 4847TIP3    H214478   4.576   6.232   2.559
 4848TIP3   OH214479   4.597   5.779   0.914
 4848TIP3    H114480   4.672   5.770   0.973
 4848TIP3    H214481   4.627   5.738   0.832
 4849TIP3   OH214482   5.284   6.312   2.379
 4849TIP3    H114483   5.240   6.333   2.297
 4849TIP3    H214484   5.319   6.224   2.365
 4850TIP3   OH214485   5.151   6.045   0.657
 4850TIP3    H114486   5.175   6.066   0.747
 4850TIP3    H214487   5.154   5.950   0.653
 4851TIP3   OH214488   5.742   6.338   1.972
 4851TIP3    H114489   5.824   6.369   1.933
 4851TIP3    H214490   5.684   6.413   1.969
 4852TIP3   OH214491   4.780   5.977   2.608
 4852TIP3    H114492   4.855   5.958   2.552
 4852TIP3    H214493   4.817   5.996   2.694
 4853TIP3   OH214494   4.819   5.761   1.074
 4853TIP3    H114495   4.801   5.706   1.150
 4853TIP3    H214496   4.872   5.706   1.017
 4854TIP3   OH214497   5.141   5.859   2.268
 4854TIP3    H114498   5.055   5.900   2.279
 4854TIP3    H214499   5.172   5.890   2.183
 4855TIP3   OH214500   4.956   5.582   0.913
 4855TIP3    H114501   4.941   5.598   0.820
 4855TIP3    H214502   5.044   5.543   0.916
 4856TIP3   OH214503   5.639   6.234   2.349
 4856TIP3    H114504   5.712   6.201   2.296
 4856TIP3    H214505   5.638   6.178   2.426
 4857TIP3   OH214506   5.732   5.875   0.533
 4857TIP3    H114507   5.761   5.798   0.484
 4857TIP3    H214508   5.764   5.950   0.482
 4858TIP3   OH214509   5.244   5.629   2.376
 4858TIP3    H114510   5.246   5.557   2.312
 4858TIP3    H214511   5.210   5.704   2.327
 4859TIP3   OH214512   5.247   5.428   2.177
 4859TIP3    H114513   5.274   5.459   2.090
 4859TIP3    H214514   5.156   5.399   2.165
 4860TIP3   OH214515   5.251   5.965   2.044
 4860TIP3    H114516   5.338   6.003   2.038
 4860TIP3    H214517   5.195   6.022   1.991
 4861TIP3   OH214518   5.849   5.915   2.418
 4861TIP3    H114519   5.889   5.828   2.420
 4861TIP3    H214520   5.922   5.975   2.404
 4862TIP3   OH214521   5.882   6.185   2.152
 4862TIP3    H114522   5.825   6.238   2.096
 4862TIP3    H214523   5.970   6.203   2.121
 4863TIP3   OH214524   5.130   5.710   2.618
 4863TIP3    H114525   5.060   5.647   2.638
 4863TIP3    H214526   5.158   5.688   2.530
 4864TIP3   OH214527   5.376   5.197   2.271
 4864TIP3    H114528   5.332   5.277   2.243
 4864TIP3    H214529   5.311   5.128   2.259
 4865TIP3   OH214530   5.501   5.668   2.476
 4865TIP3    H114531   5.492   5.655   2.571
 4865TIP3    H214532   5.415   5.647   2.441
 4866TIP3   OH214533   5.749   5.627   2.350
 4866TIP3    H114534   5.671   5.625   2.405
 4866TIP3    H214535   5.820   5.599   2.409
 4867TIP3   OH214536   5.983   5.584   2.498
 4867TIP3    H114537   5.997   5.490   2.504
 4867TIP3    H214538   5.980   5.613   2.589
 4868TIP3   OH214539   4.961   5.491   2.681
 4868TIP3    H114540   4.968   5.404   2.643
 4868TIP3    H214541   5.001   5.483   2.768
 4869TIP3   OH214542   5.443   5.174   2.537
 4869TIP3    H114543   5.512   5.107   2.533
 4869TIP3    H214544   5.414   5.185   2.447
 4870TIP3   OH214545   5.538   5.388   2.683
 4870TIP3    H114546   5.508   5.316   2.627
 4870TIP3    H214547   5.465   5.450   2.683
 4871TIP3   OH214548   4.806   6.646   0.656
 4871TIP3    H114549   4.820   6.559   0.618
 4871TIP3    H214550   4.892   6.670   0.691
 4872TIP3   OH214551   4.257   6.019   1.001
 4872TIP3    H114552   4.352   6.028   0.996
 4872TIP3    H214553   4.239   5.929   0.974
 4873TIP3   OH214554   4.147   6.595   1.444
 4873TIP3    H114555   4.084   6.541   1.397
 4873TIP3    H214556   4.195   6.534   1.500
 4874TIP3   OH214557   4.302   6.430   1.605
 4874TIP3    H114558   4.296   6.365   1.674
 4874TIP3    H214559   4.352   6.502   1.643
 4875TIP3   OH214560   6.056   6.950   1.435
 4875TIP3    H114561   6.046   6.916   1.524
 4875TIP3    H214562   6.016   6.884   1.379
 4876TIP3   OH214563   6.041   6.870   1.699
 4876TIP3    H114564   6.001   6.784   1.694
 4876TIP3    H214565   6.124   6.856   1.745
 4877TIP3   OH214566   6.112   6.573   2.260
 4877TIP3    H114567   6.040   6.583   2.321
 4877TIP3    H214568   6.157   6.657   2.261
 4878TIP3   OH214569   5.955   6.087   0.924
 4878TIP3    H114570   6.020   6.148   0.889
 4878TIP3    H214571   5.993   6.054   1.005
 4879TIP3   OH214572   6.008   5.966   1.156
 4879TIP3    H114573   5.968   5.901   1.213
 4879TIP3    H214574   6.094   5.982   1.194
 4880TIP3   OH214575   6.106   6.333   1.512
 4880TIP3    H114576   6.164   6.261   1.485
 4880TIP3    H214577   6.122   6.402   1.447
 4881TIP3   OH214578   5.916   6.628   1.706
 4881TIP3    H114579   5.846   6.672   1.754
 4881TIP3    H214580   5.873   6.585   1.632
 4882TIP3   OH214581   5.928   5.895   0.724
 4882TIP3    H114582   5.853   5.913   0.668
 4882TIP3    H214583   5.932   5.970   0.784
 4883TIP3   OH214584   5.910   5.496   0.627
 4883TIP3    H114585   5.860   5.546   0.562
 4883TIP3    H214586   5.872   5.408   0.623
 4884TIP3   OH214587   5.845   5.755   1.261
 4884TIP3    H114588   5.844   5.670   1.217
 4884TIP3    H214589   5.884   5.737   1.347
 4885TIP3   OH214590   4.483   5.867   1.974
 4885TIP3    H114591   4.472   5.834   1.885
 4885TIP3    H214592   4.577   5.866   1.990
 4886TIP3   OH214593   6.143   6.225   2.065
 4886TIP3    H114594   6.207   6.155   2.052
 4886TIP3    H214595   6.162   6.288   1.996
 4887TIP3   OH214596   6.316   6.011   2.068
 4887TIP3    H114597   6.243   5.967   2.112
 4887TIP3    H214598   6.392   5.955   2.086
 4888TIP3   OH214599   5.770   5.261   0.660
 4888TIP3    H114600   5.815   5.204   0.597
 4888TIP3    H214601   5.730   5.201   0.723
 4889TIP3   OH214602   5.819   5.526   1.108
 4889TIP3    H114603   5.875   5.452   1.131
 4889TIP3    H214604   5.816   5.525   1.012
 4890TIP3   OH214605   6.009   5.706   1.591
 4890TIP3    H114606   6.094   5.729   1.553
 4890TIP3    H214607   6.013   5.738   1.681
 4891TIP3   OH214608   6.079   5.833   1.840
 4891TIP3    H114609   6.012   5.863   1.902
 4891TIP3    H214610   6.111   5.914   1.800
 4892TIP3   OH214611   4.697   5.548   2.621
 4892TIP3    H114612   4.791   5.544   2.638
 4892TIP3    H214613   4.663   5.466   2.657
 4893TIP3   OH214614   6.540   5.443   2.378
 4893TIP3    H114615   6.606   5.388   2.335
 4893TIP3    H214616   6.500   5.493   2.306
 4894TIP3   OH214617   5.920   5.288   1.194
 4894TIP3    H114618   5.986   5.270   1.261
 4894TIP3    H214619   5.870   5.207   1.188
 4895TIP3   OH214620   4.674   5.261   1.967
 4895TIP3    H114621   4.727   5.182   1.972
 4895TIP3    H214622   4.737   5.331   1.948
 4896TIP3   OH214623   4.454   5.527   2.028
 4896TIP3    H114624   4.505   5.513   1.948
 4896TIP3    H214625   4.480   5.614   2.059
 4897TIP3   OH214626   6.388   5.558   2.181
 4897TIP3    H114627   6.305   5.598   2.206
 4897TIP3    H214628   6.363   5.483   2.127
 4898TIP3   OH214629   5.960   5.239   0.887
 4898TIP3    H114630   5.963   5.198   0.801
 4898TIP3    H214631   5.878   5.288   0.888
 4899TIP3   OH214632   4.442   5.056   1.540
 4899TIP3    H114633   4.355   5.035   1.574
 4899TIP3    H214634   4.426   5.101   1.458
 4900TIP3   OH214635   5.657   6.754   1.174
 4900TIP3    H114636   5.671   6.835   1.126
 4900TIP3    H214637   5.742   6.736   1.216
 4901TIP3   OH214638   4.669   5.103   2.360
 4901TIP3    H114639   4.615   5.089   2.437
 4901TIP3    H214640   4.612   5.148   2.298
 4902TIP3   OH214641   4.691   6.553   2.422
 4902TIP3    H114642   4.598   6.531   2.416
 4902TIP3    H214643   4.712   6.542   2.515
 4903TIP3   OH214644   4.906   6.596   1.979
 4903TIP3    H114645   4.855   6.669   1.946
 4903TIP3    H214646   4.992   6.606   1.937
 4904TIP3   OH214647   5.308   6.830   2.116
 4904TIP3    H114648   5.346   6.822   2.204
 4904TIP3    H214649   5.372   6.881   2.067
 4905TIP3   OH214650   5.498   6.984   1.989
 4905TIP3    H114651   5.557   6.952   1.920
 4905TIP3    H214652   5.554   7.038   2.045
 4906TIP3   OH214653   6.301   5.311   2.075
 4906TIP3    H114654   6.215   5.306   2.033
 4906TIP3    H214655   6.337   5.222   2.069
 4907TIP3   OH214656   4.567   6.836   2.028
 4907TIP3    H114657   4.476   6.854   2.004
 4907TIP3    H214658   4.590   6.904   2.092
 4908TIP3   OH214659   4.795   6.824   1.877
 4908TIP3    H114660   4.713   6.830   1.926
 4908TIP3    H214661   4.772   6.852   1.788
 4909TIP3   OH214662   5.218   6.845   1.670
 4909TIP3    H114663   5.145   6.852   1.609
 4909TIP3    H214664   5.234   6.935   1.700
 4910TIP3   OH214665   5.479   6.767   1.717
 4910TIP3    H114666   5.389   6.797   1.706
 4910TIP3    H214667   5.530   6.825   1.660
 4911TIP3   OH214668   5.678   6.990   1.698
 4911TIP3    H114669   5.661   7.077   1.662
 4911TIP3    H214670   5.698   6.935   1.622
 4912TIP3   OH214671   4.472   6.616   1.749
 4912TIP3    H114672   4.501   6.592   1.837
 4912TIP3    H214673   4.543   6.586   1.692
 4913TIP3   OH214674   4.675   6.504   1.609
 4913TIP3    H114675   4.686   6.420   1.655
 4913TIP3    H214676   4.761   6.544   1.613
 4914TIP3   OH214677   4.941   6.585   1.642
 4914TIP3    H114678   4.956   6.491   1.629
 4914TIP3    H214679   5.000   6.609   1.712
 4915TIP3   OH214680   5.449   5.197   1.662
 4915TIP3    H114681   5.426   5.143   1.739
 4915TIP3    H214682   5.544   5.188   1.654
 4916TIP3   OH214683   6.014   5.163   1.618
 4916TIP3    H114684   6.053   5.204   1.541
 4916TIP3    H214685   5.925   5.198   1.623
 4917TIP3   OH214686   6.120   5.220   1.375
 4917TIP3    H114687   6.189   5.161   1.345
 4917TIP3    H214688   6.158   5.307   1.368
 4918TIP3   OH214689   4.749   4.937   1.710
 4918TIP3    H114690   4.660   4.904   1.718
 4918TIP3    H214691   4.803   4.858   1.700
 4919TIP3   OH214692   4.577   4.854   1.384
 4919TIP3    H114693   4.598   4.897   1.301
 4919TIP3    H214694   4.538   4.923   1.438
 4920TIP3   OH214695   5.215   4.976   1.606
 4920TIP3    H114696   5.260   5.020   1.534
 4920TIP3    H214697   5.261   5.005   1.685
 4921TIP3   OH214698   5.720   5.150   1.618
 4921TIP3    H114699   5.736   5.131   1.526
 4921TIP3    H214700   5.728   5.065   1.662
 4922TIP3   OH214701   5.770   5.059   1.186
 4922TIP3    H114702   5.686   5.104   1.192
 4922TIP3    H214703   5.755   4.975   1.227
 4923TIP3   OH214704   4.241   6.397   1.161
 4923TIP3    H114705   4.152   6.370   1.139
 4923TIP3    H214706   4.243   6.491   1.140
 4924TIP3   OH214707   4.666   4.973   1.142
 4924TIP3    H114708   4.705   4.908   1.083
 4924TIP3    H214709   4.740   5.027   1.170
 4925TIP3   OH214710   5.151   5.167   1.242
 4925TIP3    H114711   5.214   5.111   1.288
 4925TIP3    H214712   5.175   5.256   1.268
 4926TIP3   OH214713   5.074   6.619   0.732
 4926TIP3    H114714   5.168   6.610   0.721
 4926TIP3    H214715   5.037   6.542   0.688
 4927TIP3   OH214716   5.824   6.698   0.786
 4927TIP3    H114717   5.878   6.642   0.731
 4927TIP3    H214718   5.811   6.778   0.735
 4928TIP3   OH214719   4.979   5.221   2.594
 4928TIP3    H114720   4.945   5.154   2.653
 4928TIP3    H214721   5.072   5.229   2.618
 4929TIP3   OH214722   5.227   5.226   2.716
 4929TIP3    H114723   5.304   5.204   2.664
 4929TIP3    H214724   5.222   5.157   2.782
 4930TIP3   OH214725   4.317   6.385   0.885
 4930TIP3    H114726   4.312   6.382   0.981
 4930TIP3    H214727   4.370   6.310   0.861
 4931TIP3   OH214728   6.047   5.313   2.501
 4931TIP3    H114729   6.064   5.283   2.590
 4931TIP3    H214730   6.132   5.308   2.457
 4932TIP3   OH214731   5.965   6.842   2.014
 4932TIP3    H114732   5.892   6.810   1.962
 4932TIP3    H214733   5.951   6.936   2.021
 4933TIP3   OH214734   7.178   6.190   1.258
 4933TIP3    H114735   7.273   6.191   1.250
 4933TIP3    H214736   7.155   6.097   1.259
 4934TIP3   OH214737   6.528   6.081   1.572
 4934TIP3    H114738   6.567   6.029   1.642
 4934TIP3    H214739   6.602   6.110   1.519
 4935TIP3   OH214740   6.473   6.499   1.359
 4935TIP3    H114741   6.466   6.405   1.343
 4935TIP3    H214742   6.557   6.509   1.404
 4936TIP3   OH214743   6.256   5.744   1.111
 4936TIP3    H114744   6.246   5.812   1.045
 4936TIP3    H214745   6.178   5.689   1.101
 4937TIP3   OH214746   6.254   6.020   1.249
 4937TIP3    H114747   6.314   5.948   1.268
 4937TIP3    H214748   6.297   6.071   1.181
 4938TIP3   OH214749   7.152   6.410   1.080
 4938TIP3    H114750   7.133   6.356   1.156
 4938TIP3    H214751   7.135   6.500   1.110
 4939TIP3   OH214752   8.098   5.767   1.219
 4939TIP3    H114753   8.177   5.814   1.247
 4939TIP3    H214754   8.050   5.830   1.167
 4940TIP3   OH214755   7.542   5.875   1.323
 4940TIP3    H114756   7.521   5.827   1.403
 4940TIP3    H214757   7.484   5.838   1.256
 4941TIP3   OH214758   6.791   5.564   1.266
 4941TIP3    H114759   6.832   5.615   1.197
 4941TIP3    H214760   6.747   5.492   1.220
 4942TIP3   OH214761   7.455   5.612   0.845
 4942TIP3    H114762   7.550   5.615   0.843
 4942TIP3    H214763   7.428   5.642   0.758
 4943TIP3   OH214764   6.423   5.821   1.318
 4943TIP3    H114765   6.505   5.781   1.347
 4943TIP3    H214766   6.395   5.768   1.244
 4944TIP3   OH214767   6.823   5.961   1.226
 4944TIP3    H114768   6.917   5.947   1.212
 4944TIP3    H214769   6.784   5.938   1.142
 4945TIP3   OH214770   6.785   5.593   1.646
 4945TIP3    H114771   6.738   5.635   1.573
 4945TIP3    H214772   6.729   5.608   1.722
 4946TIP3   OH214773   6.894   6.365   1.571
 4946TIP3    H114774   6.801   6.383   1.583
 4946TIP3    H214775   6.924   6.431   1.508
 4947TIP3   OH214776   7.739   5.837   1.036
 4947TIP3    H114777   7.751   5.748   1.003
 4947TIP3    H214778   7.828   5.868   1.056
 4948TIP3   OH214779   6.652   5.719   1.430
 4948TIP3    H114780   6.706   5.794   1.455
 4948TIP3    H214781   6.711   5.664   1.378
 4949TIP3   OH214782   6.690   6.595   1.520
 4949TIP3    H114783   6.668   6.688   1.510
 4949TIP3    H214784   6.628   6.563   1.586
 4950TIP3   OH214785   6.145   6.264   0.850
 4950TIP3    H114786   6.139   6.312   0.767
 4950TIP3    H214787   6.145   6.331   0.917
 4951TIP3   OH214788   7.966   5.669   1.441
 4951TIP3    H114789   7.890   5.723   1.419
 4951TIP3    H214790   8.025   5.678   1.367
 4952TIP3   OH214791   7.148   5.211   1.323
 4952TIP3    H114792   7.119   5.140   1.381
 4952TIP3    H214793   7.133   5.291   1.375
 4953TIP3   OH214794   8.007   6.286   1.199
 4953TIP3    H114795   7.938   6.316   1.140
 4953TIP3    H214796   8.088   6.313   1.156
 4954TIP3   OH214797   7.603   6.190   1.567
 4954TIP3    H114798   7.635   6.254   1.630
 4954TIP3    H214799   7.508   6.194   1.575
 4955TIP3   OH214800   6.666   6.182   1.045
 4955TIP3    H114801   6.605   6.149   0.978
 4955TIP3    H214802   6.726   6.110   1.061
 4956TIP3   OH214803   6.717   6.484   1.209
 4956TIP3    H114804   6.630   6.459   1.176
 4956TIP3    H214805   6.719   6.580   1.200
 4957TIP3   OH214806   6.735   6.144   1.400
 4957TIP3    H114807   6.757   6.077   1.335
 4957TIP3    H214808   6.796   6.215   1.383
 4958TIP3   OH214809   7.395   6.820   1.178
 4958TIP3    H114810   7.353   6.880   1.239
 4958TIP3    H214811   7.432   6.751   1.234
 4959TIP3   OH214812   6.909   6.674   1.693
 4959TIP3    H114813   6.843   6.718   1.747
 4959TIP3    H214814   6.857   6.625   1.628
 4960TIP3   OH214815   6.677   6.237   1.812
 4960TIP3    H114816   6.674   6.329   1.839
 4960TIP3    H214817   6.585   6.213   1.801
 4961TIP3   OH214818   6.701   6.812   1.808
 4961TIP3    H114819   6.656   6.820   1.724
 4961TIP3    H214820   6.630   6.802   1.872
 4962TIP3   OH214821   6.544   6.091   0.818
 4962TIP3    H114822   6.483   6.125   0.753
 4962TIP3    H214823   6.536   5.996   0.812
 4963TIP3   OH214824   6.293   6.382   1.712
 4963TIP3    H114825   6.231   6.364   1.642
 4963TIP3    H214826   6.331   6.297   1.734
 4964TIP3   OH214827   6.178   6.524   1.338
 4964TIP3    H114828   6.248   6.576   1.378
 4964TIP3    H214829   6.101   6.581   1.341
 4965TIP3   OH214830   7.062   6.863   1.566
 4965TIP3    H114831   7.082   6.927   1.634
 4965TIP3    H214832   7.018   6.792   1.612
 4966TIP3   OH214833   6.359   6.698   0.893
 4966TIP3    H114834   6.448   6.670   0.915
 4966TIP3    H214835   6.321   6.723   0.976
 4967TIP3   OH214836   7.940   6.186   1.660
 4967TIP3    H114837   7.892   6.182   1.578
 4967TIP3    H214838   7.974   6.098   1.672
 4968TIP3   OH214839   6.504   6.551   1.703
 4968TIP3    H114840   6.548   6.537   1.787
 4968TIP3    H214841   6.427   6.495   1.707
 4969TIP3   OH214842   6.878   5.340   1.482
 4969TIP3    H114843   6.785   5.350   1.463
 4969TIP3    H214844   6.912   5.429   1.482
 4970TIP3   OH214845   7.442   5.504   1.703
 4970TIP3    H114846   7.504   5.474   1.770
 4970TIP3    H214847   7.356   5.479   1.737
 4971TIP3   OH214848   7.705   5.936   1.632
 4971TIP3    H114849   7.649   5.914   1.707
 4971TIP3    H214850   7.668   6.018   1.599
 4972TIP3   OH214851   6.812   5.913   1.538
 4972TIP3    H114852   6.765   5.920   1.621
 4972TIP3    H214853   6.802   5.999   1.497
 4973TIP3   OH214854   6.729   5.921   0.980
 4973TIP3    H114855   6.688   5.834   0.982
 4973TIP3    H214856   6.767   5.927   0.892
 4974TIP3   OH214857   7.391   6.148   1.837
 4974TIP3    H114858   7.357   6.073   1.886
 4974TIP3    H214859   7.485   6.149   1.856
 4975TIP3   OH214860   7.289   5.911   0.894
 4975TIP3    H114861   7.265   6.004   0.898
 4975TIP3    H214862   7.365   5.904   0.952
 4976TIP3   OH214863   6.655   5.922   1.760
 4976TIP3    H114864   6.712   5.968   1.822
 4976TIP3    H214865   6.643   5.835   1.799
 4977TIP3   OH214866   6.251   5.448   1.334
 4977TIP3    H114867   6.313   5.483   1.397
 4977TIP3    H214868   6.286   5.474   1.249
 4978TIP3   OH214869   6.253   5.590   0.836
 4978TIP3    H114870   6.291   5.626   0.756
 4978TIP3    H214871   6.159   5.607   0.828
 4979TIP3   OH214872   7.331   6.188   1.523
 4979TIP3    H114873   7.363   6.167   1.435
 4979TIP3    H214874   7.325   6.103   1.567
 4980TIP3   OH214875   7.044   5.489   1.188
 4980TIP3    H114876   6.955   5.492   1.224
 4980TIP3    H214877   7.100   5.500   1.264
 4981TIP3   OH214878   6.395   5.509   1.108
 4981TIP3    H114879   6.349   5.592   1.093
 4981TIP3    H214880   6.487   5.530   1.095
 4982TIP3   OH214881   6.747   5.735   0.729
 4982TIP3    H114882   6.842   5.730   0.742
 4982TIP3    H214883   6.736   5.731   0.634
 4983TIP3   OH214884   7.555   5.544   1.340
 4983TIP3    H114885   7.536   5.597   1.417
 4983TIP3    H214886   7.471   5.539   1.293
 4984TIP3   OH214887   6.662   6.489   1.924
 4984TIP3    H114888   6.746   6.509   1.966
 4984TIP3    H214889   6.597   6.500   1.994
 4985TIP3   OH214890   7.129   5.927   1.249
 4985TIP3    H114891   7.205   5.869   1.240
 4985TIP3    H214892   7.095   5.908   1.336
 4986TIP3   OH214893   6.679   5.393   1.095
 4986TIP3    H114894   6.624   5.319   1.124
 4986TIP3    H214895   6.722   5.360   1.016
 4987TIP3   OH214896   7.077   5.861   1.498
 4987TIP3    H114897   6.987   5.877   1.526
 4987TIP3    H214898   7.130   5.913   1.558
 4988TIP3   OH214899   7.782   6.410   1.108
 4988TIP3    H114900   7.739   6.496   1.106
 4988TIP3    H214901   7.739   6.363   1.179
 4989TIP3   OH214902   7.256   6.530   1.627
 4989TIP3    H114903   7.298   6.507   1.710
 4989TIP3    H214904   7.263   6.625   1.622
 4990TIP3   OH214905   6.494   6.238   1.286
 4990TIP3    H114906   6.479   6.194   1.202
 4990TIP3    H214907   6.575   6.200   1.319
 4991TIP3   OH214908   6.403   6.168   1.848
 4991TIP3    H114909   6.420   6.144   1.939
 4991TIP3    H214910   6.335   6.107   1.820
 4992TIP3   OH214911   7.150   6.287   1.852
 4992TIP3    H114912   7.086   6.232   1.807
 4992TIP3    H214913   7.235   6.251   1.826
 4993TIP3   OH214914   7.354   6.779   1.528
 4993TIP3    H114915   7.294   6.840   1.485
 4993TIP3    H214916   7.405   6.833   1.587
 4994TIP3   OH214917   7.427   6.378   1.126
 4994TIP3    H114918   7.333   6.394   1.115
 4994TIP3    H214919   7.462   6.378   1.037
 4995TIP3   OH214920   6.619   6.633   0.907
 4995TIP3    H114921   6.685   6.621   0.839
 4995TIP3    H214922   6.597   6.545   0.937
 4996TIP3   OH214923   6.223   5.910   0.373
 4996TIP3    H114924   6.280   5.960   0.432
 4996TIP3    H214925   6.166   5.860   0.432
 4997TIP3   OH214926   6.734   6.289   0.772
 4997TIP3    H114927   6.754   6.337   0.852
 4997TIP3    H214928   6.684   6.213   0.802
 4998TIP3   OH214929   7.004   6.848   1.303
 4998TIP3    H114930   7.036   6.851   1.393
 4998TIP3    H214931   7.049   6.774   1.263
 4999TIP3   OH214932   7.415   6.598   1.334
 4999TIP3    H114933   7.398   6.654   1.409
 4999TIP3    H214934   7.356   6.523   1.346
 5000TIP3   OH214935   6.617   5.660   1.855
 5000TIP3    H114936   6.521   5.665   1.855
 5000TIP3    H214937   6.638   5.597   1.924
 5001TIP3   OH214938   6.307   6.745   1.492
 5001TIP3    H114939   6.382   6.700   1.530
 5001TIP3    H214940   6.296   6.823   1.546
 5002TIP3   OH214941   6.354   6.186   0.647
 5002TIP3    H114942   6.285   6.174   0.713
 5002TIP3    H214943   6.332   6.268   0.603
 5003TIP3   OH214944   7.507   5.720   1.551
 5003TIP3    H114945   7.572   5.759   1.609
 5003TIP3    H214946   7.471   5.647   1.601
 5004TIP3   OH214947   7.042   5.621   0.773
 5004TIP3    H114948   7.105   5.665   0.716
 5004TIP3    H214949   7.072   5.642   0.862
 5005TIP3   OH214950   7.330   5.934   1.620
 5005TIP3    H114951   7.374   5.930   1.705
 5005TIP3    H214952   7.356   5.854   1.575
 5006TIP3   OH214953   7.234   5.411   0.894
 5006TIP3    H114954   7.200   5.428   0.981
 5006TIP3    H214955   7.300   5.479   0.880
 5007TIP3   OH214956   6.745   5.383   0.649
 5007TIP3    H114957   6.681   5.453   0.661
 5007TIP3    H214958   6.728   5.322   0.721
 5008TIP3   OH214959   7.977   5.924   1.578
 5008TIP3    H114960   7.883   5.920   1.597
 5008TIP3    H214961   7.999   5.835   1.551
 5009TIP3   OH214962   7.663   5.986   0.822
 5009TIP3    H114963   7.589   6.027   0.867
 5009TIP3    H214964   7.696   5.921   0.884
 5010TIP3   OH214965   6.339   5.707   0.606
 5010TIP3    H114966   6.351   5.798   0.579
 5010TIP3    H214967   6.259   5.679   0.562
 5011TIP3   OH214968   6.601   5.305   1.444
 5011TIP3    H114969   6.580   5.270   1.357
 5011TIP3    H214970   6.605   5.228   1.501
 5012TIP3   OH214971   6.132   6.576   0.813
 5012TIP3    H114972   6.072   6.563   0.887
 5012TIP3    H214973   6.200   6.634   0.848
 5013TIP3   OH214974   6.357   7.090   1.900
 5013TIP3    H114975   6.437   7.091   1.952
 5013TIP3    H214976   6.337   6.997   1.889
 5014TIP3   OH214977   6.827   7.016   1.942
 5014TIP3    H114978   6.918   6.989   1.950
 5014TIP3    H214979   6.786   6.947   1.889
 5015TIP3   OH214980   7.472   6.921   1.735
 5015TIP3    H114981   7.438   6.847   1.786
 5015TIP3    H214982   7.560   6.936   1.770
 5016TIP3   OH214983   6.452   6.481   2.105
 5016TIP3    H114984   6.470   6.387   2.110
 5016TIP3    H214985   6.368   6.487   2.061
 5017TIP3   OH214986   7.081   6.561   1.876
 5017TIP3    H114987   7.036   6.587   1.795
 5017TIP3    H214988   7.115   6.474   1.858
 5018TIP3   OH214989   7.574   6.586   1.596
 5018TIP3    H114990   7.621   6.640   1.532
 5018TIP3    H214991   7.482   6.608   1.583
 5019TIP3   OH214992   6.573   6.226   2.096
 5019TIP3    H114993   6.646   6.218   2.034
 5019TIP3    H214994   6.615   6.247   2.179
 5020TIP3   OH214995   6.902   6.084   1.776
 5020TIP3    H114996   6.832   6.149   1.783
 5020TIP3    H214997   6.948   6.107   1.696
 5021TIP3   OH214998   7.420   6.476   1.849
 5021TIP3    H114999   7.503   6.463   1.802
 5021TIP3    H215000   7.423   6.415   1.922
 5022TIP3   OH215001   7.043   5.872   1.873
 5022TIP3    H115002   7.044   5.796   1.815
 5022TIP3    H215003   6.996   5.939   1.823
 5023TIP3   OH215004   7.045   5.660   1.698
 5023TIP3    H115005   7.087   5.661   1.612
 5023TIP3    H215006   6.956   5.629   1.680
 5024TIP3   OH215007   7.062   6.155   1.571
 5024TIP3    H115008   7.151   6.182   1.550
 5024TIP3    H215009   7.009   6.234   1.557
 5025TIP3   OH215010   7.658   6.165   1.916
 5025TIP3    H115011   7.715   6.088   1.924
 5025TIP3    H215012   7.710   6.229   1.868
 5026TIP3   OH215013   7.707   6.392   1.717
 5026TIP3    H115014   7.661   6.462   1.672
 5026TIP3    H215015   7.799   6.405   1.695
 5027TIP3   OH215016   6.927   5.967   2.109
 5027TIP3    H115017   6.857   5.904   2.127
 5027TIP3    H215018   6.956   5.946   2.021
 5028TIP3   OH215019   7.180   5.423   1.775
 5028TIP3    H115020   7.152   5.498   1.722
 5028TIP3    H215021   7.117   5.354   1.753
 5029TIP3   OH215022   7.297   5.921   1.964
 5029TIP3    H115023   7.283   5.909   2.058
 5029TIP3    H215024   7.213   5.900   1.924
 5030TIP3   OH215025   7.533   5.865   1.832
 5030TIP3    H115026   7.455   5.870   1.888
 5030TIP3    H215027   7.605   5.852   1.893
 5031TIP3   OH215028   7.765   5.849   1.983
 5031TIP3    H115029   7.780   5.755   1.985
 5031TIP3    H215030   7.760   5.875   2.075
 5032TIP3   OH215031   6.757   5.750   2.169
 5032TIP3    H115032   6.764   5.664   2.128
 5032TIP3    H215033   6.797   5.739   2.255
 5033TIP3   OH215034   7.239   5.423   2.037
 5033TIP3    H115035   7.307   5.356   2.029
 5033TIP3    H215036   7.206   5.433   1.947
 5034TIP3   OH215037   7.332   5.643   2.171
 5034TIP3    H115038   7.302   5.571   2.117
 5034TIP3    H215039   7.260   5.706   2.169
 5035TIP3   OH215040   5.942   6.835   0.983
 5035TIP3    H115041   5.904   6.776   0.917
 5035TIP3    H215042   5.988   6.776   1.043
 5036TIP3   OH215043   6.142   6.680   1.085
 5036TIP3    H115044   6.074   6.640   1.140
 5036TIP3    H215045   6.181   6.748   1.140
 5037TIP3   OH215046   6.276   6.126   1.495
 5037TIP3    H115047   6.267   6.092   1.406
 5037TIP3    H215048   6.369   6.121   1.514
 5038TIP3   OH215049   7.962   6.464   1.644
 5038TIP3    H115050   7.988   6.372   1.644
 5038TIP3    H215051   7.944   6.484   1.552
 5039TIP3   OH215052   7.981   5.970   1.067
 5039TIP3    H115053   8.041   6.009   1.003
 5039TIP3    H215054   7.924   6.043   1.092
 5040TIP3   OH215055   7.818   6.136   1.399
 5040TIP3    H115056   7.734   6.154   1.443
 5040TIP3    H215057   7.798   6.143   1.306
 5041TIP3   OH215058   6.492   5.805   2.110
 5041TIP3    H115059   6.587   5.801   2.125
 5041TIP3    H215060   6.459   5.722   2.145
 5042TIP3   OH215061   6.455   5.530   1.497
 5042TIP3    H115062   6.508   5.452   1.485
 5042TIP3    H215063   6.516   5.603   1.486
 5043TIP3   OH215064   6.256   5.806   1.534
 5043TIP3    H115065   6.308   5.801   1.454
 5043TIP3    H215066   6.295   5.878   1.584
 5044TIP3   OH215067   6.190   5.235   1.071
 5044TIP3    H115068   6.096   5.248   1.054
 5044TIP3    H215069   6.214   5.310   1.127
 5045TIP3   OH215070   6.463   5.352   1.846
 5045TIP3    H115071   6.411   5.346   1.926
 5045TIP3    H215072   6.407   5.399   1.784
 5046TIP3   OH215073   6.480   6.807   1.966
 5046TIP3    H115074   6.390   6.790   1.938
 5046TIP3    H215075   6.479   6.790   2.061
 5047TIP3   OH215076   6.578   6.848   1.570
 5047TIP3    H115077   6.512   6.918   1.571
 5047TIP3    H215078   6.641   6.876   1.503
 5048TIP3   OH215079   7.205   7.132   1.605
 5048TIP3    H115080   7.214   7.105   1.696
 5048TIP3    H215081   7.293   7.160   1.579
 5049TIP3   OH215082   8.142   5.550   1.613
 5049TIP3    H115083   8.080   5.590   1.552
 5049TIP3    H215084   8.179   5.476   1.565
 5050TIP3   OH215085   6.296   6.993   1.621
 5050TIP3    H115086   6.226   7.031   1.567
 5050TIP3    H215087   6.331   7.068   1.669
 5051TIP3   OH215088   6.517   7.103   1.470
 5051TIP3    H115089   6.423   7.097   1.454
 5051TIP3    H215090   6.542   7.187   1.431
 5052TIP3   OH215091   7.139   7.035   1.108
 5052TIP3    H115092   7.063   6.990   1.071
 5052TIP3    H215093   7.143   7.118   1.060
 5053TIP3   OH215094   6.259   6.867   1.243
 5053TIP3    H115095   6.238   6.839   1.332
 5053TIP3    H215096   6.336   6.815   1.219
 5054TIP3   OH215097   6.444   6.688   1.166
 5054TIP3    H115098   6.446   6.617   1.230
 5054TIP3    H215099   6.526   6.735   1.181
 5055TIP3   OH215100   6.725   6.743   1.132
 5055TIP3    H115101   6.693   6.707   1.049
 5055TIP3    H215102   6.801   6.796   1.108
 5056TIP3   OH215103   7.330   5.518   1.148
 5056TIP3    H115104   7.290   5.455   1.208
 5056TIP3    H215105   7.403   5.470   1.109
 5057TIP3   OH215106   7.811   5.409   0.983
 5057TIP3    H115107   7.881   5.463   1.020
 5057TIP3    H215108   7.734   5.429   1.037
 5058TIP3   OH215109   0.581   7.907   2.063
 5058TIP3    H115110   0.574   7.825   2.015
 5058TIP3    H215111   0.661   7.948   2.028
 5059TIP3   OH215112   6.537   5.184   1.202
 5059TIP3    H115113   6.448   5.155   1.219
 5059TIP3    H215114   6.589   5.104   1.202
 5060TIP3   OH215115   6.356   5.062   0.934
 5060TIP3    H115116   6.352   5.116   0.854
 5060TIP3    H215117   6.306   5.111   0.999
 5061TIP3   OH215118   6.989   5.230   1.101
 5061TIP3    H115119   6.972   5.320   1.074
 5061TIP3    H215120   7.044   5.239   1.179
 5062TIP3   OH215121   7.539   5.377   1.060
 5062TIP3    H115122   7.528   5.343   0.971
 5062TIP3    H215123   7.522   5.302   1.117
 5063TIP3   OH215124   6.457   5.291   0.600
 5063TIP3    H115125   6.463   5.332   0.514
 5063TIP3    H215126   6.477   5.362   0.662
 5064TIP3   OH215127   6.911   5.420   0.910
 5064TIP3    H115128   6.909   5.332   0.873
 5064TIP3    H215129   6.970   5.469   0.852
 5065TIP3   OH215130   6.767   5.481   2.076
 5065TIP3    H115131   6.736   5.413   2.136
 5065TIP3    H215132   6.861   5.489   2.096
 5066TIP3   OH215133   7.017   5.484   2.200
 5066TIP3    H115134   7.095   5.462   2.148
 5066TIP3    H215135   7.011   5.413   2.264
 5067TIP3   OH215136   7.835   5.583   1.991
 5067TIP3    H115137   7.847   5.556   2.082
 5067TIP3    H215138   7.920   5.568   1.950
 5068TIP3   OH215139   0.546   6.554   2.873
 5068TIP3    H115140   0.565   6.638   2.915
 5068TIP3    H215141   0.580   6.564   2.784
 5069TIP3   OH215142   8.443   6.411   2.549
 5069TIP3    H115143   8.507   6.460   2.602
 5069TIP3    H215144   8.446   6.453   2.463
 5070TIP3   OH215145   0.602   6.769   3.045
 5070TIP3    H115146   0.511   6.800   3.045
 5070TIP3    H215147   0.639   6.807   3.125
 5071TIP3   OH215148   0.135   6.527   2.706
 5071TIP3    H115149   0.196   6.455   2.694
 5071TIP3    H215150   0.189   6.600   2.737
 5072TIP3   OH215151   0.323   6.481   3.026
 5072TIP3    H115152   0.253   6.526   2.980
 5072TIP3    H215153   0.401   6.498   2.973
 5073TIP3   OH215154   0.221   7.499   2.984
 5073TIP3    H115155   0.199   7.417   2.941
 5073TIP3    H215156   0.185   7.567   2.927
 5074TIP3   OH215157   0.412   7.100   2.905
 5074TIP3    H115158   0.335   7.157   2.906
 5074TIP3    H215159   0.440   7.100   2.813
 5075TIP3   OH215160   0.245   6.040   2.147
 5075TIP3    H115161   0.162   6.070   2.182
 5075TIP3    H215162   0.276   6.113   2.093
 5076TIP3   OH215163   0.356   6.909   3.325
 5076TIP3    H115164   0.291   6.931   3.391
 5076TIP3    H215165   0.357   6.813   3.324
 5077TIP3   OH215166   0.198   7.264   2.829
 5077TIP3    H115167   0.240   7.308   2.756
 5077TIP3    H215168   0.124   7.217   2.789
 5078TIP3   OH215169   0.462   7.445   3.100
 5078TIP3    H115170   0.373   7.477   3.082
 5078TIP3    H215171   0.500   7.428   3.014
 5079TIP3   OH215172   0.340   6.637   3.274
 5079TIP3    H115173   0.285   6.586   3.334
 5079TIP3    H215174   0.336   6.590   3.192
 5080TIP3   OH215175   0.053   6.819   2.655
 5080TIP3    H115176   0.008   6.734   2.649
 5080TIP3    H215177   0.133   6.800   2.703
 5081TIP3   OH215178   0.273   6.642   3.667
 5081TIP3    H115179   0.279   6.548   3.678
 5081TIP3    H215180   0.180   6.663   3.680
 5082TIP3   OH215181   0.337   6.959   2.222
 5082TIP3    H115182   0.265   6.929   2.278
 5082TIP3    H215183   0.394   7.008   2.281
 5083TIP3   OH215184   0.347   7.391   2.636
 5083TIP3    H115185   0.412   7.325   2.613
 5083TIP3    H215186   0.341   7.447   2.558
 5084TIP3   OH215187   0.158   6.838   2.392
 5084TIP3    H115188   0.140   6.746   2.372
 5084TIP3    H215189   0.115   6.852   2.477
 5085TIP3   OH215190   0.377   7.238   3.265
 5085TIP3    H115191   0.443   7.173   3.243
 5085TIP3    H215192   0.388   7.306   3.198
 5086TIP3   OH215193   0.575   7.049   3.247
 5086TIP3    H115194   0.501   6.999   3.281
 5086TIP3    H215195   0.651   6.994   3.265
 5087TIP3   OH215196   0.113   6.571   2.317
 5087TIP3    H115197   0.157   6.487   2.327
 5087TIP3    H215198   0.095   6.578   2.223
 5088TIP3   OH215199   0.275   6.739   2.804
 5088TIP3    H115200   0.355   6.759   2.755
 5088TIP3    H215201   0.289   6.780   2.890
 5089TIP3   OH215202   0.343   6.872   3.037
 5089TIP3    H115203   0.325   6.894   3.129
 5089TIP3    H215204   0.364   6.956   2.996
 5090TIP3   OH215205   0.803   6.498   3.543
 5090TIP3    H115206   0.863   6.434   3.505
 5090TIP3    H215207   0.764   6.541   3.467
 5091TIP3   OH215208   0.214   6.316   2.329
 5091TIP3    H115209   0.259   6.294   2.410
 5091TIP3    H215210   0.147   6.248   2.320
 5092TIP3   OH215211   0.639   6.613   3.357
 5092TIP3    H115212   0.579   6.653   3.420
 5092TIP3    H215213   0.585   6.550   3.309
 5093TIP3   OH215214   0.341   6.234   1.985
 5093TIP3    H115215   0.371   6.184   1.909
 5093TIP3    H215216   0.378   6.321   1.973
 5094TIP3   OH215217   0.552   6.346   3.262
 5094TIP3    H115218   0.465   6.321   3.231
 5094TIP3    H215219   0.603   6.265   3.257
 5095TIP3   OH215220   0.285   6.153   2.750
 5095TIP3    H115221   0.325   6.209   2.684
 5095TIP3    H215222   0.197   6.189   2.762
 5096TIP3   OH215223   0.387   6.295   2.545
 5096TIP3    H115224   0.455   6.236   2.513
 5096TIP3    H215225   0.418   6.383   2.523
 5097TIP3   OH215226   8.523   6.234   2.767
 5097TIP3    H115227   8.473   6.262   2.691
 5097TIP3    H215228   8.490   6.147   2.788
 5098TIP3   OH215229   8.522   6.115   2.297
 5098TIP3    H115230   8.434   6.124   2.259
 5098TIP3    H215231   8.522   6.028   2.337
 5099TIP3   OH215232   0.323   6.373   3.679
 5099TIP3    H115233   0.328   6.344   3.770
 5099TIP3    H215234   0.412   6.364   3.645
 5100TIP3   OH215235   1.512   7.233   1.953
 5100TIP3    H115236   1.455   7.310   1.962
 5100TIP3    H215237   1.456   7.168   1.909
 5101TIP3   OH215238   1.566   7.230   2.393
 5101TIP3    H115239   1.637   7.172   2.420
 5101TIP3    H215240   1.495   7.172   2.366
 5102TIP3   OH215241   0.775   7.142   2.698
 5102TIP3    H115242   0.810   7.086   2.768
 5102TIP3    H215243   0.852   7.171   2.650
 5103TIP3   OH215244   1.771   7.533   2.019
 5103TIP3    H115245   1.753   7.468   2.088
 5103TIP3    H215246   1.794   7.612   2.066
 5104TIP3   OH215247   0.884   7.477   2.451
 5104TIP3    H115248   0.789   7.463   2.447
 5104TIP3    H215249   0.909   7.497   2.361
 5105TIP3   OH215250   0.455   6.714   2.175
 5105TIP3    H115251   0.415   6.802   2.173
 5105TIP3    H215252   0.416   6.673   2.252
 5106TIP3   OH215253   0.533   7.058   2.396
 5106TIP3    H115254   0.575   6.975   2.420
 5106TIP3    H215255   0.605   7.114   2.368
 5107TIP3   OH215256   1.312   7.482   2.426
 5107TIP3    H115257   1.302   7.469   2.331
 5107TIP3    H215258   1.407   7.487   2.438
 5108TIP3   OH215259   2.328   6.813   2.331
 5108TIP3    H115260   2.253   6.869   2.311
 5108TIP3    H215261   2.382   6.816   2.252
 5109TIP3   OH215262   1.058   6.632   2.350
 5109TIP3    H115263   1.038   6.708   2.295
 5109TIP3    H215264   1.006   6.561   2.312
 5110TIP3   OH215265   1.754   6.738   1.990
 5110TIP3    H115266   1.818   6.733   2.061
 5110TIP3    H215267   1.803   6.774   1.916
 5111TIP3   OH215268   0.679   6.838   2.471
 5111TIP3    H115269   0.763   6.822   2.513
 5111TIP3    H215270   0.684   6.791   2.388
 5112TIP3   OH215271   1.124   7.054   2.284
 5112TIP3    H115272   1.217   7.036   2.290
 5112TIP3    H215273   1.085   6.971   2.257
 5113TIP3   OH215274   1.038   6.637   2.797
 5113TIP3    H115275   0.986   6.671   2.724
 5113TIP3    H215276   0.983   6.652   2.874
 5114TIP3   OH215277   1.329   7.620   1.720
 5114TIP3    H115278   1.339   7.554   1.651
 5114TIP3    H215279   1.413   7.620   1.766
 5115TIP3   OH215280   1.157   7.358   2.604
 5115TIP3    H115281   1.096   7.428   2.629
 5115TIP3    H215282   1.213   7.398   2.538
 5116TIP3   OH215283   1.925   6.754   2.201
 5116TIP3    H115284   1.881   6.735   2.284
 5116TIP3    H215285   1.988   6.823   2.222
 5117TIP3   OH215286   0.924   6.741   2.566
 5117TIP3    H115287   0.979   6.815   2.589
 5117TIP3    H215288   0.972   6.696   2.496
 5118TIP3   OH215289   1.022   7.603   2.640
 5118TIP3    H115290   0.957   7.559   2.586
 5118TIP3    H215291   0.972   7.639   2.713
 5119TIP3   OH215292   2.089   6.690   2.512
 5119TIP3    H115293   1.997   6.700   2.487
 5119TIP3    H215294   2.138   6.703   2.430
 5120TIP3   OH215295   1.383   6.329   2.530
 5120TIP3    H115296   1.373   6.237   2.555
 5120TIP3    H215297   1.307   6.373   2.569
 5121TIP3   OH215298   1.769   7.571   1.724
 5121TIP3    H115299   1.759   7.502   1.659
 5121TIP3    H215300   1.754   7.527   1.808
 5122TIP3   OH215301   2.083   7.746   2.423
 5122TIP3    H115302   2.080   7.664   2.372
 5122TIP3    H215303   2.127   7.808   2.365
 5123TIP3   OH215304   1.345   7.107   1.766
 5123TIP3    H115305   1.266   7.161   1.759
 5123TIP3    H215306   1.385   7.112   1.679
 5124TIP3   OH215307   1.374   6.849   1.527
 5124TIP3    H115308   1.430   6.924   1.547
 5124TIP3    H215309   1.420   6.804   1.455
 5125TIP3   OH215310   2.222   7.351   2.430
 5125TIP3    H115311   2.128   7.371   2.423
 5125TIP3    H215312   2.251   7.344   2.339
 5126TIP3   OH215313   1.695   7.201   1.752
 5126TIP3    H115314   1.638   7.216   1.827
 5126TIP3    H215315   1.776   7.167   1.790
 5127TIP3   OH215316   1.976   7.286   2.600
 5127TIP3    H115317   1.934   7.371   2.611
 5127TIP3    H215318   1.920   7.239   2.538
 5128TIP3   OH215319   0.925   7.187   2.137
 5128TIP3    H115320   0.883   7.120   2.083
 5128TIP3    H215321   0.999   7.142   2.177
 5129TIP3   OH215322   0.958   7.556   2.207
 5129TIP3    H115323   0.978   7.524   2.119
 5129TIP3    H215324   1.028   7.618   2.226
 5130TIP3   OH215325   0.998   7.161   2.503
 5130TIP3    H115326   1.042   7.131   2.424
 5130TIP3    H215327   1.049   7.236   2.533
 5131TIP3   OH215328   1.209   7.619   2.845
 5131TIP3    H115329   1.263   7.694   2.819
 5131TIP3    H215330   1.163   7.594   2.765
 5132TIP3   OH215331   1.540   7.066   1.561
 5132TIP3    H115332   1.599   7.122   1.612
 5132TIP3    H215333   1.564   7.082   1.470
 5133TIP3   OH215334   0.931   7.286   2.965
 5133TIP3    H115335   0.929   7.363   3.021
 5133TIP3    H215336   0.844   7.247   2.974
 5134TIP3   OH215337   2.018   6.296   1.626
 5134TIP3    H115338   1.941   6.316   1.678
 5134TIP3    H215339   2.029   6.372   1.569
 5135TIP3   OH215340   0.783   7.013   1.977
 5135TIP3    H115341   0.745   7.043   1.895
 5135TIP3    H215342   0.733   6.935   2.000
 5136TIP3   OH215343   0.560   7.359   2.861
 5136TIP3    H115344   0.508   7.310   2.798
 5136TIP3    H215345   0.610   7.292   2.908
 5137TIP3   OH215346   2.146   7.181   2.836
 5137TIP3    H115347   2.100   7.253   2.878
 5137TIP3    H215348   2.183   7.130   2.909
 5138TIP3   OH215349   0.752   7.505   2.742
 5138TIP3    H115350   0.812   7.540   2.808
 5138TIP3    H215351   0.681   7.466   2.792
 5139TIP3   OH215352   1.145   6.423   2.654
 5139TIP3    H115353   1.062   6.391   2.620
 5139TIP3    H215354   1.123   6.504   2.699
 5140TIP3   OH215355   1.676   6.545   2.842
 5140TIP3    H115356   1.746   6.526   2.904
 5140TIP3    H215357   1.595   6.528   2.890
 5141TIP3   OH215358   1.895   7.037   2.762
 5141TIP3    H115359   1.857   6.991   2.837
 5141TIP3    H215360   1.836   7.017   2.689
 5142TIP3   OH215361   1.603   7.081   1.293
 5142TIP3    H115362   1.588   7.071   1.199
 5142TIP3    H215363   1.692   7.116   1.300
 5143TIP3   OH215364   1.302   6.454   1.640
 5143TIP3    H115365   1.268   6.466   1.728
 5143TIP3    H215366   1.270   6.368   1.613
 5144TIP3   OH215367   1.080   6.949   2.655
 5144TIP3    H115368   1.034   6.959   2.739
 5144TIP3    H215369   1.053   7.025   2.604
 5145TIP3   OH215370   0.965   6.843   2.202
 5145TIP3    H115371   0.874   6.818   2.221
 5145TIP3    H215372   0.979   6.815   2.111
 5146TIP3   OH215373   1.452   6.894   1.894
 5146TIP3    H115374   1.406   6.965   1.849
 5146TIP3    H215375   1.516   6.863   1.830
 5147TIP3   OH215376   1.665   7.173   2.979
 5147TIP3    H115377   1.632   7.100   3.031
 5147TIP3    H215378   1.758   7.178   3.002
 5148TIP3   OH215379   1.579   6.914   2.135
 5148TIP3    H115380   1.525   6.923   2.056
 5148TIP3    H215381   1.639   6.842   2.114
 5149TIP3   OH215382   0.904   6.961   2.872
 5149TIP3    H115383   0.970   7.009   2.923
 5149TIP3    H215384   0.889   6.881   2.923
 5150TIP3   OH215385   0.979   6.460   1.608
 5150TIP3    H115386   0.975   6.499   1.695
 5150TIP3    H215387   0.902   6.403   1.603
 5151TIP3   OH215388   0.495   6.532   2.458
 5151TIP3    H115389   0.576   6.547   2.507
 5151TIP3    H215390   0.523   6.483   2.381
 5152TIP3   OH215391   0.459   6.488   1.994
 5152TIP3    H115392   0.472   6.487   1.899
 5152TIP3    H215393   0.457   6.581   2.018
 5153TIP3   OH215394   1.329   6.627   2.242
 5153TIP3    H115395   1.250   6.624   2.296
 5153TIP3    H215396   1.402   6.618   2.303
 5154TIP3   OH215397   0.725   6.707   2.235
 5154TIP3    H115398   0.636   6.698   2.200
 5154TIP3    H215399   0.764   6.620   2.224
 5155TIP3   OH215400   0.995   6.731   1.957
 5155TIP3    H115401   1.090   6.735   1.946
 5155TIP3    H215402   0.960   6.742   1.869
 5156TIP3   OH215403   1.816   6.716   2.453
 5156TIP3    H115404   1.790   6.801   2.489
 5156TIP3    H215405   1.735   6.666   2.447
 5157TIP3   OH215406   0.858   6.732   1.723
 5157TIP3    H115407   0.772   6.690   1.731
 5157TIP3    H215408   0.876   6.732   1.629
 5158TIP3   OH215409   0.916   7.508   3.138
 5158TIP3    H115410   0.986   7.509   3.204
 5158TIP3    H215411   0.835   7.499   3.189
 5159TIP3   OH215412   1.398   6.999   2.335
 5159TIP3    H115413   1.462   6.965   2.272
 5159TIP3    H215414   1.402   6.938   2.408
 5160TIP3   OH215415   0.868   6.466   2.220
 5160TIP3    H115416   0.841   6.388   2.268
 5160TIP3    H215417   0.887   6.434   2.132
 5161TIP3   OH215418   1.344   6.876   2.611
 5161TIP3    H115419   1.255   6.909   2.624
 5161TIP3    H215420   1.400   6.938   2.657
 5162TIP3   OH215421   1.112   7.259   1.789
 5162TIP3    H115422   1.061   7.182   1.765
 5162TIP3    H215423   1.058   7.306   1.852
 5163TIP3   OH215424   1.977   7.468   2.348
 5163TIP3    H115425   2.019   7.506   2.272
 5163TIP3    H215426   1.898   7.426   2.314
 5164TIP3   OH215427   1.550   6.570   1.624
 5164TIP3    H115428   1.457   6.547   1.625
 5164TIP3    H215429   1.551   6.666   1.632
 5165TIP3   OH215430   1.523   7.499   2.742
 5165TIP3    H115431   1.547   7.483   2.833
 5165TIP3    H215432   1.448   7.558   2.746
 5166TIP3   OH215433   1.630   6.832   1.695
 5166TIP3    H115434   1.725   6.826   1.708
 5166TIP3    H215435   1.619   6.905   1.635
 5167TIP3   OH215436   0.763   7.204   2.362
 5167TIP3    H115437   0.802   7.214   2.275
 5167TIP3    H215438   0.837   7.186   2.420
 5168TIP3   OH215439   1.286   7.388   1.564
 5168TIP3    H115440   1.206   7.438   1.552
 5168TIP3    H215441   1.262   7.299   1.538
 5169TIP3   OH215442   0.679   7.172   3.018
 5169TIP3    H115443   0.694   7.155   3.111
 5169TIP3    H215444   0.603   7.118   2.995
 5170TIP3   OH215445   1.434   7.315   3.014
 5170TIP3    H115446   1.383   7.288   2.937
 5170TIP3    H215447   1.519   7.273   3.001
 5171TIP3   OH215448   2.295   7.699   2.586
 5171TIP3    H115449   2.209   7.730   2.560
 5171TIP3    H215450   2.340   7.678   2.504
 5172TIP3   OH215451   1.761   7.347   2.224
 5172TIP3    H115452   1.683   7.324   2.275
 5172TIP3    H215453   1.787   7.264   2.183
 5173TIP3   OH215454   0.959   7.400   1.970
 5173TIP3    H115455   0.870   7.401   1.934
 5173TIP3    H215456   0.956   7.333   2.039
 5174TIP3   OH215457   1.587   7.492   2.474
 5174TIP3    H115458   1.568   7.500   2.567
 5174TIP3    H215459   1.592   7.397   2.459
 5175TIP3   OH215460   1.485   7.407   1.370
 5175TIP3    H115461   1.568   7.386   1.414
 5175TIP3    H215462   1.419   7.399   1.439
 5176TIP3   OH215463   0.873   6.712   3.006
 5176TIP3    H115464   0.778   6.721   3.015
 5176TIP3    H215465   0.900   6.667   3.085
 5177TIP3   OH215466   1.703   7.365   1.536
 5177TIP3    H115467   1.696   7.306   1.611
 5177TIP3    H215468   1.797   7.369   1.517
 5178TIP3   OH215469   1.703   6.807   2.747
 5178TIP3    H115470   1.742   6.827   2.832
 5178TIP3    H215471   1.687   6.712   2.749
 5179TIP3   OH215472   1.606   6.523   1.894
 5179TIP3    H115473   1.587   6.542   1.803
 5179TIP3    H215474   1.650   6.602   1.927
 5180TIP3   OH215475   1.268   6.719   1.988
 5180TIP3    H115476   1.334   6.780   1.957
 5180TIP3    H215477   1.293   6.702   2.079
 5181TIP3   OH215478   1.535   7.032   2.746
 5181TIP3    H115479   1.582   7.080   2.814
 5181TIP3    H215480   1.590   6.955   2.730
 5182TIP3   OH215481   1.429   6.416   2.078
 5182TIP3    H115482   1.407   6.494   2.130
 5182TIP3    H215483   1.496   6.447   2.017
 5183TIP3   OH215484   0.944   6.459   1.928
 5183TIP3    H115485   0.946   6.553   1.947
 5183TIP3    H215486   1.035   6.435   1.914
 5184TIP3   OH215487   2.142   6.954   2.626
 5184TIP3    H115488   2.097   6.876   2.657
 5184TIP3    H215489   2.176   6.930   2.540
 5185TIP3   OH215490   1.802   7.084   2.144
 5185TIP3    H115491   1.718   7.040   2.130
 5185TIP3    H215492   1.822   7.070   2.237
 5186TIP3   OH215493   0.882   6.340   2.613
 5186TIP3    H115494   0.855   6.308   2.527
 5186TIP3    H215495   0.875   6.264   2.670
 5187TIP3   OH215496   0.679   7.436   3.270
 5187TIP3    H115497   0.728   7.353   3.266
 5187TIP3    H215498   0.610   7.426   3.205
 5188TIP3   OH215499   1.295   7.541   3.087
 5188TIP3    H115500   1.268   7.569   2.999
 5188TIP3    H215501   1.353   7.467   3.072
 5189TIP3   OH215502   1.810   7.504   2.690
 5189TIP3    H115503   1.796   7.594   2.720
 5189TIP3    H215504   1.723   7.464   2.692
 5190TIP3   OH215505   0.858   7.226   3.269
 5190TIP3    H115506   0.935   7.173   3.247
 5190TIP3    H215507   0.875   7.259   3.357
 5191TIP3   OH215508   0.974   7.036   1.726
 5191TIP3    H115509   0.920   6.979   1.781
 5191TIP3    H215510   1.018   6.976   1.666
 5192TIP3   OH215511   1.134   7.112   2.924
 5192TIP3    H115512   1.070   7.182   2.940
 5192TIP3    H215513   1.202   7.153   2.870
 5193TIP3   OH215514   1.110   6.897   1.533
 5193TIP3    H115515   1.111   6.878   1.439
 5193TIP3    H215516   1.199   6.876   1.563
 5194TIP3   OH215517   1.680   7.517   3.014
 5194TIP3    H115518   1.720   7.432   3.031
 5194TIP3    H215519   1.638   7.541   3.097
 5195TIP3   OH215520   1.836   7.205   1.198
 5195TIP3    H115521   1.851   7.132   1.139
 5195TIP3    H215522   1.788   7.269   1.146
 5196TIP3   OH215523   1.298   6.922   3.036
 5196TIP3    H115524   1.300   6.846   2.979
 5196TIP3    H215525   1.244   6.986   2.989
 5197TIP3   OH215526   1.296   6.718   2.842
 5197TIP3    H115527   1.324   6.754   2.759
 5197TIP3    H215528   1.205   6.692   2.827
 5198TIP3   OH215529   1.329   7.229   2.776
 5198TIP3    H115530   1.397   7.179   2.730
 5198TIP3    H215531   1.281   7.273   2.706
 5199TIP3   OH215532   1.918   7.198   3.113
 5199TIP3    H115533   1.965   7.118   3.138
 5199TIP3    H215534   1.983   7.268   3.123
 5200TIP3   OH215535   2.004   7.427   2.870
 5200TIP3    H115536   1.923   7.445   2.823
 5200TIP3    H215537   2.073   7.441   2.805
 5201TIP3   OH215538   1.171   7.014   3.274
 5201TIP3    H115539   1.105   6.948   3.298
 5201TIP3    H215540   1.202   6.987   3.188
 5202TIP3   OH215541   1.419   6.489   2.938
 5202TIP3    H115542   1.377   6.570   2.907
 5202TIP3    H215543   1.354   6.421   2.924
 5203TIP3   OH215544   1.561   6.964   3.124
 5203TIP3    H115545   1.550   6.953   3.218
 5203TIP3    H215546   1.474   6.946   3.087
 5204TIP3   OH215547   1.802   6.899   2.986
 5204TIP3    H115548   1.726   6.906   3.044
 5204TIP3    H215549   1.876   6.889   3.045
 5205TIP3   OH215550   2.035   6.888   3.146
 5205TIP3    H115551   2.048   6.793   3.152
 5205TIP3    H215552   2.026   6.916   3.237
 5206TIP3   OH215553   1.015   6.789   3.339
 5206TIP3    H115554   1.020   6.700   3.305
 5206TIP3    H215555   1.050   6.783   3.428
 5207TIP3   OH215556   1.490   6.473   3.202
 5207TIP3    H115557   1.557   6.405   3.197
 5207TIP3    H215558   1.458   6.483   3.112
 5208TIP3   OH215559   1.583   6.692   3.343
 5208TIP3    H115560   1.553   6.618   3.290
 5208TIP3    H215561   1.511   6.755   3.340
 5209TIP3   OH215562   2.237   7.913   3.026
 5209TIP3    H115563   2.226   7.953   2.939
 5209TIP3    H215564   2.330   7.923   3.045
 5210TIP3   OH215565   1.974   7.387   1.567
 5210TIP3    H115566   2.034   7.429   1.505
 5210TIP3    H215567   2.028   7.323   1.613
 5211TIP3   OH215568   2.116   7.219   1.742
 5211TIP3    H115569   2.047   7.185   1.799
 5211TIP3    H215570   2.171   7.272   1.800
 5212TIP3   OH215571   2.151   7.593   2.178
 5212TIP3    H115572   2.194   7.517   2.140
 5212TIP3    H215573   2.128   7.649   2.104
 5213TIP3   OH215574   1.805   6.821   1.357
 5213TIP3    H115575   1.878   6.879   1.336
 5213TIP3    H215576   1.828   6.737   1.318
 5214TIP3   OH215577   1.911   7.088   1.886
 5214TIP3    H115578   1.918   6.996   1.863
 5214TIP3    H215579   1.885   7.088   1.978
 5215TIP3   OH215580   0.508   7.153   2.654
 5215TIP3    H115581   0.494   7.117   2.566
 5215TIP3    H215582   0.603   7.152   2.666
 5216TIP3   OH215583   2.224   7.469   2.713
 5216TIP3    H115584   2.217   7.400   2.647
 5216TIP3    H215585   2.247   7.547   2.664
 5217TIP3   OH215586   1.840   6.552   1.284
 5217TIP3    H115587   1.905   6.534   1.352
 5217TIP3    H215588   1.760   6.510   1.316
 5218TIP3   OH215589   1.905   6.823   1.758
 5218TIP3    H115590   1.949   6.740   1.774
 5218TIP3    H215591   1.942   6.855   1.676
 5219TIP3   OH215592   2.088   6.953   2.314
 5219TIP3    H115593   2.132   7.021   2.263
 5219TIP3    H215594   2.012   6.997   2.352
 5220TIP3   OH215595   0.754   6.846   3.273
 5220TIP3    H115596   0.847   6.846   3.296
 5220TIP3    H215597   0.719   6.766   3.312
 5221TIP3   OH215598   2.590   6.742   3.039
 5221TIP3    H115599   2.656   6.687   2.996
 5221TIP3    H215600   2.548   6.789   2.967
 5222TIP3   OH215601   2.017   6.576   1.807
 5222TIP3    H115602   2.061   6.560   1.891
 5222TIP3    H215603   1.953   6.505   1.799
 5223TIP3   OH215604   0.714   6.559   2.634
 5223TIP3    H115605   0.768   6.480   2.636
 5223TIP3    H215606   0.776   6.630   2.615
 5224TIP3   OH215607   0.513   6.825   2.698
 5224TIP3    H115608   0.552   6.810   2.612
 5224TIP3    H215609   0.564   6.896   2.735
 5225TIP3   OH215610   2.429   6.853   2.851
 5225TIP3    H115611   2.362   6.920   2.863
 5225TIP3    H215612   2.391   6.792   2.788
 5226TIP3   OH215613   2.062   6.496   1.442
 5226TIP3    H115614   2.112   6.435   1.388
 5226TIP3    H215615   2.116   6.575   1.445
 5227TIP3   OH215616   0.484   6.363   2.235
 5227TIP3    H115617   0.393   6.339   2.248
 5227TIP3    H215618   0.485   6.406   2.149
 5228TIP3   OH215619   0.708   6.387   3.025
 5228TIP3    H115620   0.658   6.388   3.106
 5228TIP3    H215621   0.656   6.439   2.964
 5229TIP3   OH215622   2.338   6.610   2.729
 5229TIP3    H115623   2.250   6.586   2.700
 5229TIP3    H215624   2.388   6.528   2.722
 5230TIP3   OH215625   1.551   6.535   2.382
 5230TIP3    H115626   1.514   6.459   2.428
 5230TIP3    H215627   1.624   6.499   2.331
 5231TIP3   OH215628   2.055   6.458   2.269
 5231TIP3    H115629   2.091   6.504   2.193
 5231TIP3    H215630   1.962   6.477   2.268
 5232TIP3   OH215631   2.172   6.526   2.031
 5232TIP3    H115632   2.241   6.466   2.001
 5232TIP3    H215633   2.209   6.614   2.016
 5233TIP3   OH215634   0.797   6.241   2.370
 5233TIP3    H115635   0.706   6.210   2.373
 5233TIP3    H215636   0.849   6.161   2.360
 5234TIP3   OH215637   0.627   6.139   2.082
 5234TIP3    H115638   0.665   6.186   2.008
 5234TIP3    H215639   0.567   6.202   2.123
 5235TIP3   OH215640   1.275   6.277   2.270
 5235TIP3    H115641   1.325   6.322   2.202
 5235TIP3    H215642   1.316   6.304   2.352
 5236TIP3   OH215643   1.768   6.422   2.249
 5236TIP3    H115644   1.780   6.389   2.160
 5236TIP3    H215645   1.774   6.344   2.304
 5237TIP3   OH215646   1.827   6.372   1.810
 5237TIP3    H115647   1.746   6.418   1.833
 5237TIP3    H215648   1.816   6.284   1.848
 5238TIP3   OH215649   0.733   6.288   1.881
 5238TIP3    H115650   0.735   6.279   1.786
 5238TIP3    H215651   0.805   6.348   1.901
 5239TIP3   OH215652   1.216   6.468   1.898
 5239TIP3    H115653   1.275   6.414   1.952
 5239TIP3    H215654   1.235   6.557   1.926
 5240TIP3   OH215655   1.024   6.520   3.250
 5240TIP3    H115656   0.988   6.453   3.309
 5240TIP3    H215657   1.116   6.528   3.275
 5241TIP3   OH215658   1.271   6.526   3.373
 5241TIP3    H115659   1.349   6.503   3.323
 5241TIP3    H215660   1.263   6.457   3.438
 5242TIP3   OH215661   2.093   6.615   3.159
 5242TIP3    H115662   2.107   6.587   3.249
 5242TIP3    H215663   2.179   6.608   3.117
 5243TIP3   OH215664   3.287   7.513   1.431
 5243TIP3    H115665   3.263   7.601   1.403
 5243TIP3    H215666   3.213   7.458   1.406
 5244TIP3   OH215667   3.296   7.522   1.825
 5244TIP3    H115668   3.343   7.508   1.907
 5244TIP3    H215669   3.251   7.439   1.810
 5245TIP3   OH215670   2.594   7.397   2.207
 5245TIP3    H115671   2.629   7.330   2.265
 5245TIP3    H215672   2.665   7.414   2.144
 5246TIP3   OH215673   3.545   7.799   1.491
 5246TIP3    H115674   3.544   7.726   1.554
 5246TIP3    H215675   3.513   7.874   1.541
 5247TIP3   OH215676   2.609   7.787   1.924
 5247TIP3    H115677   2.584   7.695   1.917
 5247TIP3    H215678   2.695   7.792   1.882
 5248TIP3   OH215679   2.271   7.014   1.627
 5248TIP3    H115680   2.219   7.086   1.664
 5248TIP3    H215681   2.224   6.989   1.548
 5249TIP3   OH215682   2.337   7.332   1.892
 5249TIP3    H115683   2.386   7.250   1.904
 5249TIP3    H215684   2.403   7.394   1.861
 5250TIP3   OH215685   3.126   7.746   1.840
 5250TIP3    H115686   3.172   7.670   1.804
 5250TIP3    H215687   3.195   7.799   1.880
 5251TIP3   OH215688   4.125   7.067   1.853
 5251TIP3    H115689   4.142   7.153   1.892
 5251TIP3    H215690   4.153   7.077   1.762
 5252TIP3   OH215691   3.502   7.231   1.878
 5252TIP3    H115692   3.537   7.145   1.904
 5252TIP3    H215693   3.461   7.214   1.794
 5253TIP3   OH215694   2.854   6.891   1.833
 5253TIP3    H115695   2.835   6.963   1.774
 5253TIP3    H215696   2.801   6.818   1.800
 5254TIP3   OH215697   3.537   6.987   1.491
 5254TIP3    H115698   3.605   6.980   1.558
 5254TIP3    H215699   3.583   7.023   1.415
 5255TIP3   OH215700   2.476   7.104   1.966
 5255TIP3    H115701   2.558   7.083   2.010
 5255TIP3    H215702   2.479   7.054   1.885
 5256TIP3   OH215703   2.900   7.299   1.775
 5256TIP3    H115704   2.995   7.287   1.780
 5256TIP3    H215705   2.867   7.217   1.737
 5257TIP3   OH215706   4.183   7.289   2.019
 5257TIP3    H115707   4.093   7.323   2.015
 5257TIP3    H215708   4.219   7.327   2.099
 5258TIP3   OH215709   2.843   6.894   2.283
 5258TIP3    H115710   2.787   6.930   2.214
 5258TIP3    H215711   2.792   6.903   2.363
 5259TIP3   OH215712   3.207   7.735   1.290
 5259TIP3    H115713   3.160   7.722   1.207
 5259TIP3    H215714   3.276   7.797   1.268
 5260TIP3   OH215715   3.007   7.592   2.035
 5260TIP3    H115716   2.942   7.648   2.076
 5260TIP3    H215717   3.048   7.647   1.968
 5261TIP3   OH215718   3.711   7.016   1.698
 5261TIP3    H115719   3.673   6.994   1.783
 5261TIP3    H215720   3.769   7.090   1.716
 5262TIP3   OH215721   2.724   6.999   2.054
 5262TIP3    H115722   2.781   7.072   2.077
 5262TIP3    H215723   2.768   6.956   1.980
 5263TIP3   OH215724   2.812   7.709   2.178
 5263TIP3    H115725   2.802   7.797   2.142
 5263TIP3    H215726   2.733   7.695   2.230
 5264TIP3   OH215727   2.137   7.539   1.399
 5264TIP3    H115728   2.112   7.537   1.307
 5264TIP3    H215729   2.128   7.631   1.424
 5265TIP3   OH215730   3.926   6.962   2.024
 5265TIP3    H115731   3.840   6.982   1.985
 5265TIP3    H215732   3.989   6.988   1.957
 5266TIP3   OH215733   3.183   6.590   2.014
 5266TIP3    H115734   3.175   6.498   2.038
 5266TIP3    H215735   3.105   6.631   2.053
 5267TIP3   OH215736   3.447   7.865   1.238
 5267TIP3    H115737   3.464   7.794   1.176
 5267TIP3    H215738   3.493   7.838   1.318
 5268TIP3   OH215739   3.807   7.993   1.989
 5268TIP3    H115740   3.802   7.916   1.933
 5268TIP3    H215741   3.783   8.066   1.932
 5269TIP3   OH215742   3.101   7.364   1.286
 5269TIP3    H115743   3.023   7.415   1.265
 5269TIP3    H215744   3.148   7.357   1.203
 5270TIP3   OH215745   3.083   7.151   0.981
 5270TIP3    H115746   3.145   7.210   1.024
 5270TIP3    H215747   3.136   7.100   0.920
 5271TIP3   OH215748   4.005   7.630   1.869
 5271TIP3    H115749   3.923   7.678   1.870
 5271TIP3    H215750   4.039   7.642   1.780
 5272TIP3   OH215751   3.475   7.440   1.247
 5272TIP3    H115752   3.420   7.466   1.321
 5272TIP3    H215753   3.558   7.414   1.286
 5273TIP3   OH215754   3.703   7.484   2.164
 5273TIP3    H115755   3.702   7.566   2.213
 5273TIP3    H215756   3.622   7.485   2.113
 5274TIP3   OH215757   2.701   7.437   1.633
 5274TIP3    H115758   2.665   7.377   1.567
 5274TIP3    H215759   2.775   7.390   1.670
 5275TIP3   OH215760   2.854   7.798   1.798
 5275TIP3    H115761   2.851   7.799   1.702
 5275TIP3    H215762   2.947   7.786   1.818
 5276TIP3   OH215763   2.797   7.418   1.998
 5276TIP3    H115764   2.825   7.375   1.917
 5276TIP3    H215765   2.864   7.484   2.015
 5277TIP3   OH215766   3.038   7.814   2.304
 5277TIP3    H115767   2.980   7.889   2.313
 5277TIP3    H215768   2.983   7.745   2.267
 5278TIP3   OH215769   3.290   7.313   1.090
 5278TIP3    H115770   3.357   7.363   1.135
 5278TIP3    H215771   3.291   7.347   1.000
 5279TIP3   OH215772   2.739   7.540   2.455
 5279TIP3    H115773   2.730   7.626   2.497
 5279TIP3    H215774   2.649   7.514   2.434
 5280TIP3   OH215775   3.800   6.528   1.128
 5280TIP3    H115776   3.722   6.552   1.177
 5280TIP3    H215777   3.828   6.609   1.086
 5281TIP3   OH215778   2.580   7.283   1.433
 5281TIP3    H115779   2.515   7.345   1.397
 5281TIP3    H215780   2.529   7.204   1.450
 5282TIP3   OH215781   2.381   7.620   2.341
 5282TIP3    H115782   2.308   7.593   2.285
 5282TIP3    H215783   2.412   7.540   2.382
 5283TIP3   OH215784   3.949   7.445   2.328
 5283TIP3    H115785   3.867   7.455   2.279
 5283TIP3    H215786   3.967   7.351   2.325
 5284TIP3   OH215787   2.572   7.806   2.298
 5284TIP3    H115788   2.529   7.875   2.349
 5284TIP3    H215789   2.510   7.734   2.298
 5285TIP3   OH215790   2.945   6.678   2.139
 5285TIP3    H115791   2.862   6.645   2.104
 5285TIP3    H215792   2.922   6.760   2.182
 5286TIP3   OH215793   3.479   6.806   2.340
 5286TIP3    H115794   3.551   6.783   2.399
 5286TIP3    H215795   3.400   6.787   2.390
 5287TIP3   OH215796   3.701   7.221   2.255
 5287TIP3    H115797   3.664   7.217   2.343
 5287TIP3    H215798   3.688   7.312   2.228
 5288TIP3   OH215799   3.277   7.393   0.837
 5288TIP3    H115800   3.201   7.394   0.779
 5288TIP3    H215801   3.352   7.397   0.778
 5289TIP3   OH215802   3.082   6.727   1.113
 5289TIP3    H115803   3.045   6.731   1.201
 5289TIP3    H215804   3.050   6.644   1.077
 5290TIP3   OH215805   2.885   7.203   2.145
 5290TIP3    H115806   2.847   7.214   2.232
 5290TIP3    H215807   2.858   7.281   2.097
 5291TIP3   OH215808   2.760   7.087   1.668
 5291TIP3    H115809   2.670   7.064   1.694
 5291TIP3    H215810   2.767   7.057   1.577
 5292TIP3   OH215811   3.239   7.161   1.406
 5292TIP3    H115812   3.188   7.232   1.367
 5292TIP3    H215813   3.296   7.130   1.336
 5293TIP3   OH215814   3.450   7.419   2.461
 5293TIP3    H115815   3.423   7.353   2.526
 5293TIP3    H215816   3.540   7.440   2.485
 5294TIP3   OH215817   3.399   7.182   1.631
 5294TIP3    H115818   3.335   7.206   1.564
 5294TIP3    H215819   3.445   7.106   1.595
 5295TIP3   OH215820   2.712   7.200   2.373
 5295TIP3    H115821   2.781   7.246   2.421
 5295TIP3    H215822   2.695   7.122   2.425
 5296TIP3   OH215823   2.755   6.704   1.086
 5296TIP3    H115824   2.743   6.707   1.181
 5296TIP3    H215825   2.678   6.748   1.050
 5297TIP3   OH215826   2.301   6.749   1.950
 5297TIP3    H115827   2.381   6.782   1.992
 5297TIP3    H215828   2.328   6.729   1.860
 5298TIP3   OH215829   2.218   6.724   1.442
 5298TIP3    H115830   2.298   6.737   1.392
 5298TIP3    H215831   2.155   6.785   1.405
 5299TIP3   OH215832   3.451   7.434   2.045
 5299TIP3    H115833   3.477   7.368   1.981
 5299TIP3    H215834   3.411   7.384   2.116
 5300TIP3   OH215835   3.124   6.884   1.725
 5300TIP3    H115836   3.047   6.882   1.782
 5300TIP3    H215837   3.198   6.876   1.785
 5301TIP3   OH215838   2.521   6.965   1.735
 5301TIP3    H115839   2.435   6.970   1.691
 5301TIP3    H215840   2.551   6.876   1.717
 5302TIP3   OH215841   2.768   6.971   1.418
 5302TIP3    H115842   2.862   6.982   1.407
 5302TIP3    H215843   2.731   6.990   1.332
 5303TIP3   OH215844   3.573   6.970   1.937
 5303TIP3    H115845   3.549   6.989   2.028
 5303TIP3    H215846   3.506   6.908   1.907
 5304TIP3   OH215847   2.640   6.995   1.172
 5304TIP3    H115848   2.593   6.938   1.112
 5304TIP3    H215849   2.702   7.043   1.115
 5305TIP3   OH215850   2.720   7.770   2.606
 5305TIP3    H115851   2.795   7.772   2.666
 5305TIP3    H215852   2.645   7.788   2.663
 5306TIP3   OH215853   3.175   7.253   1.823
 5306TIP3    H115854   3.241   7.209   1.769
 5306TIP3    H215855   3.177   7.206   1.906
 5307TIP3   OH215856   2.664   6.719   1.711
 5307TIP3    H115857   2.636   6.643   1.762
 5307TIP3    H215858   2.684   6.684   1.624
 5308TIP3   OH215859   3.150   7.147   2.087
 5308TIP3    H115860   3.061   7.175   2.109
 5308TIP3    H215861   3.206   7.202   2.143
 5309TIP3   OH215862   2.880   7.518   1.225
 5309TIP3    H115863   2.806   7.463   1.198
 5309TIP3    H215864   2.849   7.561   1.305
 5310TIP3   OH215865   3.771   7.774   1.820
 5310TIP3    H115866   3.808   7.814   1.741
 5310TIP3    H215867   3.694   7.727   1.789
 5311TIP3   OH215868   3.335   6.826   1.118
 5311TIP3    H115869   3.241   6.809   1.115
 5311TIP3    H215870   3.342   6.920   1.133
 5312TIP3   OH215871   3.304   7.814   2.242
 5312TIP3    H115872   3.353   7.786   2.319
 5312TIP3    H215873   3.212   7.805   2.266
 5313TIP3   OH215874   3.402   7.082   1.194
 5313TIP3    H115875   3.497   7.087   1.204
 5313TIP3    H215876   3.379   7.158   1.140
 5314TIP3   OH215877   2.567   7.511   1.865
 5314TIP3    H115878   2.600   7.497   1.776
 5314TIP3    H215879   2.636   7.476   1.922
 5315TIP3   OH215880   3.036   7.680   1.069
 5315TIP3    H115881   2.978   7.755   1.055
 5315TIP3    H215882   2.985   7.620   1.123
 5316TIP3   OH215883   2.478   7.438   2.519
 5316TIP3    H115884   2.522   7.428   2.604
 5316TIP3    H215885   2.414   7.367   2.516
 5317TIP3   OH215886   3.213   7.552   2.513
 5317TIP3    H115887   3.166   7.538   2.430
 5317TIP3    H215888   3.304   7.531   2.493
 5318TIP3   OH215889   3.809   7.199   1.068
 5318TIP3    H115890   3.797   7.129   1.003
 5318TIP3    H215891   3.768   7.276   1.028
 5319TIP3   OH215892   4.068   7.997   2.088
 5319TIP3    H115893   3.976   8.015   2.069
 5319TIP3    H215894   4.110   7.993   2.002
 5320TIP3   OH215895   3.547   7.627   1.714
 5320TIP3    H115896   3.459   7.609   1.746
 5320TIP3    H215897   3.579   7.542   1.684
 5321TIP3   OH215898   2.777   7.634   1.454
 5321TIP3    H115899   2.699   7.690   1.453
 5321TIP3    H215900   2.757   7.568   1.521
 5322TIP3   OH215901   3.348   7.843   1.971
 5322TIP3    H115902   3.324   7.835   2.064
 5322TIP3    H215903   3.442   7.829   1.969
 5323TIP3   OH215904   3.299   7.706   0.861
 5323TIP3    H115905   3.357   7.684   0.933
 5323TIP3    H215906   3.216   7.664   0.883
 5324TIP3   OH215907   2.695   6.934   2.514
 5324TIP3    H115908   2.616   6.879   2.510
 5324TIP3    H215909   2.742   6.903   2.591
 5325TIP3   OH215910   3.472   7.646   1.067
 5325TIP3    H115911   3.462   7.572   1.126
 5325TIP3    H215912   3.567   7.658   1.059
 5326TIP3   OH215913   2.652   7.643   0.873
 5326TIP3    H115914   2.643   7.554   0.838
 5326TIP3    H215915   2.745   7.664   0.860
 5327TIP3   OH215916   2.392   7.450   1.326
 5327TIP3    H115917   2.305   7.466   1.364
 5327TIP3    H215918   2.392   7.500   1.244
 5328TIP3   OH215919   3.501   7.041   2.195
 5328TIP3    H115920   3.581   7.084   2.224
 5328TIP3    H215921   3.495   6.962   2.250
 5329TIP3   OH215922   3.395   6.774   1.384
 5329TIP3    H115923   3.376   6.795   1.293
 5329TIP3    H215924   3.437   6.853   1.419
 5330TIP3   OH215925   3.048   6.975   1.473
 5330TIP3    H115926   3.112   7.041   1.446
 5330TIP3    H215927   3.072   6.955   1.563
 5331TIP3   OH215928   3.346   7.275   2.244
 5331TIP3    H115929   3.382   7.314   2.323
 5331TIP3    H215930   3.393   7.192   2.235
 5332TIP3   OH215931   3.211   6.672   1.559
 5332TIP3    H115932   3.189   6.750   1.610
 5332TIP3    H215933   3.280   6.701   1.500
 5333TIP3   OH215934   2.724   6.698   1.365
 5333TIP3    H115935   2.713   6.790   1.392
 5333TIP3    H215936   2.818   6.682   1.371
 5334TIP3   OH215937   3.967   7.170   2.238
 5334TIP3    H115938   3.872   7.179   2.248
 5334TIP3    H215939   3.977   7.112   2.162
 5335TIP3   OH215940   3.628   7.370   1.639
 5335TIP3    H115941   3.551   7.315   1.650
 5335TIP3    H215942   3.696   7.328   1.692
 5336TIP3   OH215943   2.375   7.597   1.076
 5336TIP3    H115944   2.425   7.674   1.049
 5336TIP3    H215945   2.419   7.523   1.034
 5337TIP3   OH215946   2.381   6.848   1.255
 5337TIP3    H115947   2.436   6.926   1.249
 5337TIP3    H215948   2.291   6.882   1.249
 5338TIP3   OH215949   2.682   6.594   2.097
 5338TIP3    H115950   2.653   6.563   2.011
 5338TIP3    H215951   2.670   6.519   2.154
 5339TIP3   OH215952   2.488   7.706   2.775
 5339TIP3    H115953   2.541   7.627   2.769
 5339TIP3    H215954   2.425   7.698   2.704
 5340TIP3   OH215955   2.499   7.379   0.968
 5340TIP3    H115956   2.556   7.361   1.043
 5340TIP3    H215957   2.558   7.380   0.893
 5341TIP3   OH215958   3.099   7.798   2.567
 5341TIP3    H115959   3.081   7.820   2.476
 5341TIP3    H215960   3.156   7.721   2.563
 5342TIP3   OH215961   2.925   7.602   0.821
 5342TIP3    H115962   2.982   7.611   0.898
 5342TIP3    H215963   2.964   7.532   0.770
 5343TIP3   OH215964   3.601   7.849   2.109
 5343TIP3    H115965   3.669   7.906   2.075
 5343TIP3    H215966   3.557   7.901   2.177
 5344TIP3   OH215967   2.643   7.475   2.740
 5344TIP3    H115968   2.721   7.469   2.685
 5344TIP3    H215969   2.677   7.495   2.828
 5345TIP3   OH215970   2.685   7.328   1.168
 5345TIP3    H115971   2.660   7.292   1.254
 5345TIP3    H215972   2.730   7.256   1.124
 5346TIP3   OH215973   2.938   7.366   2.398
 5346TIP3    H115974   2.875   7.436   2.418
 5346TIP3    H215975   3.004   7.409   2.344
 5347TIP3   OH215976   2.808   7.136   1.007
 5347TIP3    H115977   2.785   7.134   0.914
 5347TIP3    H215978   2.904   7.139   1.007
 5348TIP3   OH215979   3.450   7.737   2.475
 5348TIP3    H115980   3.538   7.748   2.440
 5348TIP3    H215981   3.463   7.706   2.564
 5349TIP3   OH215982   3.521   7.476   0.712
 5349TIP3    H115983   3.536   7.417   0.638
 5349TIP3    H215984   3.451   7.535   0.681
 5350TIP3   OH215985   3.089   7.179   2.526
 5350TIP3    H115986   3.100   7.104   2.467
 5350TIP3    H215987   3.044   7.245   2.474
 5351TIP3   OH215988   3.100   6.983   2.322
 5351TIP3    H115989   3.131   7.016   2.238
 5351TIP3    H215990   3.010   6.955   2.305
 5352TIP3   OH215991   3.134   7.490   2.253
 5352TIP3    H115992   3.220   7.455   2.228
 5352TIP3    H215993   3.099   7.529   2.173
 5353TIP3   OH215994   3.711   7.464   2.571
 5353TIP3    H115995   3.764   7.384   2.575
 5353TIP3    H215996   3.775   7.534   2.560
 5354TIP3   OH215997   3.734   7.720   2.310
 5354TIP3    H115998   3.678   7.766   2.248
 5354TIP3    H215999   3.823   7.738   2.282
 5355TIP3   OH216000   2.968   7.276   2.762
 5355TIP3    H116001   2.907   7.205   2.781
 5355TIP3    H216002   3.004   7.254   2.676
 5356TIP3   OH216003   3.215   6.750   2.425
 5356TIP3    H116004   3.177   6.831   2.390
 5356TIP3    H216005   3.148   6.684   2.410
 5357TIP3   OH216006   3.349   7.223   2.625
 5357TIP3    H116007   3.339   7.211   2.720
 5357TIP3    H216008   3.262   7.205   2.590
 5358TIP3   OH216009   3.595   7.165   2.497
 5358TIP3    H116010   3.518   7.167   2.553
 5358TIP3    H216011   3.668   7.149   2.557
 5359TIP3   OH216012   3.827   7.140   2.650
 5359TIP3    H116013   3.842   7.045   2.654
 5359TIP3    H216014   3.823   7.167   2.741
 5360TIP3   OH216015   2.809   7.072   2.850
 5360TIP3    H116016   2.782   6.991   2.806
 5360TIP3    H216017   2.851   7.042   2.931
 5361TIP3   OH216018   3.281   6.731   2.690
 5361TIP3    H116019   3.351   6.666   2.684
 5361TIP3    H216020   3.252   6.741   2.599
 5362TIP3   OH216021   3.375   6.946   2.835
 5362TIP3    H116022   3.347   6.874   2.779
 5362TIP3    H216023   3.303   7.008   2.833
 5363TIP3   OH216024   2.105   7.547   1.130
 5363TIP3    H116025   2.192   7.575   1.101
 5363TIP3    H216026   2.087   7.468   1.078
 5364TIP3   OH216027   6.798   0.113   2.375
 5364TIP3    H116028   6.708   0.132   2.349
 5364TIP3    H216029   6.848   0.189   2.346
 5365TIP3   OH216030   3.743   7.658   1.078
 5365TIP3    H116031   3.798   7.736   1.072
 5365TIP3    H216032   3.788   7.602   1.141
 5366TIP3   OH216033   3.886   7.508   1.249
 5366TIP3    H116034   3.829   7.461   1.310
 5366TIP3    H216035   3.955   7.545   1.304
 5367TIP3   OH216036   3.943   7.904   1.644
 5367TIP3    H116037   4.000   7.829   1.622
 5367TIP3    H216038   3.945   7.958   1.565
 5368TIP3   OH216039   3.714   7.440   0.914
 5368TIP3    H116040   3.634   7.445   0.861
 5368TIP3    H216041   3.708   7.516   0.973
 5369TIP3   OH216042   3.592   7.142   0.872
 5369TIP3    H116043   3.667   7.158   0.814
 5369TIP3    H216044   3.582   7.046   0.873
 5370TIP3   OH216045   3.702   7.350   1.377
 5370TIP3    H116046   3.702   7.255   1.364
 5370TIP3    H216047   3.681   7.361   1.470
 5371TIP3   OH216048   2.326   7.376   2.161
 5371TIP3    H116049   2.319   7.363   2.066
 5371TIP3    H216050   2.419   7.390   2.177
 5372TIP3   OH216051   3.989   7.776   2.229
 5372TIP3    H116052   4.053   7.708   2.209
 5372TIP3    H216053   4.016   7.851   2.175
 5373TIP3   OH216054   4.162   7.566   2.206
 5373TIP3    H116055   4.089   7.522   2.250
 5373TIP3    H216056   4.239   7.513   2.228
 5374TIP3   OH216057   3.560   6.876   0.827
 5374TIP3    H116058   3.633   6.839   0.777
 5374TIP3    H216059   3.502   6.801   0.843
 5375TIP3   OH216060   3.680   7.081   1.275
 5375TIP3    H116061   3.725   6.997   1.282
 5375TIP3    H216062   3.725   7.127   1.204
 5376TIP3   OH216063   3.846   7.249   1.769
 5376TIP3    H116064   3.926   7.268   1.719
 5376TIP3    H216065   3.862   7.289   1.854
 5377TIP3   OH216066   3.922   7.398   1.994
 5377TIP3    H116067   3.848   7.426   2.048
 5377TIP3    H216068   3.953   7.479   1.953
 5378TIP3   OH216069   4.376   7.007   2.525
 5378TIP3    H116070   4.443   6.948   2.490
 5378TIP3    H216071   4.342   7.053   2.448
 5379TIP3   OH216072   3.794   6.835   1.307
 5379TIP3    H116073   3.844   6.816   1.387
 5379TIP3    H216074   3.736   6.760   1.297
 5380TIP3   OH216075   2.518   6.816   2.118
 5380TIP3    H116076   2.571   6.737   2.119
 5380TIP3    H216077   2.580   6.886   2.098
 5381TIP3   OH216078   2.277   7.101   2.176
 5381TIP3    H116079   2.331   7.071   2.103
 5381TIP3    H216080   2.293   7.195   2.181
 5382TIP3   OH216081   4.230   7.116   2.321
 5382TIP3    H116082   4.145   7.155   2.340
 5382TIP3    H216083   4.210   7.036   2.272
 5383TIP3   OH216084   3.886   6.749   1.002
 5383TIP3    H116085   3.934   6.707   0.931
 5383TIP3    H216086   3.850   6.829   0.964
 5384TIP3   OH216087   2.278   6.617   1.686
 5384TIP3    H116088   2.193   6.595   1.723
 5384TIP3    H216089   2.258   6.666   1.607
 5385TIP3   OH216090   2.503   6.724   2.521
 5385TIP3    H116091   2.447   6.687   2.589
 5385TIP3    H216092   2.443   6.750   2.451
 5386TIP3   OH216093   4.145   6.867   2.224
 5386TIP3    H116094   4.058   6.859   2.184
 5386TIP3    H216095   4.182   6.779   2.219
 5387TIP3   OH216096   3.353   6.793   1.864
 5387TIP3    H116097   3.313   6.720   1.911
 5387TIP3    H216098   3.421   6.752   1.810
 5388TIP3   OH216099   3.851   6.715   1.764
 5388TIP3    H116100   3.887   6.761   1.688
 5388TIP3    H216101   3.757   6.731   1.760
 5389TIP3   OH216102   3.960   6.783   1.523
 5389TIP3    H116103   4.030   6.725   1.494
 5389TIP3    H216104   3.995   6.871   1.511
 5390TIP3   OH216105   2.591   6.494   1.857
 5390TIP3    H116106   2.502   6.461   1.865
 5390TIP3    H216107   2.645   6.415   1.847
 5391TIP3   OH216108   2.417   6.415   1.528
 5391TIP3    H116109   2.440   6.458   1.445
 5391TIP3    H216110   2.378   6.485   1.580
 5392TIP3   OH216111   3.068   6.533   1.758
 5392TIP3    H116112   3.114   6.578   1.687
 5392TIP3    H216113   3.113   6.561   1.837
 5393TIP3   OH216114   3.566   6.674   1.733
 5393TIP3    H116115   3.584   6.641   1.645
 5393TIP3    H216116   3.572   6.597   1.789
 5394TIP3   OH216117   3.615   6.622   1.308
 5394TIP3    H116118   3.534   6.670   1.328
 5394TIP3    H216119   3.604   6.537   1.351
 5395TIP3   OH216120   2.513   6.529   1.282
 5395TIP3    H116121   2.558   6.470   1.221
 5395TIP3    H216122   2.582   6.588   1.313
 5396TIP3   OH216123   2.998   6.725   1.376
 5396TIP3    H116124   3.058   6.671   1.428
 5396TIP3    H216125   3.015   6.814   1.405
 5397TIP3   OH216126   2.815   6.798   2.737
 5397TIP3    H116127   2.781   6.730   2.795
 5397TIP3    H216128   2.907   6.807   2.762
 5398TIP3   OH216129   3.063   6.786   2.862
 5398TIP3    H116130   3.140   6.765   2.809
 5398TIP3    H216131   3.058   6.715   2.926
 5399TIP3   OH216132   3.889   6.869   2.651
 5399TIP3    H116133   3.906   6.840   2.740
 5399TIP3    H216134   3.974   6.865   2.607
 5400TIP3   OH216135   4.981   7.838   0.932
 5400TIP3    H116136   4.950   7.925   0.958
 5400TIP3    H216137   5.009   7.849   0.840
 5401TIP3   OH216138   5.006   7.770   1.362
 5401TIP3    H116139   5.085   7.763   1.415
 5401TIP3    H216140   4.976   7.679   1.352
 5402TIP3   OH216141   4.372   7.648   1.681
 5402TIP3    H116142   4.406   7.590   1.750
 5402TIP3    H216143   4.449   7.680   1.636
 5403TIP3   OH216144   8.140   0.022   0.909
 5403TIP3    H116145   8.215  -0.018   0.952
 5403TIP3    H216146   8.166   0.114   0.896
 5404TIP3   OH216147   4.417   8.020   1.464
 5404TIP3    H116148   4.372   7.943   1.430
 5404TIP3    H216149   4.482   8.042   1.397
 5405TIP3   OH216150   4.035   7.280   1.195
 5405TIP3    H116151   4.006   7.366   1.224
 5405TIP3    H216152   3.957   7.238   1.161
 5406TIP3   OH216153   4.119   7.582   1.374
 5406TIP3    H116154   4.173   7.506   1.400
 5406TIP3    H216155   4.183   7.650   1.352
 5407TIP3   OH216156   4.897   8.023   1.350
 5407TIP3    H116157   4.927   7.932   1.337
 5407TIP3    H216158   4.975   8.070   1.378
 5408TIP3   OH216159   5.887   7.316   1.402
 5408TIP3    H116160   5.908   7.406   1.426
 5408TIP3    H216161   5.857   7.322   1.311
 5409TIP3   OH216162   5.309   7.483   1.397
 5409TIP3    H116163   5.382   7.422   1.407
 5409TIP3    H216164   5.255   7.446   1.328
 5410TIP3   OH216165   4.648   7.144   1.353
 5410TIP3    H116166   4.618   7.216   1.297
 5410TIP3    H216167   4.594   7.069   1.326
 5411TIP3   OH216168   5.338   7.286   0.938
 5411TIP3    H116169   5.412   7.267   0.995
 5411TIP3    H216170   5.354   7.374   0.905
 5412TIP3   OH216171   4.269   7.372   1.467
 5412TIP3    H116172   4.354   7.356   1.508
 5412TIP3    H216173   4.267   7.313   1.391
 5413TIP3   OH216174   4.692   7.549   1.330
 5413TIP3    H116175   4.780   7.517   1.350
 5413TIP3    H216176   4.643   7.470   1.308
 5414TIP3   OH216177   5.963   7.541   1.553
 5414TIP3    H116178   5.880   7.588   1.550
 5414TIP3    H216179   5.969   7.506   1.641
 5415TIP3   OH216180   4.628   7.155   1.779
 5415TIP3    H116181   4.579   7.193   1.706
 5415TIP3    H216182   4.573   7.171   1.856
 5416TIP3   OH216183   7.676   0.031   0.768
 5416TIP3    H116184   7.632  -0.054   0.757
 5416TIP3    H216185   7.690   0.039   0.862
 5417TIP3   OH216186   4.740   7.931   1.559
 5417TIP3    H116187   4.684   7.998   1.597
 5417TIP3    H216188   4.789   7.977   1.491
 5418TIP3   OH216189   5.524   7.302   1.379
 5418TIP3    H116190   5.553   7.215   1.349
 5418TIP3    H216191   5.582   7.363   1.333
 5419TIP3   OH216192   4.513   7.269   1.557
 5419TIP3    H116193   4.569   7.344   1.577
 5419TIP3    H216194   4.560   7.221   1.488
 5420TIP3   OH216195   7.403   0.106   1.668
 5420TIP3    H116196   7.346   0.081   1.595
 5420TIP3    H216197   7.343   0.124   1.740
 5421TIP3   OH216198   3.993   7.790   1.043
 5421TIP3    H116199   3.968   7.751   0.959
 5421TIP3    H216200   3.976   7.884   1.032
 5422TIP3   OH216201   5.699   7.228   1.575
 5422TIP3    H116202   5.619   7.257   1.531
 5422TIP3    H216203   5.768   7.241   1.509
 5423TIP3   OH216204   4.960   6.837   1.532
 5423TIP3    H116205   4.952   6.745   1.556
 5423TIP3    H216206   4.882   6.878   1.570
 5424TIP3   OH216207   8.381   0.257   1.533
 5424TIP3    H116208   8.319   0.237   1.463
 5424TIP3    H216209   8.426   0.336   1.505
 5425TIP3   OH216210   4.893   7.587   0.729
 5425TIP3    H116211   4.826   7.652   0.751
 5425TIP3    H216212   4.924   7.613   0.642
 5426TIP3   OH216213   5.800   7.906   1.381
 5426TIP3    H116214   5.707   7.928   1.371
 5426TIP3    H216215   5.839   7.929   1.297
 5427TIP3   OH216216   5.269   7.723   0.614
 5427TIP3    H116217   5.202   7.783   0.646
 5427TIP3    H216218   5.268   7.650   0.676
 5428TIP3   OH216219   5.466   7.747   1.657
 5428TIP3    H116220   5.473   7.826   1.711
 5428TIP3    H216221   5.382   7.758   1.611
 5429TIP3   OH216222   4.497   7.685   1.185
 5429TIP3    H116223   4.457   7.620   1.128
 5429TIP3    H216224   4.578   7.643   1.216
 5430TIP3   OH216225   7.468   0.093   1.315
 5430TIP3    H116226   7.461   0.185   1.292
 5430TIP3    H216227   7.562   0.077   1.323
 5431TIP3   OH216228   4.584   7.710   1.520
 5431TIP3    H116229   4.623   7.667   1.444
 5431TIP3    H216230   4.637   7.789   1.534
 5432TIP3   OH216231   7.650   0.165   1.785
 5432TIP3    H116232   7.637   0.260   1.792
 5432TIP3    H216233   7.569   0.133   1.745
 5433TIP3   OH216234   4.527   7.768   1.951
 5433TIP3    H116235   4.534   7.860   1.977
 5433TIP3    H216236   4.433   7.752   1.942
 5434TIP3   OH216237   4.381   7.541   0.991
 5434TIP3    H116238   4.323   7.609   0.956
 5434TIP3    H216239   4.329   7.461   0.988
 5435TIP3   OH216240   4.172   7.948   1.841
 5435TIP3    H116241   4.110   7.929   1.770
 5435TIP3    H216242   4.207   7.862   1.865
 5436TIP3   OH216243   5.737   7.701   1.835
 5436TIP3    H116244   5.683   7.711   1.756
 5436TIP3    H216245   5.758   7.608   1.838
 5437TIP3   OH216246   7.212   0.122   1.861
 5437TIP3    H116247   7.256   0.085   1.937
 5437TIP3    H216248   7.135   0.067   1.848
 5438TIP3   OH216249   4.727   6.938   1.637
 5438TIP3    H116250   4.643   6.907   1.604
 5438TIP3    H216251   4.707   7.021   1.681
 5439TIP3   OH216252   5.278   7.063   1.838
 5439TIP3    H116253   5.346   7.035   1.899
 5439TIP3    H216254   5.196   7.037   1.881
 5440TIP3   OH216255   5.494   7.492   1.748
 5440TIP3    H116256   5.455   7.492   1.836
 5440TIP3    H216257   5.476   7.579   1.714
 5441TIP3   OH216258   4.779   7.012   0.601
 5441TIP3    H116259   4.803   6.996   0.692
 5441TIP3    H216260   4.760   6.925   0.565
 5442TIP3   OH216261   4.670   7.477   1.646
 5442TIP3    H116262   4.624   7.480   1.730
 5442TIP3    H216263   4.651   7.561   1.605
 5443TIP3   OH216264   4.526   7.358   1.234
 5443TIP3    H116265   4.438   7.320   1.243
 5443TIP3    H216266   4.547   7.347   1.141
 5444TIP3   OH216267   5.237   7.501   0.784
 5444TIP3    H116268   5.177   7.533   0.851
 5444TIP3    H216269   5.208   7.411   0.767
 5445TIP3   OH216270   5.224   7.694   1.964
 5445TIP3    H116271   5.203   7.624   2.026
 5445TIP3    H216272   5.317   7.712   1.981
 5446TIP3   OH216273   5.142   7.440   1.168
 5446TIP3    H116274   5.097   7.457   1.086
 5446TIP3    H216275   5.176   7.351   1.160
 5447TIP3   OH216276   4.506   7.483   1.865
 5447TIP3    H116277   4.526   7.547   1.933
 5447TIP3    H216278   4.491   7.401   1.912
 5448TIP3   OH216279   4.419   6.905   0.641
 5448TIP3    H116280   4.504   6.888   0.684
 5448TIP3    H216281   4.416   7.000   0.632
 5449TIP3   OH216282   4.088   7.011   1.456
 5449TIP3    H116283   4.168   7.041   1.500
 5449TIP3    H216284   4.119   6.968   1.376
 5450TIP3   OH216285   4.100   7.030   1.020
 5450TIP3    H116286   4.106   7.040   0.925
 5450TIP3    H216287   4.012   7.058   1.042
 5451TIP3   OH216288   5.202   7.686   1.546
 5451TIP3    H116289   5.243   7.619   1.491
 5451TIP3    H216290   5.173   7.638   1.624
 5452TIP3   OH216291   4.908   7.203   1.274
 5452TIP3    H116292   4.828   7.175   1.316
 5452TIP3    H216293   4.976   7.145   1.309
 5453TIP3   OH216294   4.299   7.207   1.255
 5453TIP3    H116295   4.208   7.195   1.228
 5453TIP3    H216296   4.337   7.120   1.248
 5454TIP3   OH216297   4.596   7.304   0.984
 5454TIP3    H116298   4.691   7.290   0.980
 5454TIP3    H216299   4.568   7.303   0.892
 5455TIP3   OH216300   5.276   7.143   1.502
 5455TIP3    H116301   5.273   7.205   1.575
 5455TIP3    H216302   5.312   7.194   1.429
 5456TIP3   OH216303   4.434   7.343   0.748
 5456TIP3    H116304   4.392   7.258   0.763
 5456TIP3    H216305   4.486   7.330   0.668
 5457TIP3   OH216306   7.347   0.005   2.072
 5457TIP3    H116307   7.424   0.024   2.126
 5457TIP3    H216308   7.274   0.006   2.134
 5458TIP3   OH216309   4.955   7.497   1.360
 5458TIP3    H116310   5.016   7.458   1.298
 5458TIP3    H216311   4.963   7.443   1.439
 5459TIP3   OH216312   4.449   6.977   1.259
 5459TIP3    H116313   4.417   6.895   1.299
 5459TIP3    H216314   4.485   6.950   1.175
 5460TIP3   OH216315   4.933   7.397   1.616
 5460TIP3    H116316   4.847   7.436   1.629
 5460TIP3    H216317   4.993   7.455   1.664
 5461TIP3   OH216318   4.722   7.807   0.740
 5461TIP3    H116319   4.676   7.765   0.667
 5461TIP3    H216320   4.664   7.795   0.815
 5462TIP3   OH216321   5.547   7.974   1.324
 5462TIP3    H116322   5.558   8.026   1.244
 5462TIP3    H216323   5.453   7.981   1.344
 5463TIP3   OH216324   7.922   0.107   1.733
 5463TIP3    H116325   7.959   0.087   1.819
 5463TIP3    H216326   7.829   0.125   1.751
 5464TIP3   OH216327   4.333   7.764   1.381
 5464TIP3    H116328   4.382   7.746   1.301
 5464TIP3    H216329   4.390   7.736   1.452
 5465TIP3   OH216330   4.252   7.714   1.978
 5465TIP3    H116331   4.261   7.688   2.070
 5465TIP3    H216332   4.173   7.669   1.948
 5466TIP3   OH216333   4.988   7.832   2.006
 5466TIP3    H116334   4.922   7.772   1.973
 5466TIP3    H216335   5.071   7.797   1.975
 5467TIP3   OH216336   0.192   0.258   1.625
 5467TIP3    H116337   0.142   0.305   1.692
 5467TIP3    H216338   0.229   0.327   1.570
 5468TIP3   OH216339   5.282   7.899   1.329
 5468TIP3    H116340   5.225   7.946   1.268
 5468TIP3    H216341   5.288   7.811   1.293
 5469TIP3   OH216342   4.109   7.361   0.674
 5469TIP3    H116343   4.180   7.423   0.663
 5469TIP3    H216344   4.052   7.401   0.739
 5470TIP3   OH216345   4.540   7.827   0.940
 5470TIP3    H116346   4.598   7.869   1.003
 5470TIP3    H216347   4.514   7.745   0.982
 5471TIP3   OH216348   7.971   0.080   1.464
 5471TIP3    H116349   7.953   0.087   1.558
 5471TIP3    H216350   8.024   0.001   1.455
 5472TIP3   OH216351   4.459   7.231   1.985
 5472TIP3    H116352   4.363   7.238   1.988
 5472TIP3    H216353   4.481   7.176   2.060
 5473TIP3   OH216354   4.220   7.729   0.883
 5473TIP3    H116355   4.160   7.755   0.954
 5473TIP3    H216356   4.191   7.781   0.808
 5474TIP3   OH216357   5.287   7.309   1.719
 5474TIP3    H116358   5.374   7.348   1.730
 5474TIP3    H216359   5.291   7.227   1.769
 5475TIP3   OH216360   5.112   7.140   0.955
 5475TIP3    H116361   5.098   7.123   0.862
 5475TIP3    H216362   5.195   7.186   0.959
 5476TIP3   OH216363   4.866   7.276   1.017
 5476TIP3    H116364   4.952   7.277   0.975
 5476TIP3    H216365   4.884   7.257   1.109
 5477TIP3   OH216366   5.130   7.530   1.757
 5477TIP3    H116367   5.164   7.578   1.833
 5477TIP3    H216368   5.183   7.451   1.753
 5478TIP3   OH216369   5.028   6.940   1.112
 5478TIP3    H116370   5.059   6.962   1.200
 5478TIP3    H216371   5.057   7.014   1.058
 5479TIP3   OH216372   4.524   6.907   1.012
 5479TIP3    H116373   4.459   6.966   0.974
 5479TIP3    H216374   4.558   6.858   0.937
 5480TIP3   OH216375   5.754   7.430   1.747
 5480TIP3    H116376   5.662   7.454   1.754
 5480TIP3    H216377   5.755   7.353   1.690
 5481TIP3   OH216378   5.494   7.512   1.055
 5481TIP3    H116379   5.431   7.566   1.103
 5481TIP3    H216380   5.561   7.490   1.120
 5482TIP3   OH216381   4.156   7.828   0.629
 5482TIP3    H116382   4.171   7.921   0.614
 5482TIP3    H216383   4.225   7.784   0.579
 5483TIP3   OH216384   4.098   7.097   0.755
 5483TIP3    H116385   4.082   7.191   0.754
 5483TIP3    H216386   4.034   7.061   0.693
 5484TIP3   OH216387   4.467   6.854   1.599
 5484TIP3    H116388   4.435   6.820   1.515
 5484TIP3    H216389   4.460   6.780   1.659
 5485TIP3   OH216390   4.298   8.002   2.242
 5485TIP3    H116391   4.318   7.909   2.247
 5485TIP3    H216392   4.213   8.007   2.199
 5486TIP3   OH216393   7.725   0.077   2.036
 5486TIP3    H116394   7.703   0.102   1.946
 5486TIP3    H216395   7.772  -0.006   2.027
 5487TIP3   OH216396   8.206   0.103   1.678
 5487TIP3    H116397   8.264   0.164   1.633
 5487TIP3    H216398   8.120   0.145   1.675
 5488TIP3   OH216399   4.426   7.753   2.236
 5488TIP3    H116400   4.502   7.743   2.180
 5488TIP3    H216401   4.461   7.778   2.322
 5489TIP3   OH216402   4.592   7.621   0.585
 5489TIP3    H116403   4.592   7.587   0.675
 5489TIP3    H216404   4.653   7.564   0.538
 5490TIP3   OH216405   4.783   7.663   1.903
 5490TIP3    H116406   4.698   7.706   1.909
 5490TIP3    H216407   4.818   7.690   1.818
 5491TIP3   OH216408   8.102   0.036   1.996
 5491TIP3    H116409   8.177   0.009   1.942
 5491TIP3    H216410   8.106  -0.021   2.073
 5492TIP3   OH216411   4.883   7.436   2.019
 5492TIP3    H116412   4.886   7.362   1.958
 5492TIP3    H216413   4.851   7.509   1.966
 5493TIP3   OH216414   4.887   7.228   1.829
 5493TIP3    H116415   4.918   7.269   1.748
 5493TIP3    H216416   4.797   7.203   1.811
 5494TIP3   OH216417   4.905   7.750   1.679
 5494TIP3    H116418   4.992   7.755   1.639
 5494TIP3    H216419   4.854   7.818   1.634
 5495TIP3   OH216420   5.492   7.725   2.054
 5495TIP3    H116421   5.519   7.633   2.057
 5495TIP3    H216422   5.564   7.770   2.009
 5496TIP3   OH216423   5.527   7.965   1.830
 5496TIP3    H116424   5.469   8.021   1.778
 5496TIP3    H216425   5.614   7.978   1.791
 5497TIP3   OH216426   4.764   7.527   2.254
 5497TIP3    H116427   4.697   7.461   2.274
 5497TIP3    H216428   4.796   7.503   2.167
 5498TIP3   OH216429   5.015   6.998   1.914
 5498TIP3    H116430   4.975   7.080   1.884
 5498TIP3    H216431   4.948   6.932   1.899
 5499TIP3   OH216432   5.142   7.480   2.115
 5499TIP3    H116433   5.130   7.468   2.209
 5499TIP3    H216434   5.056   7.458   2.077
 5500TIP3   OH216435   5.396   7.449   1.996
 5500TIP3    H116436   5.316   7.439   2.048
 5500TIP3    H216437   5.465   7.414   2.052
 5501TIP3   OH216438   5.631   7.399   2.136
 5501TIP3    H116439   5.643   7.304   2.144
 5501TIP3    H216440   5.625   7.430   2.227
 5502TIP3   OH216441   4.601   7.305   2.317
 5502TIP3    H116442   4.609   7.217   2.279
 5502TIP3    H216443   4.640   7.297   2.404
 5503TIP3   OH216444   5.082   6.986   2.178
 5503TIP3    H116445   5.152   6.921   2.173
 5503TIP3    H216446   5.051   6.995   2.088
 5504TIP3   OH216447   5.174   7.203   2.321
 5504TIP3    H116448   5.145   7.131   2.265
 5504TIP3    H216449   5.101   7.265   2.320
 5505TIP3   OH216450   3.899   7.814   0.451
 5505TIP3    H116451   3.817   7.835   0.496
 5505TIP3    H216452   3.901   7.718   0.448
 5506TIP3   OH216453   0.097   0.390   1.852
 5506TIP3    H116454   0.025   0.383   1.914
 5506TIP3    H216455   0.136   0.475   1.869
 5507TIP3   OH216456   8.455   0.124   1.116
 5507TIP3    H116457   8.518   0.132   1.045
 5507TIP3    H216458   8.377   0.171   1.086
 5508TIP3   OH216459   5.492   7.664   0.828
 5508TIP3    H116460   5.484   7.598   0.896
 5508TIP3    H216461   5.570   7.714   0.853
 5509TIP3   OH216462   4.111   7.691   1.624
 5509TIP3    H116463   4.100   7.652   1.537
 5509TIP3    H216464   4.205   7.685   1.642
 5510TIP3   OH216465   0.102   0.012   1.717
 5510TIP3    H116466   0.172  -0.052   1.702
 5510TIP3    H216467   0.126   0.087   1.663
 5511TIP3   OH216468   5.961   7.826   1.725
 5511TIP3    H116469   5.885   7.780   1.760
 5511TIP3    H216470   6.035   7.772   1.749
 5512TIP3   OH216471   5.518   7.221   0.584
 5512TIP3    H116472   5.534   7.188   0.673
 5512TIP3    H216473   5.486   7.311   0.598
 5513TIP3   OH216474   5.680   7.492   1.261
 5513TIP3    H116475   5.755   7.538   1.223
 5513TIP3    H216476   5.630   7.561   1.306
 5514TIP3   OH216477   5.734   7.687   1.537
 5514TIP3    H116478   5.639   7.683   1.526
 5514TIP3    H216479   5.761   7.762   1.484
 5515TIP3   OH216480   4.339   7.362   2.256
 5515TIP3    H116481   4.433   7.356   2.273
 5515TIP3    H216482   4.304   7.280   2.292
 5516TIP3   OH216483   6.173   7.263   2.011
 5516TIP3    H116484   6.239   7.202   1.977
 5516TIP3    H216485   6.144   7.312   1.935
 5517TIP3   OH216486   5.615   7.080   0.810
 5517TIP3    H116487   5.643   7.056   0.899
 5517TIP3    H216488   5.574   7.001   0.776
 5518TIP3   OH216489   4.307   7.079   1.615
 5518TIP3    H116490   4.362   7.000   1.618
 5518TIP3    H216491   4.368   7.150   1.596
 5519TIP3   OH216492   4.088   7.344   1.676
 5519TIP3    H116493   4.138   7.337   1.596
 5519TIP3    H216494   4.130   7.415   1.725
 5520TIP3   OH216495   6.028   7.393   1.814
 5520TIP3    H116496   5.955   7.424   1.867
 5520TIP3    H216497   5.995   7.313   1.773
 5521TIP3   OH216498   4.083   6.847   1.222
 5521TIP3    H116499   3.990   6.827   1.219
 5521TIP3    H216500   4.098   6.906   1.149
 5522TIP3   OH216501   4.306   6.911   1.994
 5522TIP3    H116502   4.254   6.903   2.074
 5522TIP3    H216503   4.250   6.958   1.933
 5523TIP3   OH216504   5.940   7.122   1.737
 5523TIP3    H116505   5.849   7.114   1.710
 5523TIP3    H216506   5.976   7.034   1.727
 5524TIP3   OH216507   5.082   7.012   1.366
 5524TIP3    H116508   5.050   6.948   1.429
 5524TIP3    H216509   5.159   7.050   1.409
 5525TIP3   OH216510   5.617   7.037   1.317
 5525TIP3    H116511   5.658   7.011   1.235
 5525TIP3    H216512   5.527   7.006   1.310
 5526TIP3   OH216513   5.735   6.991   1.055
 5526TIP3    H116514   5.805   6.934   1.023
 5526TIP3    H216515   5.780   7.074   1.075
 5527TIP3   OH216516   4.368   6.743   1.370
 5527TIP3    H116517   4.279   6.708   1.376
 5527TIP3    H216518   4.423   6.666   1.357
 5528TIP3   OH216519   4.189   6.643   1.062
 5528TIP3    H116520   4.212   6.693   0.984
 5528TIP3    H216521   4.157   6.709   1.124
 5529TIP3   OH216522   4.848   6.804   1.268
 5529TIP3    H116523   4.888   6.861   1.202
 5529TIP3    H216524   4.886   6.833   1.351
 5530TIP3   OH216525   5.363   6.959   1.269
 5530TIP3    H116526   5.366   6.936   1.176
 5530TIP3    H216527   5.331   6.880   1.312
 5531TIP3   OH216528   5.534   6.823   0.748
 5531TIP3    H116529   5.460   6.813   0.688
 5531TIP3    H216530   5.506   6.778   0.828
 5532TIP3   OH216531   4.268   6.774   0.832
 5532TIP3    H116532   4.312   6.700   0.792
 5532TIP3    H216533   4.305   6.851   0.788
 5533TIP3   OH216534   4.816   7.039   0.890
 5533TIP3    H116535   4.857   6.977   0.951
 5533TIP3    H216536   4.832   7.125   0.930
 5534TIP3   OH216537   4.614   7.036   2.228
 5534TIP3    H116538   4.579   6.971   2.288
 5534TIP3    H216539   4.706   7.043   2.250
 5535TIP3   OH216540   4.863   7.040   2.348
 5535TIP3    H116541   4.941   7.019   2.297
 5535TIP3    H216542   4.857   6.970   2.413
 5536TIP3   OH216543   5.684   7.127   2.142
 5536TIP3    H116544   5.699   7.098   2.231
 5536TIP3    H216545   5.770   7.121   2.099
 5537TIP3   OH216546   6.179   7.916   1.077
 5537TIP3    H116547   6.215   7.956   1.156
 5537TIP3    H216548   6.161   7.990   1.019
 5538TIP3   OH216549   6.081   7.668   0.850
 5538TIP3    H116550   6.132   7.588   0.859
 5538TIP3    H216551   6.008   7.645   0.793
 5539TIP3   OH216552   6.335   7.464   1.273
 5539TIP3    H116553   6.294   7.531   1.218
 5539TIP3    H216554   6.281   7.462   1.352
 5540TIP3   OH216555   6.217   7.432   0.966
 5540TIP3    H116556   6.233   7.513   1.015
 5540TIP3    H216557   6.304   7.402   0.940
 5541TIP3   OH216558   6.762   7.178   0.922
 5541TIP3    H116559   6.742   7.107   0.861
 5541TIP3    H216560   6.693   7.173   0.988
 5542TIP3   OH216561   0.736   0.066   1.523
 5542TIP3    H116562   0.680   0.056   1.599
 5542TIP3    H216563   0.685   0.029   1.450
 5543TIP3   OH216564   0.370   0.193   1.339
 5543TIP3    H116565   0.281   0.197   1.304
 5543TIP3    H216566   0.365   0.130   1.411
 5544TIP3   OH216567   6.563   7.192   1.105
 5544TIP3    H116568   6.474   7.161   1.094
 5544TIP3    H216569   6.562   7.236   1.190
 5545TIP3   OH216570   7.103   7.254   1.332
 5545TIP3    H116571   7.181   7.310   1.332
 5545TIP3    H216572   7.030   7.313   1.346
 5546TIP3   OH216573   6.447   7.776   1.254
 5546TIP3    H116574   6.375   7.802   1.312
 5546TIP3    H216575   6.456   7.850   1.193
 5547TIP3   OH216576   6.292   7.757   1.502
 5547TIP3    H116577   6.339   7.794   1.577
 5547TIP3    H216578   6.284   7.664   1.522
 5548TIP3   OH216579   5.902   7.343   0.876
 5548TIP3    H116580   5.942   7.258   0.894
 5548TIP3    H216581   5.844   7.327   0.802
 5549TIP3   OH216582   6.022   7.994   1.514
 5549TIP3    H116583   6.030   7.945   1.596
 5549TIP3    H216584   5.944   7.958   1.472
 5550TIP3   OH216585   6.246   7.485   1.532
 5550TIP3    H116586   6.151   7.488   1.540
 5550TIP3    H216587   6.272   7.407   1.580
 5551TIP3   OH216588   6.327   7.073   1.068
 5551TIP3    H116589   6.290   7.032   0.990
 5551TIP3    H216590   6.314   7.008   1.137
 5552TIP3   OH216591   0.447   0.235   1.735
 5552TIP3    H116592   0.483   0.146   1.725
 5552TIP3    H216593   0.362   0.231   1.692
 5553TIP3   OH216594   6.264   8.009   1.746
 5553TIP3    H116595   6.334   7.943   1.747
 5553TIP3    H216596   6.266   8.046   1.834
 5554TIP3   OH216597   6.712   7.716   1.612
 5554TIP3    H116598   6.797   7.678   1.592
 5554TIP3    H216599   6.650   7.666   1.559
 5555TIP3   OH216600   6.699   7.557   1.208
 5555TIP3    H116601   6.694   7.558   1.113
 5555TIP3    H216602   6.629   7.617   1.236
 5556TIP3   OH216603   6.476   7.823   1.728
 5556TIP3    H116604   6.447   7.744   1.772
 5556TIP3    H216605   6.563   7.801   1.695
 5557TIP3   OH216606   6.836   7.354   1.356
 5557TIP3    H116607   6.809   7.297   1.428
 5557TIP3    H216608   6.840   7.296   1.280
 5558TIP3   OH216609   6.411   7.570   1.810
 5558TIP3    H116610   6.409   7.485   1.765
 5558TIP3    H216611   6.445   7.550   1.897
 5559TIP3   OH216612   6.977   7.294   1.616
 5559TIP3    H116613   7.059   7.246   1.603
 5559TIP3    H216614   6.909   7.229   1.601
 5560TIP3   OH216615   6.994   7.448   1.840
 5560TIP3    H116616   6.991   7.396   1.759
 5560TIP3    H216617   6.915   7.502   1.837
 5561TIP3   OH216618   5.915   7.962   1.142
 5561TIP3    H116619   5.888   7.948   1.051
 5561TIP3    H216620   6.008   7.941   1.143
 5562TIP3   OH216621   6.149   7.644   1.803
 5562TIP3    H116622   6.243   7.626   1.802
 5562TIP3    H216623   6.108   7.559   1.815
 5563TIP3   OH216624   6.112   7.233   1.128
 5563TIP3    H116625   6.183   7.172   1.146
 5563TIP3    H216626   6.146   7.290   1.060
 5564TIP3   OH216627   5.849   7.684   1.165
 5564TIP3    H116628   5.910   7.610   1.162
 5564TIP3    H216629   5.890   7.746   1.226
 5565TIP3   OH216630   6.103   7.231   1.544
 5565TIP3    H116631   6.059   7.187   1.616
 5565TIP3    H216632   6.034   7.251   1.481
 5566TIP3   OH216633   6.197   6.921   0.893
 5566TIP3    H116634   6.123   6.866   0.919
 5566TIP3    H216635   6.226   6.884   0.809
 5567TIP3   OH216636   6.397   7.305   1.725
 5567TIP3    H116637   6.364   7.239   1.786
 5567TIP3    H216638   6.492   7.305   1.739
 5568TIP3   OH216639   6.643   7.289   1.848
 5568TIP3    H116640   6.736   7.283   1.828
 5568TIP3    H216641   6.628   7.223   1.916
 5569TIP3   OH216642   1.842   0.525   5.780
 5569TIP3    H116643   1.857   0.445   5.829
 5569TIP3    H216644   1.888   0.593   5.829
 5570TIP3   OH216645   1.558   0.876   5.770
 5570TIP3    H116646   1.581   0.841   5.856
 5570TIP3    H216647   1.522   0.963   5.788
 5571TIP3   OH216648   2.389  -0.009   6.374
 5571TIP3    H116649   2.350   0.042   6.303
 5571TIP3    H216650   2.484  -0.000   6.361
 5572TIP3   OH216651   1.506   0.427   5.509
 5572TIP3    H116652   1.555   0.353   5.474
 5572TIP3    H216653   1.499   0.409   5.603
 5573TIP3   OH216654   1.897   0.777   5.908
 5573TIP3    H116655   1.806   0.764   5.934
 5573TIP3    H216656   1.898   0.860   5.860
 5574TIP3   OH216657   1.705   0.636   5.576
 5574TIP3    H116658   1.695   0.568   5.509
 5574TIP3    H216659   1.763   0.598   5.641
 5575TIP3   OH216660   2.143   0.630   6.203
 5575TIP3    H116661   2.171   0.584   6.124
 5575TIP3    H216662   2.133   0.721   6.175
 5576TIP3   OH216663   1.790   0.189   5.522
 5576TIP3    H116664   1.734   0.152   5.590
 5576TIP3    H216665   1.878   0.160   5.546
 5577TIP3   OH216666   1.639   0.757   6.001
 5577TIP3    H116667   1.638   0.830   6.062
 5577TIP3    H216668   1.651   0.680   6.056
 5578TIP3   OH216669   1.419   0.749   5.509
 5578TIP3    H116670   1.376   0.669   5.478
 5578TIP3    H216671   1.367   0.820   5.470
 5579TIP3   OH216672   1.946   0.607   4.925
 5579TIP3    H116673   1.943   0.699   4.899
 5579TIP3    H216674   2.035   0.578   4.904
 5580TIP3   OH216675   2.368   1.022   6.297
 5580TIP3    H116676   2.375   0.928   6.308
 5580TIP3    H216677   2.289   1.046   6.346
 5581TIP3   OH216678   1.476   0.809   6.389
 5581TIP3    H116679   1.469   0.899   6.421
 5581TIP3    H216680   1.441   0.756   6.461
 5582TIP3   OH216681   1.273   0.937   5.376
 5582TIP3    H116682   1.225   0.908   5.298
 5582TIP3    H216683   1.224   1.014   5.406
 5583TIP3   OH216684   1.477   0.826   5.065
 5583TIP3    H116685   1.509   0.758   5.006
 5583TIP3    H216686   1.519   0.807   5.149
 5584TIP3   OH216687   2.260   0.124   6.578
 5584TIP3    H116688   2.177   0.159   6.547
 5584TIP3    H216689   2.285   0.059   6.512
 5585TIP3   OH216690   7.399   7.971   5.090
 5585TIP3    H116691   7.333   7.967   5.020
 5585TIP3    H216692   7.450   8.049   5.070
 5586TIP3   OH216693   2.082   1.365   6.399
 5586TIP3    H116694   2.083   1.375   6.304
 5586TIP3    H216695   2.161   1.410   6.429
 5587TIP3   OH216696   1.377   0.423   5.210
 5587TIP3    H116697   1.341   0.482   5.277
 5587TIP3    H216698   1.355   0.335   5.242
 5588TIP3   OH216699   1.760   0.814   6.366
 5588TIP3    H116700   1.664   0.806   6.364
 5588TIP3    H216701   1.781   0.832   6.458
 5589TIP3   OH216702   7.876   7.873   5.211
 5589TIP3    H116703   7.800   7.821   5.183
 5589TIP3    H216704   7.853   7.963   5.187
 5590TIP3   OH216705   2.383   0.750   6.329
 5590TIP3    H116706   2.302   0.706   6.354
 5590TIP3    H216707   2.413   0.703   6.251
 5591TIP3   OH216708   1.829   0.652   5.177
 5591TIP3    H116709   1.828   0.570   5.226
 5591TIP3    H216710   1.872   0.629   5.094
 5592TIP3   OH216711   1.891   0.304   5.942
 5592TIP3    H116712   1.839   0.272   6.015
 5592TIP3    H216713   1.980   0.275   5.961
 5593TIP3   OH216714   1.277   0.913   6.199
 5593TIP3    H116715   1.333   0.971   6.148
 5593TIP3    H216716   1.337   0.865   6.256
 5594TIP3   OH216717   1.703   0.554   6.175
 5594TIP3    H116718   1.651   0.545   6.255
 5594TIP3    H216719   1.793   0.539   6.203
 5595TIP3   OH216720   1.632   0.413   5.098
 5595TIP3    H116721   1.692   0.389   5.169
 5595TIP3    H216722   1.547   0.422   5.140
 5596TIP3   OH216723   1.886   1.042   6.257
 5596TIP3    H116724   1.825   0.969   6.271
 5596TIP3    H216725   1.856   1.083   6.176
 5597TIP3   OH216726   1.950   0.880   4.882
 5597TIP3    H116727   1.995   0.953   4.838
 5597TIP3    H216728   1.875   0.921   4.924
 5598TIP3   OH216729   1.810   0.364   5.302
 5598TIP3    H116730   1.795   0.304   5.375
 5598TIP3    H216731   1.903   0.354   5.282
 5599TIP3   OH216732   1.223   0.611   5.352
 5599TIP3    H116733   1.133   0.594   5.379
 5599TIP3    H216734   1.216   0.678   5.284
 5600TIP3   OH216735   1.902   1.034   5.801
 5600TIP3    H116736   1.857   1.076   5.727
 5600TIP3    H216737   1.994   1.057   5.790
 5601TIP3   OH216738   1.188   0.536   5.038
 5601TIP3    H116739   1.258   0.489   5.083
 5601TIP3    H216740   1.205   0.519   4.945
 5602TIP3   OH216741   1.837   0.867   6.626
 5602TIP3    H116742   1.870   0.804   6.689
 5602TIP3    H216743   1.899   0.939   6.629
 5603TIP3   OH216744   1.580   0.625   4.913
 5603TIP3    H116745   1.635   0.571   4.970
 5603TIP3    H216746   1.627   0.627   4.829
 5604TIP3   OH216747   1.923   0.570   6.358
 5604TIP3    H116748   2.004   0.586   6.310
 5604TIP3    H216749   1.882   0.656   6.367
 5605TIP3   OH216750   1.903   0.131   4.955
 5605TIP3    H116751   1.898   0.080   4.874
 5605TIP3    H216752   1.874   0.219   4.930
 5606TIP3   OH216753   2.059   0.396   6.545
 5606TIP3    H116754   1.996   0.440   6.488
 5606TIP3    H216755   2.144   0.415   6.506
 5607TIP3   OH216756   0.974   0.919   5.202
 5607TIP3    H116757   1.048   0.867   5.170
 5607TIP3    H216758   0.928   0.948   5.123
 5608TIP3   OH216759   2.162   1.121   5.800
 5608TIP3    H116760   2.196   1.121   5.889
 5608TIP3    H216761   2.239   1.130   5.744
 5609TIP3   OH216762   2.214   1.108   6.078
 5609TIP3    H116763   2.165   1.026   6.078
 5609TIP3    H216764   2.284   1.093   6.141
 5610TIP3   OH216765   2.267   0.798   6.645
 5610TIP3    H116766   2.195   0.816   6.705
 5610TIP3    H216767   2.314   0.881   6.638
 5611TIP3   OH216768   2.082   0.328   5.269
 5611TIP3    H116769   2.144   0.395   5.239
 5611TIP3    H216770   2.120   0.296   5.351
 5612TIP3   OH216771   2.186   0.210   5.494
 5612TIP3    H116772   2.132   0.175   5.565
 5612TIP3    H216773   2.264   0.243   5.538
 5613TIP3   OH216774   2.242   0.599   5.939
 5613TIP3    H116775   2.290   0.526   5.900
 5613TIP3    H216776   2.241   0.667   5.872
 5614TIP3   OH216777   2.065   0.877   6.103
 5614TIP3    H116778   1.997   0.913   6.160
 5614TIP3    H216779   2.018   0.832   6.033
 5615TIP3   OH216780   2.118   0.101   5.118
 5615TIP3    H116781   2.044   0.107   5.058
 5615TIP3    H216782   2.109   0.177   5.176
 5616TIP3   OH216783   7.664   7.815   5.042
 5616TIP3    H116784   7.610   7.883   5.081
 5616TIP3    H216785   7.602   7.759   4.994
 5617TIP3   OH216786   2.016   0.062   5.667
 5617TIP3    H116787   2.044  -0.028   5.651
 5617TIP3    H216788   2.026   0.074   5.762
 5618TIP3   OH216789   2.307   0.457   6.433
 5618TIP3    H116790   2.375   0.391   6.445
 5618TIP3    H216791   2.287   0.454   6.340
 5619TIP3   OH216792   2.487   0.261   6.488
 5619TIP3    H116793   2.412   0.209   6.518
 5619TIP3    H216794   2.561   0.201   6.493
 5620TIP3   OH216795   2.107   0.027   5.968
 5620TIP3    H116796   2.189  -0.008   5.933
 5620TIP3    H216797   2.134   0.076   6.047
 5621TIP3   OH216798   1.474   1.063   6.486
 5621TIP3    H116799   1.507   1.033   6.571
 5621TIP3    H216800   1.545   1.116   6.450
 5622TIP3   OH216801   1.679   1.211   6.379
 5622TIP3    H116802   1.749   1.155   6.346
 5622TIP3    H216803   1.724   1.279   6.429
 5623TIP3   OH216804   1.394   1.106   6.030
 5623TIP3    H116805   1.312   1.124   5.985
 5623TIP3    H216806   1.409   1.184   6.084
 5624TIP3   OH216807   1.641   1.013   6.098
 5624TIP3    H116808   1.551   1.041   6.079
 5624TIP3    H216809   1.695   1.085   6.067
 5625TIP3   OH216810   1.837   1.192   6.018
 5625TIP3    H116811   1.832   1.279   5.979
 5625TIP3    H216812   1.865   1.135   5.946
 5626TIP3   OH216813   1.207   0.790   5.135
 5626TIP3    H116814   1.291   0.817   5.097
 5626TIP3    H216815   1.185   0.709   5.089
 5627TIP3   OH216816   1.906   0.918   5.211
 5627TIP3    H116817   1.879   0.826   5.210
 5627TIP3    H216818   1.856   0.958   5.140
 5628TIP3   OH216819   2.121   1.093   6.395
 5628TIP3    H116820   2.042   1.064   6.348
 5628TIP3    H216821   2.110   1.187   6.405
 5629TIP3   OH216822   3.376   0.464   5.148
 5629TIP3    H116823   3.350   0.553   5.124
 5629TIP3    H216824   3.303   0.410   5.120
 5630TIP3   OH216825   3.378   0.475   5.587
 5630TIP3    H116826   3.433   0.445   5.659
 5630TIP3    H216827   3.327   0.397   5.562
 5631TIP3   OH216828   2.677   0.340   5.892
 5631TIP3    H116829   2.692   0.278   5.963
 5631TIP3    H216830   2.763   0.350   5.851
 5632TIP3   OH216831   3.653   0.775   5.252
 5632TIP3    H116832   3.631   0.713   5.322
 5632TIP3    H216833   3.676   0.856   5.297
 5633TIP3   OH216834   2.666   0.745   5.606
 5633TIP3    H116835   2.651   0.651   5.608
 5633TIP3    H216836   2.761   0.754   5.603
 5634TIP3   OH216837   8.004   7.998   5.429
 5634TIP3    H116838   7.955   8.078   5.448
 5634TIP3    H216839   7.949   7.950   5.368
 5635TIP3   OH216840   2.432   0.276   5.601
 5635TIP3    H116841   2.478   0.198   5.632
 5635TIP3    H216842   2.502   0.339   5.583
 5636TIP3   OH216843   3.312   1.194   5.265
 5636TIP3    H116844   3.337   1.129   5.199
 5636TIP3    H216845   3.320   1.148   5.349
 5637TIP3   OH216846   3.190   0.693   5.581
 5637TIP3    H116847   3.233   0.611   5.558
 5637TIP3    H216848   3.260   0.750   5.613
 5638TIP3   OH216849   3.630   0.158   5.639
 5638TIP3    H116850   3.704   0.097   5.635
 5638TIP3    H216851   3.581   0.143   5.558
 5639TIP3   OH216852   0.069   7.830   5.597
 5639TIP3    H116853   0.073   7.902   5.533
 5639TIP3    H216854   0.012   7.765   5.557
 5640TIP3   OH216855   0.737   7.973   5.277
 5640TIP3    H116856   0.816   7.919   5.280
 5640TIP3    H216857   0.725   7.992   5.184
 5641TIP3   OH216858   2.569   0.054   5.692
 5641TIP3    H116859   2.653   0.044   5.737
 5641TIP3    H216860   2.571  -0.012   5.623
 5642TIP3   OH216861   2.982   0.240   5.519
 5642TIP3    H116862   3.077   0.229   5.525
 5642TIP3    H216863   2.950   0.155   5.491
 5643TIP3   OH216864   4.295   0.283   5.744
 5643TIP3    H116865   4.200   0.286   5.735
 5643TIP3    H216866   4.311   0.265   5.836
 5644TIP3   OH216867   3.288   0.688   5.009
 5644TIP3    H116868   3.249   0.656   4.928
 5644TIP3    H216869   3.232   0.761   5.035
 5645TIP3   OH216870   3.032   0.608   5.792
 5645TIP3    H116871   2.975   0.676   5.827
 5645TIP3    H216872   3.078   0.650   5.720
 5646TIP3   OH216873  -0.017   8.006   5.791
 5646TIP3    H116874   0.058   8.046   5.835
 5646TIP3    H216875   0.021   7.937   5.736
 5647TIP3   OH216876   2.868   0.806   5.897
 5647TIP3    H116877   2.854   0.897   5.869
 5647TIP3    H216878   2.790   0.784   5.948
 5648TIP3   OH216879   2.257   0.512   5.155
 5648TIP3    H116880   2.228   0.534   5.066
 5648TIP3    H216881   2.283   0.596   5.192
 5649TIP3   OH216882   3.691   1.018   5.393
 5649TIP3    H116883   3.603   1.009   5.430
 5649TIP3    H216884   3.689   1.102   5.347
 5650TIP3   OH216885   3.395   1.044   5.045
 5650TIP3    H116886   3.449   0.965   5.035
 5650TIP3    H216887   3.451   1.116   5.015
 5651TIP3   OH216888   3.541   0.818   5.002
 5651TIP3    H116889   3.470   0.754   4.998
 5651TIP3    H216890   3.590   0.795   5.081
 5652TIP3   OH216891   3.923   0.906   5.735
 5652TIP3    H116892   3.905   0.830   5.678
 5652TIP3    H216893   3.907   0.982   5.679
 5653TIP3   OH216894   3.197   0.316   4.996
 5653TIP3    H116895   3.117   0.361   4.969
 5653TIP3    H216896   3.246   0.301   4.915
 5654TIP3   OH216897   3.189   0.095   4.679
 5654TIP3    H116898   3.254   0.144   4.730
 5654TIP3    H216899   3.240   0.030   4.631
 5655TIP3   OH216900   4.115   0.579   5.599
 5655TIP3    H116901   4.026   0.614   5.601
 5655TIP3    H216902   4.148   0.605   5.513
 5656TIP3   OH216903   3.564   0.394   4.964
 5656TIP3    H116904   3.502   0.419   5.032
 5656TIP3    H216905   3.649   0.394   5.008
 5657TIP3   OH216906   3.787   0.432   5.893
 5657TIP3    H116907   3.777   0.513   5.943
 5657TIP3    H216908   3.703   0.420   5.849
 5658TIP3   OH216909   2.799   0.381   5.369
 5658TIP3    H116910   2.764   0.320   5.304
 5658TIP3    H216911   2.868   0.331   5.413
 5659TIP3   OH216912   2.934   0.801   5.513
 5659TIP3    H116913   2.913   0.784   5.421
 5659TIP3    H216914   3.021   0.764   5.525
 5660TIP3   OH216915   2.915   0.361   5.758
 5660TIP3    H116916   2.942   0.325   5.674
 5660TIP3    H216917   2.961   0.445   5.765
 5661TIP3   OH216918   3.449   1.009   5.517
 5661TIP3    H116919   3.437   1.088   5.569
 5661TIP3    H216920   3.436   0.937   5.579
 5662TIP3   OH216921   3.071   0.902   6.062
 5662TIP3    H116922   3.012   0.959   6.111
 5662TIP3    H216923   3.013   0.850   6.007
 5663TIP3   OH216924   3.383   0.260   4.797
 5663TIP3    H116925   3.449   0.304   4.850
 5663TIP3    H216926   3.417   0.264   4.707
 5664TIP3   OH216927   2.812   0.462   6.198
 5664TIP3    H116928   2.817   0.555   6.218
 5664TIP3    H216929   2.719   0.441   6.204
 5665TIP3   OH216930   3.147   0.926   5.048
 5665TIP3    H116931   3.230   0.972   5.057
 5665TIP3    H216932   3.090   0.988   5.002
 5666TIP3   OH216933   2.865   1.064   6.148
 5666TIP3    H116934   2.834   1.072   6.057
 5666TIP3    H216935   2.785   1.052   6.199
 5667TIP3   OH216936   2.679   0.219   5.171
 5667TIP3    H116937   2.593   0.251   5.142
 5667TIP3    H216938   2.663   0.128   5.196
 5668TIP3   OH216939   3.727   0.856   4.409
 5668TIP3    H116940   3.727   0.950   4.390
 5668TIP3    H216941   3.817   0.828   4.390
 5669TIP3   OH216942   2.465   0.602   6.113
 5669TIP3    H116943   2.396   0.588   6.048
 5669TIP3    H216944   2.494   0.514   6.136
 5670TIP3   OH216945   2.340   0.798   5.739
 5670TIP3    H116946   2.417   0.748   5.714
 5670TIP3    H216947   2.373   0.865   5.799
 5671TIP3   OH216948   4.167   1.261   5.822
 5671TIP3    H116949   4.172   1.166   5.833
 5671TIP3    H216950   4.082   1.285   5.859
 5672TIP3   OH216951   3.258   1.051   5.927
 5672TIP3    H116952   3.251   1.142   5.958
 5672TIP3    H216953   3.191   1.004   5.977
 5673TIP3   OH216954   3.040   1.148   4.880
 5673TIP3    H116955   2.993   1.130   4.799
 5673TIP3    H216956   3.006   1.232   4.910
 5674TIP3   OH216957   2.476   1.007   5.264
 5674TIP3    H116958   2.521   1.000   5.348
 5674TIP3    H216959   2.430   0.923   5.255
 5675TIP3   OH216960   3.235   1.082   4.504
 5675TIP3    H116961   3.287   1.010   4.468
 5675TIP3    H216962   3.271   1.096   4.592
 5676TIP3   OH216963   3.294   1.124   4.773
 5676TIP3    H116964   3.209   1.126   4.817
 5676TIP3    H216965   3.354   1.087   4.837
 5677TIP3   OH216966   4.036   0.399   6.097
 5677TIP3    H116967   3.965   0.455   6.068
 5677TIP3    H216968   4.001   0.310   6.090
 5678TIP3   OH216969   2.646   0.805   6.064
 5678TIP3    H116970   2.700   0.800   6.142
 5678TIP3    H216971   2.582   0.734   6.075
 5679TIP3   OH216972   3.856   0.200   6.042
 5679TIP3    H116973   3.785   0.140   6.062
 5679TIP3    H216974   3.820   0.260   5.976
 5680TIP3   OH216975   3.477   0.259   4.542
 5680TIP3    H116976   3.432   0.231   4.463
 5680TIP3    H216977   3.551   0.312   4.510
 5681TIP3   OH216978   3.002   0.154   5.927
 5681TIP3    H116979   2.937   0.160   5.997
 5681TIP3    H216980   2.982   0.228   5.869
 5682TIP3   OH216981   2.850   0.018   5.415
 5682TIP3    H116982   2.759  -0.008   5.429
 5682TIP3    H216983   2.868  -0.005   5.324
 5683TIP3   OH216984   3.305   0.130   5.167
 5683TIP3    H116985   3.259   0.195   5.113
 5683TIP3    H216986   3.383   0.108   5.116
 5684TIP3   OH216987   3.530   0.390   6.209
 5684TIP3    H116988   3.495   0.320   6.264
 5684TIP3    H216989   3.622   0.397   6.234
 5685TIP3   OH216990   3.468   0.172   5.400
 5685TIP3    H116991   3.404   0.198   5.334
 5685TIP3    H216992   3.504   0.090   5.367
 5686TIP3   OH216993   2.803   0.196   6.112
 5686TIP3    H116994   2.811   0.284   6.149
 5686TIP3    H216995   2.733   0.155   6.162
 5687TIP3   OH216996   8.140   7.771   5.226
 5687TIP3    H116997   8.148   7.766   5.130
 5687TIP3    H216998   8.051   7.803   5.240
 5688TIP3   OH216999   3.534   0.360   5.790
 5688TIP3    H117000   3.571   0.293   5.733
 5688TIP3    H217001   3.496   0.311   5.863
 5689TIP3   OH217002   8.264   7.920   5.431
 5689TIP3    H117003   8.175   7.956   5.439
 5689TIP3    H217004   8.255   7.852   5.365
 5690TIP3   OH217005   0.040   7.946   5.158
 5690TIP3    H117006   0.134   7.929   5.150
 5690TIP3    H217007   0.005   7.928   5.071
 5691TIP3   OH217008   8.425   7.926   4.901
 5691TIP3    H117009   8.351   7.918   4.840
 5691TIP3    H217010   8.491   7.975   4.852
 5692TIP3   OH217011   3.872   1.609   5.892
 5692TIP3    H117012   3.867   1.628   5.798
 5692TIP3    H217013   3.950   1.655   5.921
 5693TIP3   OH217014   2.805   0.725   6.293
 5693TIP3    H117015   2.888   0.743   6.338
 5693TIP3    H217016   2.738   0.733   6.360
 5694TIP3   OH217017   3.253   0.220   5.569
 5694TIP3    H117018   3.329   0.185   5.522
 5694TIP3    H217019   3.258   0.180   5.656
 5695TIP3   OH217020   3.260   0.125   5.824
 5695TIP3    H117021   3.175   0.126   5.867
 5695TIP3    H217022   3.321   0.158   5.890
 5696TIP3   OH217023   2.962   0.456   4.935
 5696TIP3    H117024   2.893   0.392   4.918
 5696TIP3    H217025   2.943   0.491   5.022
 5697TIP3   OH217026   3.869   0.700   5.558
 5697TIP3    H117027   3.897   0.754   5.485
 5697TIP3    H217028   3.783   0.666   5.532
 5698TIP3   OH217029   3.389   0.790   5.965
 5698TIP3    H117030   3.428   0.777   6.052
 5698TIP3    H217031   3.341   0.873   5.972
 5699TIP3   OH217032   3.529   0.061   5.019
 5699TIP3    H117033   3.597   0.126   5.000
 5699TIP3    H217034   3.505   0.026   4.934
 5700TIP3   OH217035   2.658   0.462   5.593
 5700TIP3    H117036   2.708   0.439   5.514
 5700TIP3    H217037   2.707   0.422   5.665
 5701TIP3   OH217038   3.132   0.607   4.785
 5701TIP3    H117039   3.086   0.691   4.782
 5701TIP3    H217040   3.074   0.550   4.836
 5702TIP3   OH217041   2.554   0.364   6.232
 5702TIP3    H117042   2.552   0.348   6.326
 5702TIP3    H217043   2.482   0.311   6.197
 5703TIP3   OH217044   3.296   0.538   6.262
 5703TIP3    H117045   3.223   0.485   6.231
 5703TIP3    H217046   3.373   0.498   6.224
 5704TIP3   OH217047   3.531   1.072   5.850
 5704TIP3    H117048   3.436   1.057   5.855
 5704TIP3    H217049   3.554   1.107   5.936
 5705TIP3   OH217050   3.919   0.148   4.745
 5705TIP3    H117051   3.861   0.107   4.682
 5705TIP3    H217052   3.930   0.238   4.713
 5706TIP3   OH217053   4.170   0.974   5.828
 5706TIP3    H117054   4.075   0.968   5.818
 5706TIP3    H217055   4.205   0.947   5.743
 5707TIP3   OH217056   3.652   0.927   4.680
 5707TIP3    H117057   3.627   0.860   4.743
 5707TIP3    H217058   3.672   0.878   4.600
 5708TIP3   OH217059   3.615   0.597   5.470
 5708TIP3    H117060   3.526   0.575   5.499
 5708TIP3    H217061   3.646   0.518   5.426
 5709TIP3   OH217062   2.795   0.802   5.266
 5709TIP3    H117063   2.789   0.878   5.207
 5709TIP3    H217064   2.705   0.789   5.297
 5710TIP3   OH217065   2.350   0.070   4.972
 5710TIP3    H117066   2.400   0.149   4.991
 5710TIP3    H217067   2.269   0.079   5.022
 5711TIP3   OH217068   2.879   0.557   5.169
 5711TIP3    H117069   2.863   0.646   5.201
 5711TIP3    H217070   2.856   0.501   5.243
 5712TIP3   OH217071   3.075   1.123   5.721
 5712TIP3    H117072   3.112   1.196   5.672
 5712TIP3    H217073   3.147   1.090   5.774
 5713TIP3   OH217074   2.706   1.026   5.113
 5713TIP3    H117075   2.621   1.031   5.156
 5713TIP3    H217076   2.742   1.114   5.119
 5714TIP3   OH217077   3.428   0.791   5.692
 5714TIP3    H117078   3.417   0.787   5.787
 5714TIP3    H217079   3.504   0.735   5.675
 5715TIP3   OH217080   3.406   0.665   4.572
 5715TIP3    H117081   3.459   0.640   4.647
 5715TIP3    H217082   3.324   0.617   4.584
 5716TIP3   OH217083   3.684   1.282   5.735
 5716TIP3    H117084   3.615   1.218   5.755
 5716TIP3    H217085   3.647   1.334   5.664
 5717TIP3   OH217086   3.731   1.127   4.359
 5717TIP3    H117087   3.739   1.178   4.278
 5717TIP3    H217088   3.667   1.176   4.412
 5718TIP3   OH217089   3.585   0.587   4.761
 5718TIP3    H117090   3.571   0.526   4.833
 5718TIP3    H217091   3.680   0.599   4.757
 5719TIP3   OH217092   2.488   0.997   5.892
 5719TIP3    H117093   2.542   0.934   5.940
 5719TIP3    H217094   2.504   1.080   5.935
 5720TIP3   OH217095   2.768   0.640   4.577
 5720TIP3    H117096   2.783   0.549   4.550
 5720TIP3    H217097   2.757   0.635   4.672
 5721TIP3   OH217098   2.719   0.647   4.851
 5721TIP3    H117099   2.791   0.617   4.906
 5721TIP3    H217100   2.720   0.743   4.860
 5722TIP3   OH217101   2.443   0.322   5.055
 5722TIP3    H117102   2.383   0.373   5.110
 5722TIP3    H217103   2.469   0.383   4.985
 5723TIP3   OH217104   2.983   0.832   4.780
 5723TIP3    H117105   2.900   0.857   4.820
 5723TIP3    H217106   3.007   0.909   4.727
 5724TIP3   OH217107   0.316   7.915   5.177
 5724TIP3    H117108   0.364   7.998   5.172
 5724TIP3    H217109   0.366   7.862   5.239
 5725TIP3   OH217110   3.448   0.215   6.012
 5725TIP3    H117111   3.467   0.289   6.070
 5725TIP3    H217112   3.455   0.138   6.068
 5726TIP3   OH217113   2.735   0.921   4.862
 5726TIP3    H117114   2.713   0.992   4.802
 5726TIP3    H217115   2.724   0.959   4.949
 5727TIP3   OH217116   3.680   0.352   5.363
 5727TIP3    H117117   3.607   0.293   5.381
 5727TIP3    H217118   3.750   0.322   5.421
 5728TIP3   OH217119   2.476   0.516   4.848
 5728TIP3    H117120   2.548   0.578   4.860
 5728TIP3    H217121   2.509   0.452   4.786
 5729TIP3   OH217122   8.014   7.796   4.956
 5729TIP3    H117123   8.040   7.887   4.943
 5729TIP3    H217124   7.951   7.799   5.027
 5730TIP3   OH217125   3.710   1.281   5.305
 5730TIP3    H117126   3.670   1.332   5.235
 5730TIP3    H217127   3.804   1.294   5.293
 5731TIP3   OH217128   2.304   0.781   5.242
 5731TIP3    H117129   2.262   0.818   5.319
 5731TIP3    H217130   2.262   0.826   5.168
 5732TIP3   OH217131   2.508   1.323   6.314
 5732TIP3    H117132   2.590   1.325   6.364
 5732TIP3    H217133   2.488   1.230   6.303
 5733TIP3   OH217134   2.972   1.245   6.326
 5733TIP3    H117135   3.058   1.211   6.351
 5733TIP3    H217136   2.940   1.183   6.260
 5734TIP3   OH217137   2.926   0.833   4.457
 5734TIP3    H117138   2.879   0.765   4.505
 5734TIP3    H217139   3.004   0.788   4.423
 5735TIP3   OH217140   3.591   1.169   6.098
 5735TIP3    H117141   3.603   1.101   6.164
 5735TIP3    H217142   3.665   1.229   6.112
 5736TIP3   OH217143   3.378   0.871   4.399
 5736TIP3    H117144   3.390   0.804   4.467
 5736TIP3    H217145   3.465   0.883   4.361
 5737TIP3   OH217146   2.609   0.717   6.490
 5737TIP3    H117147   2.628   0.623   6.492
 5737TIP3    H217148   2.523   0.723   6.449
 5738TIP3   OH217149   2.608   0.331   4.698
 5738TIP3    H117150   2.658   0.301   4.775
 5738TIP3    H217151   2.675   0.346   4.631
 5739TIP3   OH217152   3.233   0.810   6.266
 5739TIP3    H117153   3.183   0.823   6.185
 5739TIP3    H217154   3.263   0.719   6.260
 5740TIP3   OH217155   3.149   0.543   4.517
 5740TIP3    H117156   3.131   0.553   4.611
 5740TIP3    H217157   3.139   0.449   4.501
 5741TIP3   OH217158   3.698   0.844   5.886
 5741TIP3    H117159   3.775   0.874   5.839
 5741TIP3    H217160   3.632   0.911   5.870
 5742TIP3   OH217161   2.733   0.470   6.486
 5742TIP3    H117162   2.807   0.454   6.429
 5742TIP3    H217163   2.771   0.482   6.573
 5743TIP3   OH217164   2.773   0.258   4.908
 5743TIP3    H117165   2.756   0.233   4.999
 5743TIP3    H217166   2.826   0.186   4.873
 5744TIP3   OH217167   3.084   0.386   6.162
 5744TIP3    H117168   2.994   0.420   6.160
 5744TIP3    H217169   3.118   0.406   6.075
 5745TIP3   OH217170   2.921   0.077   4.754
 5745TIP3    H117171   2.890   0.090   4.665
 5745TIP3    H217172   3.017   0.077   4.746
 5746TIP3   OH217173   3.579   0.727   6.246
 5746TIP3    H117174   3.637   0.677   6.188
 5746TIP3    H217175   3.572   0.673   6.325
 5747TIP3   OH217176   3.704   0.363   4.424
 5747TIP3    H117177   3.685   0.326   4.338
 5747TIP3    H217178   3.679   0.456   4.416
 5748TIP3   OH217179   3.137   0.145   6.271
 5748TIP3    H117180   3.104   0.082   6.206
 5748TIP3    H217181   3.120   0.230   6.232
 5749TIP3   OH217182   3.215   0.461   5.936
 5749TIP3    H117183   3.301   0.478   5.898
 5749TIP3    H217184   3.155   0.515   5.885
 5750TIP3   OH217185   3.785   0.410   6.318
 5750TIP3    H117186   3.815   0.353   6.389
 5750TIP3    H217187   3.861   0.465   6.298
 5751TIP3   OH217188   3.820   0.667   6.051
 5751TIP3    H117189   3.763   0.728   6.005
 5751TIP3    H217190   3.908   0.686   6.017
 5752TIP3   OH217191   3.040   0.252   6.515
 5752TIP3    H117192   2.960   0.205   6.540
 5752TIP3    H217193   3.067   0.211   6.433
 5753TIP3   OH217194   3.408   0.177   6.330
 5753TIP3    H117195   3.417   0.148   6.421
 5753TIP3    H217196   3.315   0.164   6.310
 5754TIP3   OH217197   2.727   1.129   4.676
 5754TIP3    H117198   2.817   1.107   4.651
 5754TIP3    H217199   2.691   1.173   4.599
 5755TIP3   OH217200   2.204   0.516   4.868
 5755TIP3    H117201   2.298   0.531   4.866
 5755TIP3    H217202   2.193   0.427   4.835
 5756TIP3   OH217203   2.099   1.080   5.318
 5756TIP3    H117204   2.036   1.022   5.274
 5756TIP3    H217205   2.143   1.023   5.381
 5757TIP3   OH217206   2.246   0.924   5.495
 5757TIP3    H117207   2.244   0.856   5.562
 5757TIP3    H217208   2.296   0.995   5.534
 5758TIP3   OH217209   3.980   1.337   5.301
 5758TIP3    H117210   3.996   1.355   5.394
 5758TIP3    H217211   4.022   1.409   5.255
 5759TIP3   OH217212   4.002   1.364   5.579
 5759TIP3    H117213   3.959   1.278   5.582
 5759TIP3    H217214   4.075   1.357   5.641
 5760TIP3   OH217215   4.056   1.057   6.148
 5760TIP3    H117216   3.980   1.068   6.206
 5760TIP3    H217217   4.101   1.141   6.153
 5761TIP3   OH217218   3.862   0.604   4.751
 5761TIP3    H117219   3.922   0.672   4.719
 5761TIP3    H217220   3.904   0.571   4.830
 5762TIP3   OH217221   3.988   0.485   4.962
 5762TIP3    H117222   3.921   0.457   5.025
 5762TIP3    H217223   4.054   0.528   5.016
 5763TIP3   OH217224   4.037   0.861   5.401
 5763TIP3    H117225   4.091   0.795   5.359
 5763TIP3    H217226   4.039   0.935   5.340
 5764TIP3   OH217227   3.860   1.126   5.585
 5764TIP3    H117228   3.792   1.171   5.636
 5764TIP3    H217229   3.812   1.085   5.513
 5765TIP3   OH217230   3.908   0.380   4.604
 5765TIP3    H117231   3.836   0.372   4.541
 5765TIP3    H217232   3.888   0.459   4.654
 5766TIP3   OH217233   3.773   0.076   4.524
 5766TIP3    H117234   3.715   0.148   4.501
 5766TIP3    H217235   3.728  -0.002   4.492
 5767TIP3   OH217236   3.795   0.366   5.115
 5767TIP3    H117237   3.806   0.273   5.098
 5767TIP3    H217238   3.758   0.370   5.204
 5768TIP3   OH217239   2.423   0.430   5.833
 5768TIP3    H117240   2.406   0.373   5.758
 5768TIP3    H217241   2.510   0.405   5.864
 5769TIP3   OH217242   4.074   0.717   5.955
 5769TIP3    H117243   4.143   0.653   5.938
 5769TIP3    H217244   4.093   0.789   5.895
 5770TIP3   OH217245   4.249   0.509   5.958
 5770TIP3    H117246   4.173   0.469   5.999
 5770TIP3    H217247   4.321   0.447   5.974
 5771TIP3   OH217248   3.817   0.116   4.998
 5771TIP3    H117249   3.794   0.024   4.989
 5771TIP3    H217250   3.851   0.141   4.912
 5772TIP3   OH217251   3.896   0.293   5.512
 5772TIP3    H117252   3.978   0.301   5.465
 5772TIP3    H217253   3.920   0.295   5.605
 5773TIP3   OH217254   4.020   0.360   5.753
 5773TIP3    H117255   3.943   0.379   5.805
 5773TIP3    H217256   4.048   0.445   5.719
 5774TIP3   OH217257   2.669   0.056   6.514
 5774TIP3    H117258   2.727   0.096   6.578
 5774TIP3    H217259   2.637  -0.024   6.556
 5775TIP3   OH217260   2.372   0.010   5.900
 5775TIP3    H117261   2.444   0.035   5.842
 5775TIP3    H217262   2.375   0.074   5.970
 5776TIP3   OH217263   3.532   1.248   4.936
 5776TIP3    H117264   3.591   1.235   4.862
 5776TIP3    H217265   3.577   1.313   4.991
 5777TIP3   OH217266   2.641   1.046   6.307
 5777TIP3    H117267   2.548   1.026   6.295
 5777TIP3    H217268   2.657   1.031   6.401
 5778TIP3   OH217269   2.843   1.082   5.865
 5778TIP3    H117270   2.795   1.159   5.835
 5778TIP3    H217271   2.929   1.090   5.824
 5779TIP3   OH217272   3.248   1.319   6.005
 5779TIP3    H117273   3.286   1.310   6.093
 5779TIP3    H217274   3.312   1.372   5.957
 5780TIP3   OH217275   3.443   1.472   5.879
 5780TIP3    H117276   3.506   1.415   5.835
 5780TIP3    H217277   3.496   1.530   5.933
 5781TIP3   OH217278   2.511   1.334   5.914
 5781TIP3    H117279   2.420   1.358   5.895
 5781TIP3    H217280   2.536   1.393   5.985
 5782TIP3   OH217281   2.740   1.317   5.764
 5782TIP3    H117282   2.658   1.323   5.813
 5782TIP3    H217283   2.717   1.340   5.674
 5783TIP3   OH217284   3.153   1.334   5.558
 5783TIP3    H117285   3.080   1.347   5.496
 5783TIP3    H217286   3.163   1.420   5.600
 5784TIP3   OH217287   3.416   1.268   5.606
 5784TIP3    H117288   3.325   1.289   5.587
 5784TIP3    H217289   3.466   1.337   5.562
 5785TIP3   OH217290   3.615   1.439   5.509
 5785TIP3    H117291   3.617   1.527   5.471
 5785TIP3    H217292   3.646   1.382   5.439
 5786TIP3   OH217293   2.415   1.104   5.642
 5786TIP3    H117294   2.438   1.075   5.730
 5786TIP3    H217295   2.487   1.073   5.587
 5787TIP3   OH217296   2.620   0.993   5.499
 5787TIP3    H117297   2.630   0.907   5.539
 5787TIP3    H217298   2.707   1.033   5.503
 5788TIP3   OH217299   2.889   1.077   5.518
 5788TIP3    H117300   2.907   0.984   5.503
 5788TIP3    H217301   2.943   1.101   5.593
 5789TIP3   OH217302   2.192   0.902   5.022
 5789TIP3    H117303   2.107   0.867   4.996
 5789TIP3    H217304   2.192   0.992   4.988
 5790TIP3   OH217305   2.982   1.055   4.607
 5790TIP3    H117306   3.067   1.082   4.571
 5790TIP3    H217307   2.953   0.983   4.551
 5791TIP3   OH217308   3.691   1.196   4.713
 5791TIP3    H117309   3.683   1.101   4.706
 5791TIP3    H217310   3.650   1.229   4.633
 5792TIP3   OH217311   2.293   0.896   4.670
 5792TIP3    H117312   2.296   0.902   4.765
 5792TIP3    H217313   2.375   0.853   4.646
 5793TIP3   OH217314   3.910   1.335   5.894
 5793TIP3    H117315   3.834   1.306   5.845
 5793TIP3    H217316   3.900   1.430   5.902
 5794TIP3   OH217317   5.168   0.710   4.667
 5794TIP3    H117318   5.153   0.803   4.651
 5794TIP3    H217319   5.098   0.666   4.618
 5795TIP3   OH217320   5.189   0.744   5.047
 5795TIP3    H117321   5.233   0.740   5.131
 5795TIP3    H217322   5.132   0.666   5.045
 5796TIP3   OH217323   4.481   0.640   5.415
 5796TIP3    H117324   4.515   0.552   5.432
 5796TIP3    H217325   4.538   0.698   5.466
 5797TIP3   OH217326   5.449   1.033   4.730
 5797TIP3    H117327   5.436   0.972   4.803
 5797TIP3    H217328   5.471   1.116   4.772
 5798TIP3   OH217329   4.471   1.006   5.088
 5798TIP3    H117330   4.449   0.913   5.098
 5798TIP3    H217331   4.567   1.008   5.085
 5799TIP3   OH217332   4.143   0.269   4.887
 5799TIP3    H117333   4.096   0.349   4.909
 5799TIP3    H217334   4.077   0.200   4.890
 5800TIP3   OH217335   4.213   0.570   5.097
 5800TIP3    H117336   4.258   0.494   5.134
 5800TIP3    H217337   4.284   0.630   5.073
 5801TIP3   OH217338   5.104   1.458   4.740
 5801TIP3    H117339   5.133   1.389   4.682
 5801TIP3    H217340   5.092   1.415   4.825
 5802TIP3   OH217341   4.993   0.956   5.059
 5802TIP3    H117342   5.039   0.878   5.027
 5802TIP3    H217343   5.062   1.009   5.098
 5803TIP3   OH217344   5.363   0.474   5.084
 5803TIP3    H117345   5.377   0.379   5.090
 5803TIP3    H217346   5.309   0.485   5.006
 5804TIP3   OH217347   4.716   0.140   5.066
 5804TIP3    H117348   4.699   0.194   4.988
 5804TIP3    H217349   4.686   0.053   5.042
 5805TIP3   OH217350   5.323   0.127   4.631
 5805TIP3    H117351   5.282   0.136   4.717
 5805TIP3    H217352   5.370   0.209   4.618
 5806TIP3   OH217353   4.356   0.385   5.259
 5806TIP3    H117354   4.410   0.322   5.306
 5806TIP3    H217355   4.414   0.424   5.194
 5807TIP3   OH217356   4.782   0.520   4.955
 5807TIP3    H117357   4.877   0.525   4.968
 5807TIP3    H217358   4.769   0.438   4.906
 5808TIP3   OH217359   6.088   0.555   5.233
 5808TIP3    H117360   5.992   0.558   5.232
 5808TIP3    H217361   6.110   0.548   5.325
 5809TIP3   OH217362   5.090   0.929   4.509
 5809TIP3    H117363   5.047   0.900   4.428
 5809TIP3    H217364   5.038   1.005   4.537
 5810TIP3   OH217365   4.828   0.879   5.271
 5810TIP3    H117366   4.765   0.943   5.305
 5810TIP3    H217367   4.870   0.924   5.198
 5811TIP3   OH217368   4.581   0.242   5.304
 5811TIP3    H117369   4.651   0.300   5.336
 5811TIP3    H217370   4.622   0.192   5.234
 5812TIP3   OH217371   4.658   1.065   5.383
 5812TIP3    H117372   4.646   1.156   5.355
 5812TIP3    H217373   4.581   1.047   5.437
 5813TIP3   OH217374   4.046   0.778   4.635
 5813TIP3    H117375   4.013   0.794   4.547
 5813TIP3    H217376   4.068   0.865   4.669
 5814TIP3   OH217377   5.492   1.274   4.871
 5814TIP3    H117378   5.407   1.263   4.915
 5814TIP3    H217379   5.486   1.360   4.829
 5815TIP3   OH217380   5.197   1.297   4.530
 5815TIP3    H117381   5.249   1.218   4.516
 5815TIP3    H217382   5.255   1.369   4.503
 5816TIP3   OH217383   5.333   1.063   4.482
 5816TIP3    H117384   5.257   1.005   4.488
 5816TIP3    H217385   5.382   1.047   4.562
 5817TIP3   OH217386   5.732   1.158   5.227
 5817TIP3    H117387   5.708   1.087   5.167
 5817TIP3    H217388   5.713   1.238   5.177
 5818TIP3   OH217389   5.005   0.581   4.484
 5818TIP3    H117390   4.917   0.617   4.472
 5818TIP3    H217391   5.046   0.588   4.398
 5819TIP3   OH217392   4.961   0.408   4.179
 5819TIP3    H117393   5.029   0.468   4.211
 5819TIP3    H217394   4.995   0.321   4.197
 5820TIP3   OH217395   5.900   0.840   5.075
 5820TIP3    H117396   5.813   0.881   5.077
 5820TIP3    H217397   5.930   0.852   4.984
 5821TIP3   OH217398   5.349   0.664   4.461
 5821TIP3    H117399   5.292   0.686   4.534
 5821TIP3    H217400   5.438   0.666   4.498
 5822TIP3   OH217401   5.612   0.738   5.384
 5822TIP3    H117402   5.587   0.808   5.445
 5822TIP3    H217403   5.530   0.715   5.339
 5823TIP3   OH217404   4.562   0.643   4.840
 5823TIP3    H117405   4.518   0.577   4.787
 5823TIP3    H217406   4.636   0.597   4.879
 5824TIP3   OH217407   4.736   1.055   4.996
 5824TIP3    H117408   4.708   1.042   4.905
 5824TIP3    H217409   4.825   1.022   4.998
 5825TIP3   OH217410   4.707   0.646   5.193
 5825TIP3    H117411   4.738   0.624   5.105
 5825TIP3    H217412   4.749   0.730   5.212
 5826TIP3   OH217413   5.263   1.256   5.013
 5826TIP3    H117414   5.241   1.339   5.054
 5826TIP3    H217415   5.242   1.190   5.080
 5827TIP3   OH217416   4.862   1.153   5.549
 5827TIP3    H117417   4.806   1.215   5.595
 5827TIP3    H217418   4.803   1.103   5.493
 5828TIP3   OH217419   5.184   0.550   4.265
 5828TIP3    H117420   5.241   0.614   4.308
 5828TIP3    H217421   5.220   0.542   4.177
 5829TIP3   OH217422   4.614   0.752   5.645
 5829TIP3    H117423   4.621   0.836   5.690
 5829TIP3    H217424   4.532   0.715   5.678
 5830TIP3   OH217425   4.955   1.166   4.548
 5830TIP3    H117426   5.031   1.224   4.547
 5830TIP3    H217427   4.888   1.214   4.500
 5831TIP3   OH217428   4.665   1.320   5.633
 5831TIP3    H117429   4.635   1.336   5.544
 5831TIP3    H217430   4.586   1.301   5.683
 5832TIP3   OH217431   4.439   0.456   4.665
 5832TIP3    H117432   4.375   0.517   4.629
 5832TIP3    H217433   4.393   0.372   4.668
 5833TIP3   OH217434   5.528   1.117   3.896
 5833TIP3    H117435   5.521   1.211   3.877
 5833TIP3    H217436   5.617   1.094   3.873
 5834TIP3   OH217437   4.250   0.876   5.587
 5834TIP3    H117438   4.175   0.874   5.527
 5834TIP3    H217439   4.284   0.787   5.585
 5835TIP3   OH217440   4.092   1.087   5.244
 5835TIP3    H117441   4.182   1.111   5.266
 5835TIP3    H217442   4.040   1.165   5.267
 5836TIP3   OH217443   5.956   1.533   5.288
 5836TIP3    H117444   5.964   1.439   5.300
 5836TIP3    H217445   5.875   1.556   5.334
 5837TIP3   OH217446   5.057   1.284   5.409
 5837TIP3    H117447   5.058   1.376   5.437
 5837TIP3    H217448   4.985   1.245   5.458
 5838TIP3   OH217449   4.840   1.413   4.365
 5838TIP3    H117450   4.788   1.390   4.288
 5838TIP3    H217451   4.800   1.494   4.398
 5839TIP3   OH217452   4.271   1.262   4.743
 5839TIP3    H117453   4.314   1.254   4.829
 5839TIP3    H217454   4.220   1.182   4.735
 5840TIP3   OH217455   5.040   1.343   3.995
 5840TIP3    H117456   5.090   1.270   3.959
 5840TIP3    H217457   5.073   1.354   4.084
 5841TIP3   OH217458   5.093   1.381   4.266
 5841TIP3    H117459   5.005   1.387   4.304
 5841TIP3    H217460   5.147   1.346   4.336
 5842TIP3   OH217461   5.839   0.648   5.526
 5842TIP3    H117462   5.764   0.697   5.492
 5842TIP3    H217463   5.820   0.556   5.504
 5843TIP3   OH217464   4.439   1.076   5.553
 5843TIP3    H117465   4.478   1.086   5.640
 5843TIP3    H217466   4.372   1.008   5.564
 5844TIP3   OH217467   5.745   0.393   5.496
 5844TIP3    H117468   5.666   0.385   5.550
 5844TIP3    H217469   5.712   0.387   5.406
 5845TIP3   OH217470   5.279   0.485   4.016
 5845TIP3    H117471   5.229   0.501   3.937
 5845TIP3    H217472   5.362   0.529   4.002
 5846TIP3   OH217473   4.773   0.451   5.366
 5846TIP3    H117474   4.799   0.491   5.448
 5846TIP3    H217475   4.741   0.523   5.312
 5847TIP3   OH217476   4.676   0.294   4.840
 5847TIP3    H117477   4.581   0.280   4.840
 5847TIP3    H217478   4.699   0.297   4.747
 5848TIP3   OH217479   5.128   0.382   4.620
 5848TIP3    H117480   5.072   0.449   4.581
 5848TIP3    H217481   5.185   0.353   4.549
 5849TIP3   OH217482   5.294   0.739   5.659
 5849TIP3    H117483   5.254   0.659   5.624
 5849TIP3    H217484   5.361   0.707   5.720
 5850TIP3   OH217485   5.248   0.499   4.831
 5850TIP3    H117486   5.227   0.587   4.800
 5850TIP3    H217487   5.203   0.440   4.771
 5851TIP3   OH217488   4.523   0.405   5.624
 5851TIP3    H117489   4.489   0.491   5.650
 5851TIP3    H217490   4.451   0.344   5.641
 5852TIP3   OH217491   4.288   0.226   4.651
 5852TIP3    H117492   4.257   0.156   4.594
 5852TIP3    H217493   4.221   0.232   4.719
 5853TIP3   OH217494   5.363   0.680   5.263
 5853TIP3    H117495   5.378   0.612   5.197
 5853TIP3    H217496   5.304   0.639   5.326
 5854TIP3   OH217497   4.414   0.217   4.912
 5854TIP3    H117498   4.324   0.247   4.905
 5854TIP3    H217499   4.414   0.131   4.869
 5855TIP3   OH217500   4.735   0.283   4.577
 5855TIP3    H117501   4.818   0.235   4.577
 5855TIP3    H217502   4.685   0.242   4.506
 5856TIP3   OH217503   4.574   0.176   4.384
 5856TIP3    H117504   4.488   0.161   4.347
 5856TIP3    H217505   4.618   0.233   4.321
 5857TIP3   OH217506   5.669   1.866   5.380
 5857TIP3    H117507   5.665   1.886   5.287
 5857TIP3    H217508   5.746   1.913   5.412
 5858TIP3   OH217509   4.614   0.983   5.798
 5858TIP3    H117510   4.693   1.003   5.849
 5858TIP3    H217511   4.542   0.999   5.858
 5859TIP3   OH217512   5.046   0.503   5.030
 5859TIP3    H117513   5.105   0.463   4.966
 5859TIP3    H217514   5.015   0.430   5.083
 5860TIP3   OH217515   5.023   0.266   5.522
 5860TIP3    H117516   4.932   0.241   5.504
 5860TIP3    H217517   5.067   0.257   5.438
 5861TIP3   OH217518   4.762   0.701   4.438
 5861TIP3    H117519   4.686   0.645   4.420
 5861TIP3    H217520   4.741   0.744   4.520
 5862TIP3   OH217521   5.663   0.970   5.041
 5862TIP3    H117522   5.694   1.022   4.968
 5862TIP3    H217523   5.579   0.933   5.011
 5863TIP3   OH217524   5.109   0.188   4.248
 5863TIP3    H117525   5.084   0.103   4.285
 5863TIP3    H217526   5.156   0.231   4.319
 5864TIP3   OH217527   5.166   1.018   5.461
 5864TIP3    H117528   5.228   1.026   5.533
 5864TIP3    H217529   5.125   1.105   5.455
 5865TIP3   OH217530   5.296   0.337   4.402
 5865TIP3    H117531   5.367   0.362   4.460
 5865TIP3    H217532   5.271   0.419   4.359
 5866TIP3   OH217533   4.450   0.725   5.085
 5866TIP3    H117534   4.482   0.699   4.999
 5866TIP3    H217535   4.512   0.687   5.147
 5867TIP3   OH217536   4.925   0.861   4.289
 5867TIP3    H117537   4.882   0.946   4.284
 5867TIP3    H217538   4.863   0.806   4.337
 5868TIP3   OH217539   4.375   0.624   5.721
 5868TIP3    H117540   4.377   0.621   5.816
 5868TIP3    H217541   4.288   0.591   5.698
 5869TIP3   OH217542   5.048   0.799   5.769
 5869TIP3    H117543   4.983   0.734   5.741
 5869TIP3    H217544   5.127   0.776   5.721
 5870TIP3   OH217545   5.325   1.326   5.335
 5870TIP3    H117546   5.231   1.309   5.342
 5870TIP3    H217547   5.349   1.364   5.420
 5871TIP3   OH217548   5.694   0.413   4.193
 5871TIP3    H117549   5.633   0.377   4.128
 5871TIP3    H217550   5.714   0.501   4.160
 5872TIP3   OH217551   5.979   1.257   5.307
 5872TIP3    H117552   5.886   1.235   5.314
 5872TIP3    H217553   6.007   1.218   5.225
 5873TIP3   OH217554   5.461   1.189   4.167
 5873TIP3    H117555   5.427   1.124   4.228
 5873TIP3    H217556   5.471   1.141   4.085
 5874TIP3   OH217557   5.431   0.850   4.940
 5874TIP3    H117558   5.343   0.828   4.970
 5874TIP3    H217559   5.464   0.769   4.902
 5875TIP3   OH217560   4.587   1.059   4.756
 5875TIP3    H117561   4.579   1.135   4.698
 5875TIP3    H217562   4.501   1.051   4.796
 5876TIP3   OH217563   4.125   0.374   4.441
 5876TIP3    H117564   4.185   0.443   4.468
 5876TIP3    H217565   4.051   0.383   4.501
 5877TIP3   OH217566   4.683   0.819   4.665
 5877TIP3    H117567   4.661   0.908   4.693
 5877TIP3    H217568   4.640   0.763   4.729
 5878TIP3   OH217569   4.873   1.378   5.207
 5878TIP3    H117570   4.908   1.454   5.161
 5878TIP3    H217571   4.947   1.344   5.257
 5879TIP3   OH217572   4.507   1.279   4.602
 5879TIP3    H117573   4.419   1.285   4.640
 5879TIP3    H217574   4.542   1.368   4.608
 5880TIP3   OH217575   5.229   1.038   5.190
 5880TIP3    H117576   5.209   1.027   5.282
 5880TIP3    H217577   5.316   1.000   5.180
 5881TIP3   OH217578   5.213   0.923   4.039
 5881TIP3    H117579   5.261   0.890   4.114
 5881TIP3    H217580   5.127   0.883   4.045
 5882TIP3   OH217581   5.476   1.541   5.220
 5882TIP3    H117582   5.404   1.480   5.236
 5882TIP3    H217583   5.445   1.596   5.148
 5883TIP3   OH217584   5.524   1.389   3.850
 5883TIP3    H117585   5.526   1.444   3.772
 5883TIP3    H217586   5.458   1.430   3.906
 5884TIP3   OH217587   5.375   0.817   4.230
 5884TIP3    H117588   5.367   0.783   4.319
 5884TIP3    H217589   5.468   0.841   4.222
 5885TIP3   OH217590   4.298   1.270   5.365
 5885TIP3    H117591   4.349   1.215   5.424
 5885TIP3    H217592   4.307   1.359   5.400
 5886TIP3   OH217593   4.578   0.894   4.067
 5886TIP3    H117594   4.584   0.802   4.040
 5886TIP3    H217595   4.560   0.890   4.161
 5887TIP3   OH217596   4.512   0.905   4.335
 5887TIP3    H117597   4.568   0.879   4.407
 5887TIP3    H217598   4.509   1.001   4.339
 5888TIP3   OH217599   4.246   0.608   4.544
 5888TIP3    H117600   4.180   0.654   4.596
 5888TIP3    H217601   4.263   0.666   4.470
 5889TIP3   OH217602   4.788   1.095   4.277
 5889TIP3    H117603   4.701   1.115   4.311
 5889TIP3    H217604   4.807   1.168   4.217
 5890TIP3   OH217605   4.974   0.160   4.633
 5890TIP3    H117606   5.025   0.240   4.647
 5890TIP3    H217607   4.969   0.119   4.720
 5891TIP3   OH217608   5.175   0.541   5.410
 5891TIP3    H117609   5.113   0.614   5.418
 5891TIP3    H217610   5.180   0.504   5.498
 5892TIP3   OH217611   4.535   1.177   4.350
 5892TIP3    H117612   4.513   1.247   4.289
 5892TIP3    H217613   4.522   1.214   4.437
 5893TIP3   OH217614   5.514   0.598   4.843
 5893TIP3    H117615   5.435   0.558   4.879
 5893TIP3    H217616   5.584   0.567   4.901
 5894TIP3   OH217617   4.260   0.781   4.325
 5894TIP3    H117618   4.330   0.846   4.330
 5894TIP3    H217619   4.291   0.716   4.263
 5895TIP3   OH217620   4.021   0.114   4.394
 5895TIP3    H117621   4.056   0.200   4.416
 5895TIP3    H217622   3.947   0.102   4.454
 5896TIP3   OH217623   5.504   1.540   4.790
 5896TIP3    H117624   5.460   1.590   4.721
 5896TIP3    H217625   5.597   1.557   4.775
 5897TIP3   OH217626   4.092   1.045   4.716
 5897TIP3    H117627   4.048   1.080   4.793
 5897TIP3    H217628   4.048   1.087   4.642
 5898TIP3   OH217629   4.254   1.530   5.797
 5898TIP3    H117630   4.343   1.536   5.831
 5898TIP3    H217631   4.229   1.439   5.810
 5899TIP3   OH217632   4.759   1.477   5.840
 5899TIP3    H117633   4.853   1.460   5.847
 5899TIP3    H217634   4.732   1.428   5.763
 5900TIP3   OH217635   4.727   1.091   3.948
 5900TIP3    H117636   4.679   1.023   3.996
 5900TIP3    H217637   4.800   1.045   3.908
 5901TIP3   OH217638   5.393   1.423   5.582
 5901TIP3    H117639   5.405   1.356   5.650
 5901TIP3    H217640   5.463   1.486   5.598
 5902TIP3   OH217641   5.167   1.134   3.871
 5902TIP3    H117642   5.200   1.068   3.933
 5902TIP3    H217643   5.225   1.126   3.795
 5903TIP3   OH217644   4.402   0.974   5.981
 5903TIP3    H117645   4.427   0.882   5.983
 5903TIP3    H217646   4.314   0.974   5.942
 5904TIP3   OH217647   4.393   0.589   4.184
 5904TIP3    H117648   4.440   0.563   4.263
 5904TIP3    H217649   4.461   0.605   4.119
 5905TIP3   OH217650   5.017   1.074   5.760
 5905TIP3    H117651   4.968   1.092   5.680
 5905TIP3    H217652   5.034   0.980   5.759
 5906TIP3   OH217653   4.963   0.811   4.020
 5906TIP3    H117654   4.938   0.820   4.112
 5906TIP3    H217655   4.937   0.722   3.996
 5907TIP3   OH217656   5.488   1.104   5.355
 5907TIP3    H117657   5.570   1.132   5.314
 5907TIP3    H217658   5.428   1.177   5.343
 5908TIP3   OH217659   4.532   0.720   5.976
 5908TIP3    H117660   4.620   0.705   5.942
 5908TIP3    H217661   4.546   0.738   6.069
 5909TIP3   OH217662   4.555   0.521   4.406
 5909TIP3    H117663   4.533   0.485   4.491
 5909TIP3    H217664   4.605   0.452   4.362
 5910TIP3   OH217665   4.852   0.623   5.591
 5910TIP3    H117666   4.772   0.670   5.612
 5910TIP3    H217667   4.903   0.684   5.537
 5911TIP3   OH217668   4.695   0.359   4.229
 5911TIP3    H117669   4.658   0.366   4.140
 5911TIP3    H217670   4.787   0.382   4.218
 5912TIP3   OH217671   5.367   0.997   5.697
 5912TIP3    H117672   5.455   0.987   5.660
 5912TIP3    H217673   5.329   0.910   5.694
 5913TIP3   OH217674   5.490   0.629   3.904
 5913TIP3    H117675   5.478   0.590   3.817
 5913TIP3    H217676   5.465   0.720   3.893
 5914TIP3   OH217677   4.931   0.407   5.738
 5914TIP3    H117678   4.957   0.343   5.672
 5914TIP3    H217679   4.901   0.483   5.688
 5915TIP3   OH217680   5.022   0.775   5.434
 5915TIP3    H117681   5.079   0.851   5.449
 5915TIP3    H217682   4.955   0.806   5.374
 5916TIP3   OH217683   5.728   0.733   5.829
 5916TIP3    H117684   5.644   0.689   5.819
 5916TIP3    H217685   5.707   0.826   5.824
 5917TIP3   OH217686   5.604   0.967   5.556
 5917TIP3    H117687   5.554   1.016   5.491
 5917TIP3    H217688   5.694   0.968   5.523
 5918TIP3   OH217689   4.825   0.567   5.974
 5918TIP3    H117690   4.749   0.513   5.994
 5918TIP3    H217691   4.883   0.509   5.924
 5919TIP3   OH217692   5.193   0.485   5.680
 5919TIP3    H117693   5.264   0.476   5.743
 5919TIP3    H217694   5.118   0.443   5.721
 5920TIP3   OH217695   4.532   1.388   4.170
 5920TIP3    H117696   4.619   1.367   4.139
 5920TIP3    H217697   4.489   1.431   4.095
 5921TIP3   OH217698   3.986   0.767   4.352
 5921TIP3    H117699   4.079   0.786   4.342
 5921TIP3    H217700   3.974   0.682   4.309
 5922TIP3   OH217701   3.896   1.352   4.806
 5922TIP3    H117702   3.831   1.297   4.763
 5922TIP3    H217703   3.942   1.292   4.866
 5923TIP3   OH217704   4.042   1.186   4.973
 5923TIP3    H117705   4.034   1.118   5.039
 5923TIP3    H217706   4.094   1.254   5.015
 5924TIP3   OH217707   5.774   1.601   4.788
 5924TIP3    H117708   5.788   1.613   4.882
 5924TIP3    H217709   5.805   1.682   4.748
 5925TIP3   OH217710   5.793   1.615   5.065
 5925TIP3    H117711   5.745   1.532   5.067
 5925TIP3    H217712   5.863   1.604   5.130
 5926TIP3   OH217713   5.850   1.321   5.629
 5926TIP3    H117714   5.777   1.329   5.691
 5926TIP3    H217715   5.896   1.405   5.635
 5927TIP3   OH217716   5.647   0.871   4.222
 5927TIP3    H117717   5.705   0.940   4.189
 5927TIP3    H217718   5.692   0.838   4.301
 5928TIP3   OH217719   5.787   0.770   4.433
 5928TIP3    H117720   5.720   0.746   4.497
 5928TIP3    H217721   5.856   0.811   4.484
 5929TIP3   OH217722   5.845   1.111   4.883
 5929TIP3    H117723   5.893   1.044   4.834
 5929TIP3    H217724   5.845   1.188   4.825
 5930TIP3   OH217725   5.651   1.376   5.078
 5930TIP3    H117726   5.582   1.423   5.126
 5930TIP3    H217727   5.605   1.337   5.003
 5931TIP3   OH217728   5.707   0.653   4.069
 5931TIP3    H117729   5.634   0.641   4.008
 5931TIP3    H217730   5.684   0.730   4.120
 5932TIP3   OH217731   5.539   0.306   3.998
 5932TIP3    H117732   5.494   0.324   3.915
 5932TIP3    H217733   5.485   0.238   4.039
 5933TIP3   OH217734   5.595   0.647   4.585
 5933TIP3    H117735   5.625   0.561   4.556
 5933TIP3    H217736   5.575   0.636   4.678
 5934TIP3   OH217737   4.215   0.656   5.357
 5934TIP3    H117738   4.200   0.628   5.267
 5934TIP3    H217739   4.311   0.655   5.367
 5935TIP3   OH217740   5.850   0.983   5.442
 5935TIP3    H117741   5.920   0.921   5.424
 5935TIP3    H217742   5.839   1.031   5.360
 5936TIP3   OH217743   6.055   0.805   5.440
 5936TIP3    H117744   6.001   0.731   5.467
 5936TIP3    H217745   6.125   0.808   5.506
 5937TIP3   OH217746   5.673   0.410   4.460
 5937TIP3    H117747   5.646   0.320   4.474
 5937TIP3    H217748   5.674   0.421   4.365
 5938TIP3   OH217749   5.717   0.514   4.999
 5938TIP3    H117750   5.795   0.539   4.950
 5938TIP3    H217751   5.735   0.542   5.088
 5939TIP3   OH217752   5.814   0.624   5.226
 5939TIP3    H117753   5.744   0.654   5.284
 5939TIP3    H217754   5.846   0.704   5.185
 5940TIP3   OH217755   4.358   0.263   6.038
 5940TIP3    H117756   4.408   0.189   6.003
 5940TIP3    H217757   4.301   0.224   6.104
 5941TIP3   OH217758   4.163   0.333   5.451
 5941TIP3    H117759   4.222   0.357   5.380
 5941TIP3    H217760   4.169   0.406   5.513
 5942TIP3   OH217761   5.347   1.495   4.428
 5942TIP3    H117762   5.403   1.491   4.351
 5942TIP3    H217763   5.379   1.571   4.477
 5943TIP3   OH217764   4.450   1.279   5.800
 5943TIP3    H117765   4.356   1.266   5.811
 5943TIP3    H217766   4.471   1.349   5.863
 5944TIP3   OH217767   4.642   1.340   5.352
 5944TIP3    H117768   4.589   1.414   5.321
 5944TIP3    H217769   4.727   1.352   5.309
 5945TIP3   OH217770   5.070   1.548   5.477
 5945TIP3    H117771   5.097   1.550   5.569
 5945TIP3    H217772   5.128   1.610   5.433
 5946TIP3   OH217773   5.246   1.728   5.366
 5946TIP3    H117774   5.317   1.681   5.321
 5946TIP3    H217775   5.291   1.790   5.423
 5947TIP3   OH217776   4.299   1.556   5.409
 5947TIP3    H117777   4.211   1.584   5.382
 5947TIP3    H217778   4.315   1.604   5.491
 5948TIP3   OH217779   4.526   1.568   5.251
 5948TIP3    H117780   4.445   1.571   5.300
 5948TIP3    H217781   4.502   1.595   5.162
 5949TIP3   OH217782   4.950   1.590   5.046
 5949TIP3    H117783   4.874   1.603   4.989
 5949TIP3    H217784   4.959   1.674   5.091
 5950TIP3   OH217785   5.213   1.519   5.082
 5950TIP3    H117786   5.121   1.542   5.070
 5950TIP3    H217787   5.261   1.592   5.043
 5951TIP3   OH217788   5.417   1.701   4.997
 5951TIP3    H117789   5.412   1.788   4.958
 5951TIP3    H217790   5.444   1.644   4.925
 5952TIP3   OH217791   4.216   1.364   5.112
 5952TIP3    H117792   4.235   1.339   5.203
 5952TIP3    H217793   4.290   1.328   5.062
 5953TIP3   OH217794   4.420   1.246   4.975
 5953TIP3    H117795   4.429   1.163   5.021
 5953TIP3    H217796   4.506   1.288   4.982
 5954TIP3   OH217797   4.688   1.331   5.003
 5954TIP3    H117798   4.705   1.238   4.990
 5954TIP3    H217799   4.740   1.356   5.080
 5955TIP3   OH217800   3.976   1.161   4.495
 5955TIP3    H117801   3.894   1.130   4.456
 5955TIP3    H217802   3.982   1.253   4.469
 5956TIP3   OH217803   4.785   1.312   4.096
 5956TIP3    H117804   4.868   1.341   4.058
 5956TIP3    H217805   4.755   1.242   4.038
 5957TIP3   OH217806   5.497   1.458   4.196
 5957TIP3    H117807   5.489   1.362   4.190
 5957TIP3    H217808   5.448   1.491   4.121
 5958TIP3   OH217809   4.124   1.187   4.165
 5958TIP3    H117810   4.107   1.171   4.258
 5958TIP3    H217811   4.197   1.129   4.144
 5959TIP3   OH217812   5.702   1.593   5.380
 5959TIP3    H117813   5.625   1.563   5.332
 5959TIP3    H217814   5.689   1.687   5.391
 5960TIP3   OH217815   6.961   0.970   4.155
 5960TIP3    H117816   6.934   1.062   4.155
 5960TIP3    H217817   6.893   0.926   4.103
 5961TIP3   OH217818   6.971   0.989   4.541
 5961TIP3    H117819   7.017   0.979   4.624
 5961TIP3    H217820   6.929   0.904   4.526
 5962TIP3   OH217821   6.266   0.880   4.909
 5962TIP3    H117822   6.272   0.810   4.975
 5962TIP3    H217823   6.312   0.953   4.949
 5963TIP3   OH217824   7.241   1.288   4.214
 5963TIP3    H117825   7.226   1.228   4.288
 5963TIP3    H217826   7.267   1.371   4.255
 5964TIP3   OH217827   6.336   1.263   4.593
 5964TIP3    H117828   6.299   1.176   4.586
 5964TIP3    H217829   6.352   1.274   4.687
 5965TIP3   OH217830   5.928   0.533   4.446
 5965TIP3    H117831   5.894   0.619   4.422
 5965TIP3    H217832   5.852   0.475   4.442
 5966TIP3   OH217833   6.019   0.852   4.556
 5966TIP3    H117834   6.081   0.782   4.579
 5966TIP3    H217835   6.074   0.925   4.531
 5967TIP3   OH217836   6.898   1.711   4.240
 5967TIP3    H117837   6.914   1.637   4.181
 5967TIP3    H217838   6.915   1.677   4.327
 5968TIP3   OH217839   6.789   1.209   4.555
 5968TIP3    H117840   6.831   1.127   4.529
 5968TIP3    H217841   6.861   1.264   4.585
 5969TIP3   OH217842   7.139   0.718   4.598
 5969TIP3    H117843   7.178   0.631   4.588
 5969TIP3    H217844   7.101   0.737   4.512
 5970TIP3   OH217845   6.599   0.271   4.548
 5970TIP3    H117846   6.528   0.320   4.588
 5970TIP3    H217847   6.570   0.180   4.550
 5971TIP3   OH217848   7.225   0.466   4.293
 5971TIP3    H117849   7.234   0.462   4.388
 5971TIP3    H217850   7.285   0.398   4.260
 5972TIP3   OH217851   6.208   0.686   4.652
 5972TIP3    H117852   6.247   0.678   4.739
 5972TIP3    H217853   6.230   0.603   4.609
 5973TIP3   OH217854   6.592   0.823   4.450
 5973TIP3    H117855   6.684   0.799   4.465
 5973TIP3    H217856   6.550   0.741   4.424
 5974TIP3   OH217857   7.839   0.769   4.827
 5974TIP3    H117858   7.758   0.793   4.782
 5974TIP3    H217859   7.885   0.712   4.765
 5975TIP3   OH217860   6.807   1.182   4.040
 5975TIP3    H117861   6.785   1.158   3.950
 5975TIP3    H217862   6.863   1.259   4.032
 5976TIP3   OH217863   6.622   1.138   4.764
 5976TIP3    H117864   6.562   1.207   4.792
 5976TIP3    H217865   6.672   1.179   4.692
 5977TIP3   OH217866   6.327   0.515   4.849
 5977TIP3    H117867   6.401   0.573   4.868
 5977TIP3    H217868   6.351   0.472   4.767
 5978TIP3   OH217869   6.440   1.328   4.854
 5978TIP3    H117870   6.440   1.423   4.841
 5978TIP3    H217871   6.371   1.312   4.918
 5979TIP3   OH217872   5.837   1.044   4.116
 5979TIP3    H117873   5.802   1.065   4.029
 5979TIP3    H217874   5.860   1.129   4.154
 5980TIP3   OH217875   7.278   1.529   4.356
 5980TIP3    H117876   7.191   1.522   4.395
 5980TIP3    H217877   7.279   1.615   4.315
 5981TIP3   OH217878   6.947   1.528   4.039
 5981TIP3    H117879   6.997   1.448   4.023
 5981TIP3    H217880   7.004   1.598   4.005
 5982TIP3   OH217881   7.089   1.304   3.986
 5982TIP3    H117882   7.129   1.257   3.914
 5982TIP3    H217883   7.151   1.295   4.058
 5983TIP3   OH217884   7.512   1.423   4.711
 5983TIP3    H117885   7.497   1.348   4.653
 5983TIP3    H217886   7.497   1.499   4.656
 5984TIP3   OH217887   6.800   0.847   3.965
 5984TIP3    H117888   6.711   0.883   3.964
 5984TIP3    H217889   6.825   0.841   3.873
 5985TIP3   OH217890   6.787   0.612   3.685
 5985TIP3    H117891   6.861   0.663   3.719
 5985TIP3    H217892   6.822   0.523   3.679
 5986TIP3   OH217893   7.682   1.077   4.549
 5986TIP3    H117894   7.601   1.128   4.553
 5986TIP3    H217895   7.724   1.104   4.467
 5987TIP3   OH217896   7.138   0.927   3.943
 5987TIP3    H117897   7.085   0.946   4.021
 5987TIP3    H217898   7.226   0.915   3.977
 5988TIP3   OH217899   7.389   0.964   4.852
 5988TIP3    H117900   7.382   1.041   4.908
 5988TIP3    H217901   7.299   0.948   4.822
 5989TIP3   OH217902   6.394   0.946   4.298
 5989TIP3    H117903   6.349   0.876   4.250
 5989TIP3    H217904   6.467   0.901   4.342
 5990TIP3   OH217905   6.558   1.326   4.432
 5990TIP3    H117906   6.486   1.293   4.485
 5990TIP3    H217907   6.636   1.287   4.471
 5991TIP3   OH217908   6.507   0.894   4.703
 5991TIP3    H117909   6.540   0.872   4.616
 5991TIP3    H217910   6.546   0.980   4.723
 5992TIP3   OH217911   7.038   1.516   4.487
 5992TIP3    H117912   7.028   1.597   4.536
 5992TIP3    H217913   7.030   1.447   4.553
 5993TIP3   OH217914   6.655   1.409   5.036
 5993TIP3    H117915   6.597   1.468   5.085
 5993TIP3    H217916   6.596   1.358   4.981
 5994TIP3   OH217917   6.994   0.789   3.753
 5994TIP3    H117918   7.043   0.842   3.817
 5994TIP3    H217919   7.011   0.831   3.669
 5995TIP3   OH217920   6.391   1.025   5.119
 5995TIP3    H117921   6.405   1.110   5.161
 5995TIP3    H217922   6.323   0.983   5.172
 5996TIP3   OH217923   6.661   1.468   4.060
 5996TIP3    H117924   6.755   1.479   4.076
 5996TIP3    H217925   6.642   1.529   3.989
 5997TIP3   OH217926   6.456   1.576   5.126
 5997TIP3    H117927   6.428   1.596   5.037
 5997TIP3    H217928   6.375   1.562   5.175
 5998TIP3   OH217929   6.247   0.754   4.142
 5998TIP3    H117930   6.174   0.803   4.104
 5998TIP3    H217931   6.208   0.670   4.169
 5999TIP3   OH217932   7.321   1.360   3.369
 5999TIP3    H117933   7.318   1.455   3.354
 5999TIP3    H217934   7.411   1.335   3.346
 6000TIP3   OH217935   6.050   1.133   5.074
 6000TIP3    H117936   5.976   1.122   5.014
 6000TIP3    H217937   6.079   1.043   5.093
 6001TIP3   OH217938   5.888   1.350   4.739
 6001TIP3    H117939   5.972   1.383   4.772
 6001TIP3    H217940   5.827   1.423   4.752
 6002TIP3   OH217941   7.766   1.793   4.793
 6002TIP3    H117942   7.767   1.698   4.794
 6002TIP3    H217943   7.678   1.817   4.822
 6003TIP3   OH217944   6.846   1.558   4.903
 6003TIP3    H117945   6.841   1.649   4.932
 6003TIP3    H217946   6.778   1.514   4.953
 6004TIP3   OH217947   6.622   1.647   3.852
 6004TIP3    H117948   6.602   1.641   3.759
 6004TIP3    H217949   6.593   1.735   3.877
 6005TIP3   OH217950   6.097   1.498   4.221
 6005TIP3    H117951   6.131   1.493   4.310
 6005TIP3    H217952   6.037   1.424   4.214
 6006TIP3   OH217953   6.841   1.591   3.478
 6006TIP3    H117954   6.892   1.517   3.444
 6006TIP3    H217955   6.874   1.604   3.567
 6007TIP3   OH217956   6.889   1.642   3.747
 6007TIP3    H117957   6.810   1.628   3.800
 6007TIP3    H217958   6.960   1.646   3.810
 6008TIP3   OH217959   7.642   0.942   4.995
 6008TIP3    H117960   7.558   0.980   4.969
 6008TIP3    H217961   7.638   0.851   4.965
 6009TIP3   OH217962   6.240   1.330   5.039
 6009TIP3    H117963   6.288   1.331   5.122
 6009TIP3    H217964   6.172   1.263   5.051
 6010TIP3   OH217965   7.552   0.678   4.962
 6010TIP3    H117966   7.580   0.591   4.936
 6010TIP3    H217967   7.474   0.695   4.908
 6011TIP3   OH217968   6.513   0.710   4.906
 6011TIP3    H117969   6.462   0.741   4.981
 6011TIP3    H217970   6.497   0.776   4.838
 6012TIP3   OH217971   6.451   0.611   4.365
 6012TIP3    H117972   6.359   0.583   4.365
 6012TIP3    H217973   6.484   0.585   4.279
 6013TIP3   OH217974   6.931   0.658   4.113
 6013TIP3    H117975   6.884   0.724   4.063
 6013TIP3    H217976   7.023   0.670   4.087
 6014TIP3   OH217977   7.158   0.992   5.159
 6014TIP3    H117978   7.069   0.992   5.194
 6014TIP3    H217979   7.184   1.084   5.160
 6015TIP3   OH217980   7.056   0.766   4.336
 6015TIP3    H117981   7.027   0.853   4.310
 6015TIP3    H217982   7.006   0.707   4.279
 6016TIP3   OH217983   6.316   0.690   5.111
 6016TIP3    H117984   6.260   0.751   5.158
 6016TIP3    H217985   6.270   0.607   5.116
 6017TIP3   OH217986   6.060   0.403   4.180
 6017TIP3    H117987   6.052   0.369   4.091
 6017TIP3    H217988   6.021   0.335   4.235
 6018TIP3   OH217989   7.106   0.919   4.780
 6018TIP3    H117990   7.126   0.844   4.724
 6018TIP3    H217991   7.077   0.879   4.863
 6019TIP3   OH217992   6.199   0.501   4.388
 6019TIP3    H117993   6.110   0.528   4.410
 6019TIP3    H217994   6.189   0.448   4.309
 6020TIP3   OH217995   6.521   0.540   4.111
 6020TIP3    H117996   6.605   0.499   4.093
 6020TIP3    H217997   6.467   0.521   4.035
 6021TIP3   OH217998   6.360   0.476   3.897
 6021TIP3    H117999   6.284   0.448   3.846
 6021TIP3    H218000   6.419   0.515   3.832
 6022TIP3   OH218001   7.459   2.122   4.872
 6022TIP3    H118002   7.452   2.139   4.778
 6022TIP3    H218003   7.538   2.169   4.899
 6023TIP3   OH218004   6.409   1.261   5.266
 6023TIP3    H118005   6.490   1.273   5.316
 6023TIP3    H218006   6.340   1.261   5.333
 6024TIP3   OH218007   6.839   0.739   4.534
 6024TIP3    H118008   6.874   0.654   4.509
 6024TIP3    H218009   6.819   0.730   4.627
 6025TIP3   OH218010   6.767   0.731   4.799
 6025TIP3    H118011   6.683   0.714   4.842
 6025TIP3    H218012   6.798   0.812   4.838
 6026TIP3   OH218013   6.552   0.969   3.945
 6026TIP3    H118014   6.480   0.912   3.918
 6026TIP3    H218015   6.515   1.023   4.014
 6027TIP3   OH218016   7.452   1.229   4.526
 6027TIP3    H118017   7.491   1.273   4.451
 6027TIP3    H218018   7.368   1.195   4.494
 6028TIP3   OH218019   6.964   0.366   3.723
 6028TIP3    H118020   6.927   0.304   3.786
 6028TIP3    H218021   7.022   0.421   3.775
 6029TIP3   OH218022   6.972   1.288   4.940
 6029TIP3    H118023   7.049   1.297   4.995
 6029TIP3    H218024   6.930   1.374   4.943
 6030TIP3   OH218025   7.117   0.558   3.843
 6030TIP3    H118026   7.146   0.575   3.932
 6030TIP3    H218027   7.071   0.638   3.817
 6031TIP3   OH218028   6.270   0.996   4.558
 6031TIP3    H118029   6.308   0.975   4.473
 6031TIP3    H218030   6.315   0.938   4.619
 6032TIP3   OH218031   6.701   1.124   3.776
 6032TIP3    H118032   6.653   1.206   3.770
 6032TIP3    H218033   6.644   1.066   3.826
 6033TIP3   OH218034   6.142   0.885   5.193
 6033TIP3    H118035   6.136   0.872   5.288
 6033TIP3    H218036   6.059   0.854   5.159
 6034TIP3   OH218037   6.877   1.037   5.201
 6034TIP3    H118038   6.796   0.989   5.216
 6034TIP3    H218039   6.890   1.032   5.106
 6035TIP3   OH218040   7.116   1.577   4.824
 6035TIP3    H118041   7.021   1.570   4.832
 6035TIP3    H218042   7.143   1.623   4.904
 6036TIP3   OH218043   7.467   0.682   3.692
 6036TIP3    H118044   7.392   0.636   3.655
 6036TIP3    H218045   7.471   0.764   3.644
 6037TIP3   OH218046   7.762   1.511   4.787
 6037TIP3    H118047   7.668   1.494   4.784
 6037TIP3    H218048   7.794   1.484   4.701
 6038TIP3   OH218049   7.234   1.434   3.628
 6038TIP3    H118050   7.213   1.357   3.681
 6038TIP3    H218051   7.261   1.399   3.543
 6039TIP3   OH218052   7.211   1.114   4.431
 6039TIP3    H118053   7.125   1.087   4.464
 6039TIP3    H218054   7.248   1.034   4.393
 6040TIP3   OH218055   5.953   0.624   3.956
 6040TIP3    H118056   5.998   0.708   3.963
 6040TIP3    H218057   5.870   0.637   4.002
 6041TIP3   OH218058   6.502   1.180   4.173
 6041TIP3    H118059   6.587   1.149   4.204
 6041TIP3    H218060   6.439   1.121   4.214
 6042TIP3   OH218061   6.671   1.630   4.688
 6042TIP3    H118062   6.705   1.707   4.641
 6042TIP3    H218063   6.744   1.602   4.743
 6043TIP3   OH218064   6.361   1.488   4.123
 6043TIP3    H118065   6.267   1.485   4.141
 6043TIP3    H218066   6.379   1.581   4.109
 6044TIP3   OH218067   7.029   1.298   4.668
 6044TIP3    H118068   7.011   1.291   4.762
 6044TIP3    H218069   7.119   1.268   4.659
 6045TIP3   OH218070   7.033   1.157   3.526
 6045TIP3    H118071   7.064   1.157   3.617
 6045TIP3    H218072   6.942   1.127   3.532
 6046TIP3   OH218073   7.274   1.796   4.705
 6046TIP3    H118074   7.199   1.737   4.715
 6046TIP3    H218075   7.249   1.854   4.633
 6047TIP3   OH218076   7.340   1.643   3.355
 6047TIP3    H118077   7.378   1.715   3.304
 6047TIP3    H218078   7.262   1.681   3.396
 6048TIP3   OH218079   7.171   1.139   3.768
 6048TIP3    H118080   7.154   1.066   3.828
 6048TIP3    H218081   7.265   1.132   3.748
 6049TIP3   OH218082   6.097   1.513   4.854
 6049TIP3    H118083   6.146   1.459   4.916
 6049TIP3    H218084   6.103   1.602   4.890
 6050TIP3   OH218085   6.401   1.135   3.549
 6050TIP3    H118086   6.404   1.044   3.518
 6050TIP3    H218087   6.328   1.137   3.611
 6051TIP3   OH218088   6.043   0.887   4.015
 6051TIP3    H118089   5.974   0.927   4.068
 6051TIP3    H218090   6.058   0.949   3.944
 6052TIP3   OH218091   6.546   1.349   3.760
 6052TIP3    H118092   6.514   1.433   3.792
 6052TIP3    H218093   6.538   1.355   3.665
 6053TIP3   OH218094   6.781   0.439   4.103
 6053TIP3    H118095   6.835   0.518   4.104
 6053TIP3    H218096   6.755   0.426   4.194
 6054TIP3   OH218097   7.000   0.772   4.993
 6054TIP3    H118098   6.925   0.760   5.051
 6054TIP3    H218099   6.996   0.698   4.933
 6055TIP3   OH218100   7.304   0.877   4.324
 6055TIP3    H118101   7.230   0.820   4.341
 6055TIP3    H218102   7.375   0.843   4.379
 6056TIP3   OH218103   6.050   1.060   3.788
 6056TIP3    H118104   6.070   1.140   3.740
 6056TIP3    H218105   6.096   0.991   3.741
 6057TIP3   OH218106   5.834   0.394   3.862
 6057TIP3    H118107   5.882   0.466   3.903
 6057TIP3    H218108   5.824   0.329   3.932
 6058TIP3   OH218109   7.302   1.792   4.272
 6058TIP3    H118110   7.260   1.838   4.199
 6058TIP3    H218111   7.395   1.809   4.260
 6059TIP3   OH218112   5.891   1.305   4.204
 6059TIP3    H118113   5.852   1.343   4.283
 6059TIP3    H218114   5.845   1.347   4.132
 6060TIP3   OH218115   6.091   1.829   5.276
 6060TIP3    H118116   6.173   1.831   5.325
 6060TIP3    H218117   6.067   1.736   5.272
 6061TIP3   OH218118   6.558   1.744   5.322
 6061TIP3    H118119   6.651   1.723   5.331
 6061TIP3    H218120   6.527   1.687   5.251
 6062TIP3   OH218121   6.538   1.350   3.464
 6062TIP3    H118122   6.489   1.272   3.490
 6062TIP3    H218123   6.610   1.315   3.411
 6063TIP3   OH218124   7.177   1.692   5.064
 6063TIP3    H118125   7.183   1.624   5.131
 6063TIP3    H218126   7.253   1.748   5.079
 6064TIP3   OH218127   6.971   1.376   3.362
 6064TIP3    H118128   7.018   1.312   3.416
 6064TIP3    H218129   7.022   1.381   3.281
 6065TIP3   OH218130   6.210   1.239   5.461
 6065TIP3    H118131   6.237   1.147   5.461
 6065TIP3    H218132   6.123   1.238   5.423
 6066TIP3   OH218133   6.195   0.867   3.664
 6066TIP3    H118134   6.241   0.834   3.742
 6066TIP3    H218135   6.262   0.868   3.596
 6067TIP3   OH218136   6.820   1.320   5.240
 6067TIP3    H118137   6.771   1.341   5.161
 6067TIP3    H218138   6.856   1.232   5.224
 6068TIP3   OH218139   6.775   1.058   3.516
 6068TIP3    H118140   6.739   1.077   3.603
 6068TIP3    H218141   6.750   0.967   3.499
 6069TIP3   OH218142   7.283   1.356   4.852
 6069TIP3    H118143   7.365   1.382   4.810
 6069TIP3    H218144   7.224   1.431   4.839
 6070TIP3   OH218145   6.340   0.987   5.411
 6070TIP3    H118146   6.435   0.980   5.415
 6070TIP3    H218147   6.308   0.933   5.483
 6071TIP3   OH218148   6.356   0.789   3.879
 6071TIP3    H118149   6.328   0.754   3.963
 6071TIP3    H218150   6.407   0.718   3.839
 6072TIP3   OH218151   6.643   0.907   5.109
 6072TIP3    H118152   6.557   0.951   5.115
 6072TIP3    H218153   6.682   0.943   5.030
 6073TIP3   OH218154   6.511   0.615   3.722
 6073TIP3    H118155   6.478   0.618   3.632
 6073TIP3    H218156   6.607   0.611   3.712
 6074TIP3   OH218157   7.208   1.250   5.246
 6074TIP3    H118158   7.303   1.261   5.246
 6074TIP3    H218159   7.190   1.201   5.327
 6075TIP3   OH218160   6.780   0.672   5.135
 6075TIP3    H118161   6.719   0.601   5.116
 6075TIP3    H218162   6.724   0.750   5.141
 6076TIP3   OH218163   6.810   0.998   4.903
 6076TIP3    H118164   6.895   1.034   4.878
 6076TIP3    H218165   6.747   1.051   4.855
 6077TIP3   OH218166   7.429   0.901   5.275
 6077TIP3    H118167   7.427   0.908   5.371
 6077TIP3    H218168   7.520   0.915   5.252
 6078TIP3   OH218169   7.431   1.185   5.009
 6078TIP3    H118170   7.371   1.247   4.967
 6078TIP3    H218171   7.518   1.210   4.977
 6079TIP3   OH218172   6.633   0.844   5.433
 6079TIP3    H118173   6.597   0.834   5.521
 6079TIP3    H218174   6.712   0.790   5.433
 6080TIP3   OH218175   7.004   0.535   5.191
 6080TIP3    H118176   7.042   0.593   5.257
 6080TIP3    H218177   6.923   0.578   5.165
 6081TIP3   OH218178   6.307   1.585   3.611
 6081TIP3    H118179   6.402   1.600   3.613
 6081TIP3    H218180   6.274   1.649   3.548
 6082TIP3   OH218181   5.782   1.033   3.831
 6082TIP3    H118182   5.876   1.048   3.824
 6082TIP3    H218183   5.769   0.945   3.796
 6083TIP3   OH218184   5.705   1.608   4.288
 6083TIP3    H118185   5.638   1.556   4.244
 6083TIP3    H218186   5.745   1.547   4.351
 6084TIP3   OH218187   5.844   1.440   4.458
 6084TIP3    H118188   5.833   1.374   4.527
 6084TIP3    H218189   5.897   1.508   4.500
 6085TIP3   OH218190   7.564   1.863   4.240
 6085TIP3    H118191   7.570   1.946   4.286
 6085TIP3    H218192   7.638   1.863   4.180
 6086TIP3   OH218193   7.567   1.896   4.561
 6086TIP3    H118194   7.537   1.806   4.548
 6086TIP3    H218195   7.662   1.891   4.559
 6087TIP3   OH218196   7.628   1.586   5.120
 6087TIP3    H118197   7.561   1.594   5.188
 6087TIP3    H218198   7.677   1.667   5.126
 6088TIP3   OH218199   7.439   1.112   3.721
 6088TIP3    H118200   7.496   1.174   3.678
 6088TIP3    H218201   7.488   1.083   3.798
 6089TIP3   OH218202   7.580   1.024   3.934
 6089TIP3    H118203   7.511   0.991   3.991
 6089TIP3    H218204   7.652   1.045   3.993
 6090TIP3   OH218205   7.641   1.339   4.356
 6090TIP3    H118206   7.694   1.275   4.308
 6090TIP3    H218207   7.650   1.420   4.306
 6091TIP3   OH218208   7.449   1.637   4.554
 6091TIP3    H118209   7.384   1.686   4.605
 6091TIP3    H218210   7.399   1.600   4.481
 6092TIP3   OH218211   7.436   0.912   3.535
 6092TIP3    H118212   7.373   0.944   3.470
 6092TIP3    H218213   7.436   0.980   3.603
 6093TIP3   OH218214   7.382   0.888   4.066
 6093TIP3    H118215   7.434   0.808   4.054
 6093TIP3    H218216   7.367   0.893   4.160
 6094TIP3   OH218217   6.007   0.891   4.827
 6094TIP3    H118218   5.998   0.870   4.734
 6094TIP3    H218219   6.101   0.893   4.842
 6095TIP3   OH218220   7.684   1.247   4.920
 6095TIP3    H118221   7.757   1.186   4.923
 6095TIP3    H218222   7.708   1.309   4.851
 6096TIP3   OH218223   7.883   1.068   4.975
 6096TIP3    H118224   7.810   1.006   4.975
 6096TIP3    H218225   7.958   1.017   5.006
 6097TIP3   OH218226   7.477   0.647   3.972
 6097TIP3    H118227   7.460   0.553   3.973
 6097TIP3    H218228   7.488   0.669   3.880
 6098TIP3   OH218229   7.517   0.795   4.460
 6098TIP3    H118230   7.603   0.808   4.422
 6098TIP3    H218231   7.531   0.800   4.555
 6099TIP3   OH218232   7.607   0.865   4.708
 6099TIP3    H118233   7.531   0.895   4.757
 6099TIP3    H218234   7.637   0.943   4.661
 6100TIP3   OH218235   6.151   0.525   5.512
 6100TIP3    H118236   6.195   0.444   5.484
 6100TIP3    H218237   6.102   0.501   5.590
 6101TIP3   OH218238   5.969   0.575   4.896
 6101TIP3    H118239   6.024   0.548   4.823
 6101TIP3    H218240   6.016   0.648   4.936
 6102TIP3   OH218241   7.100   1.724   3.916
 6102TIP3    H118242   7.164   1.719   3.845
 6102TIP3    H218243   7.133   1.792   3.974
 6103TIP3   OH218244   6.233   1.544   5.289
 6103TIP3    H118245   6.138   1.533   5.282
 6103TIP3    H218246   6.252   1.537   5.382
 6104TIP3   OH218247   6.444   1.601   4.841
 6104TIP3    H118248   6.392   1.676   4.812
 6104TIP3    H218249   6.527   1.611   4.796
 6105TIP3   OH218250   6.842   1.827   4.976
 6105TIP3    H118251   6.877   1.823   5.065
 6105TIP3    H218252   6.905   1.880   4.927
 6106TIP3   OH218253   7.035   1.983   4.853
 6106TIP3    H118254   7.103   1.932   4.808
 6106TIP3    H218255   7.084   2.043   4.910
 6107TIP3   OH218256   6.096   1.832   4.888
 6107TIP3    H118257   6.005   1.848   4.864
 6107TIP3    H218258   6.116   1.899   4.954
 6108TIP3   OH218259   6.329   1.829   4.740
 6108TIP3    H118260   6.246   1.833   4.787
 6108TIP3    H218261   6.307   1.856   4.651
 6109TIP3   OH218262   6.744   1.847   4.532
 6109TIP3    H118263   6.675   1.862   4.468
 6109TIP3    H218264   6.757   1.932   4.574
 6110TIP3   OH218265   7.007   1.773   4.575
 6110TIP3    H118266   6.917   1.802   4.560
 6110TIP3    H218267   7.061   1.842   4.536
 6111TIP3   OH218268   7.203   1.944   4.480
 6111TIP3    H118269   7.209   2.034   4.449
 6111TIP3    H218270   7.240   1.891   4.409
 6112TIP3   OH218271   6.023   1.613   4.593
 6112TIP3    H118272   6.035   1.589   4.685
 6112TIP3    H218273   6.098   1.574   4.548
 6113TIP3   OH218274   6.232   1.490   4.467
 6113TIP3    H118275   6.256   1.407   4.509
 6113TIP3    H218276   6.313   1.541   4.465
 6114TIP3   OH218277   6.495   1.592   4.474
 6114TIP3    H118278   6.523   1.505   4.446
 6114TIP3    H218279   6.545   1.609   4.553
 6115TIP3   OH218280   5.771   1.416   3.983
 6115TIP3    H118281   5.685   1.388   3.950
 6115TIP3    H218282   5.779   1.507   3.955
 6116TIP3   OH218283   6.583   1.595   3.581
 6116TIP3    H118284   6.668   1.620   3.546
 6116TIP3    H218285   6.559   1.517   3.532
 6117TIP3   OH218286   7.266   1.700   3.693
 6117TIP3    H118287   7.262   1.607   3.674
 6117TIP3    H218288   7.233   1.743   3.614
 6118TIP3   OH218289   5.882   1.417   3.639
 6118TIP3    H118290   5.864   1.448   3.728
 6118TIP3    H218291   5.953   1.355   3.649
 6119TIP3   OH218292   7.500   1.848   4.873
 6119TIP3    H118293   7.430   1.818   4.816
 6119TIP3    H218294   7.488   1.942   4.879
 6120TIP3   OH218295   8.056   1.531   4.121
 6120TIP3    H118296   8.064   1.444   4.082
 6120TIP3    H218297   8.139   1.544   4.167
 6121TIP3   OH218298   7.754   0.796   3.914
 6121TIP3    H118299   7.680   0.846   3.879
 6121TIP3    H218300   7.793   0.753   3.838
 6122TIP3   OH218301   7.849   1.008   4.057
 6122TIP3    H118302   7.821   0.923   4.023
 6122TIP3    H218303   7.916   1.038   3.995
 6123TIP3   OH218304   7.616   1.272   3.591
 6123TIP3    H118305   7.589   1.301   3.504
 6123TIP3    H218306   7.635   1.353   3.639
 6124TIP3   OH218307   8.284   1.873   4.672
 6124TIP3    H118308   8.281   1.832   4.585
 6124TIP3    H218309   8.198   1.855   4.710
 6125TIP3   OH218310   7.840   1.398   4.550
 6125TIP3    H118311   7.768   1.370   4.494
 6125TIP3    H218312   7.869   1.318   4.595
 6126TIP3   OH218313   7.703   1.574   4.220
 6126TIP3    H118314   7.796   1.593   4.218
 6126TIP3    H218315   7.663   1.652   4.257
 6127TIP3   OH218316   7.833   1.800   3.751
 6127TIP3    H118317   7.918   1.799   3.795
 6127TIP3    H218318   7.775   1.751   3.810
 6128TIP3   OH218319   8.017   1.611   4.531
 6128TIP3    H118320   8.092   1.578   4.580
 6128TIP3    H218321   7.956   1.538   4.529
 6129TIP3   OH218322   7.845   0.657   3.695
 6129TIP3    H118323   7.838   0.622   3.607
 6129TIP3    H218324   7.839   0.580   3.752
 6130TIP3   OH218325   8.198   1.502   4.734
 6130TIP3    H118326   8.152   1.566   4.788
 6130TIP3    H218327   8.184   1.418   4.778
 6131TIP3   OH218328   7.925   1.196   4.713
 6131TIP3    H118329   7.989   1.205   4.784
 6131TIP3    H218330   7.888   1.109   4.724
 6132TIP3   OH218331   7.679   0.890   3.403
 6132TIP3    H118332   7.734   0.964   3.429
 6132TIP3    H218333   7.600   0.899   3.456
 6133TIP3   OH218334   7.883   1.787   4.357
 6133TIP3    H118335   7.937   1.733   4.414
 6133TIP3    H218336   7.896   1.877   4.389
 6134TIP3   OH218337   7.813   1.113   3.480
 6134TIP3    H118338   7.759   1.163   3.540
 6134TIP3    H218339   7.848   1.178   3.419
 6135TIP3   OH218340   7.850   1.320   3.288
 6135TIP3    H118341   7.900   1.391   3.330
 6135TIP3    H218342   7.880   1.321   3.197
 6136TIP3   OH218343   7.804   0.651   3.375
 6136TIP3    H118344   7.780   0.743   3.391
 6136TIP3    H218345   7.729   0.601   3.409
 6137TIP3   OH218346   7.661   1.514   3.701
 6137TIP3    H118347   7.662   1.573   3.776
 6137TIP3    H218348   7.653   1.571   3.625
 6138TIP3   OH218349   7.872   2.059   4.777
 6138TIP3    H118350   7.955   2.057   4.826
 6138TIP3    H218351   7.842   1.968   4.778
 6139TIP3   OH218352   7.983   1.508   4.954
 6139TIP3    H118353   8.017   1.419   4.941
 6139TIP3    H218354   7.899   1.507   4.907
 6140TIP3   OH218355   8.146   1.276   4.900
 6140TIP3    H118356   8.204   1.203   4.876
 6140TIP3    H218357   8.155   1.283   4.995
 6141TIP3   OH218358   7.577   1.276   3.303
 6141TIP3    H118359   7.672   1.291   3.305
 6141TIP3    H218360   7.568   1.188   3.265
 6142TIP3   OH218361   7.482   1.851   3.780
 6142TIP3    H118362   7.414   1.793   3.745
 6142TIP3    H218363   7.536   1.794   3.835
 6143TIP3   OH218364   7.651   1.684   3.936
 6143TIP3    H118365   7.631   1.613   3.997
 6143TIP3    H218366   7.696   1.749   3.989
 6144TIP3   OH218367   7.822   1.125   4.306
 6144TIP3    H118368   7.824   1.082   4.220
 6144TIP3    H218369   7.910   1.161   4.317
 6145TIP3   OH218370   7.966   0.810   5.066
 6145TIP3    H118371   7.920   0.786   4.986
 6145TIP3    H218372   7.955   0.735   5.124
 6146TIP3   OH218373   7.794   0.830   4.403
 6146TIP3    H118374   7.847   0.810   4.326
 6146TIP3    H218375   7.812   0.922   4.421
 6147TIP3   OH218376   8.052   1.795   4.812
 6147TIP3    H118377   7.966   1.784   4.771
 6147TIP3    H218378   8.035   1.784   4.906
 6148TIP3   OH218379   7.888   2.067   4.403
 6148TIP3    H118380   7.828   2.099   4.336
 6148TIP3    H218381   7.904   2.143   4.459
 6149TIP3   OH218382   8.084   2.065   4.200
 6149TIP3    H118383   8.040   2.051   4.284
 6149TIP3    H218384   8.044   2.144   4.164
 6150TIP3   OH218385   7.800   1.844   4.101
 6150TIP3    H118386   7.836   1.832   4.189
 6150TIP3    H218387   7.876   1.846   4.044
 6151TIP3   OH218388   8.020   1.754   3.960
 6151TIP3    H118389   8.025   1.674   4.012
 6151TIP3    H218390   8.100   1.802   3.982
 6152TIP3   OH218391   7.600   1.649   3.467
 6152TIP3    H118392   7.509   1.635   3.442
 6152TIP3    H218393   7.611   1.744   3.463
 6153TIP3   OH218394   7.638   1.699   3.160
 6153TIP3    H118395   7.598   1.764   3.218
 6153TIP3    H218396   7.681   1.638   3.219
 6154TIP3   OH218397   1.228   2.027   5.297
 6154TIP3    H118398   1.195   2.112   5.268
 6154TIP3    H218399   1.157   1.966   5.276
 6155TIP3   OH218400   1.225   2.018   5.726
 6155TIP3    H118401   1.277   2.002   5.805
 6155TIP3    H218402   1.182   1.934   5.708
 6156TIP3   OH218403   0.526   1.911   6.071
 6156TIP3    H118404   0.561   1.846   6.132
 6156TIP3    H218405   0.597   1.928   6.010
 6157TIP3   OH218406   1.493   2.326   5.401
 6157TIP3    H118407   1.484   2.259   5.469
 6157TIP3    H218408   1.516   2.406   5.449
 6158TIP3   OH218409   0.511   2.292   5.775
 6158TIP3    H118410   0.493   2.198   5.768
 6158TIP3    H218411   0.606   2.297   5.786
 6159TIP3   OH218412   0.283   1.828   5.788
 6159TIP3    H118413   0.332   1.746   5.798
 6159TIP3    H218414   0.346   1.890   5.752
 6160TIP3   OH218415   1.147   2.749   5.410
 6160TIP3    H118416   1.177   2.681   5.348
 6160TIP3    H218417   1.157   2.708   5.496
 6161TIP3   OH218418   1.037   2.239   5.735
 6161TIP3    H118419   1.081   2.157   5.709
 6161TIP3    H218420   1.108   2.296   5.764
 6162TIP3   OH218421   2.062   1.560   5.744
 6162TIP3    H118422   2.082   1.644   5.786
 6162TIP3    H218423   2.094   1.571   5.654
 6163TIP3   OH218424   1.439   1.733   5.766
 6163TIP3    H118425   1.470   1.647   5.796
 6163TIP3    H218426   1.400   1.716   5.680
 6164TIP3   OH218427   0.823   1.408   5.725
 6164TIP3    H118428   0.795   1.479   5.668
 6164TIP3    H218429   0.784   1.329   5.686
 6165TIP3   OH218430   1.501   1.492   5.369
 6165TIP3    H118431   1.567   1.481   5.437
 6165TIP3    H218432   1.550   1.525   5.293
 6166TIP3   OH218433   0.448   1.604   5.815
 6166TIP3    H118434   0.514   1.580   5.880
 6166TIP3    H218435   0.456   1.537   5.747
 6167TIP3   OH218436   0.846   1.808   5.668
 6167TIP3    H118437   0.940   1.791   5.675
 6167TIP3    H218438   0.809   1.726   5.634
 6168TIP3   OH218439   2.122   1.778   5.910
 6168TIP3    H118440   2.035   1.816   5.908
 6168TIP3    H218441   2.163   1.814   5.988
 6169TIP3   OH218442   0.787   1.371   6.159
 6169TIP3    H118443   0.735   1.417   6.094
 6169TIP3    H218444   0.731   1.366   6.236
 6170TIP3   OH218445   1.117   2.235   5.148
 6170TIP3    H118446   1.081   2.208   5.063
 6170TIP3    H218447   1.066   2.312   5.172
 6171TIP3   OH218448   0.868   2.168   5.945
 6171TIP3    H118449   0.814   2.238   5.982
 6171TIP3    H218450   0.917   2.211   5.875
 6172TIP3   OH218451   1.664   1.492   5.594
 6172TIP3    H118452   1.608   1.487   5.672
 6172TIP3    H218453   1.715   1.572   5.606
 6173TIP3   OH218454   0.685   1.509   5.945
 6173TIP3    H118455   0.737   1.585   5.970
 6173TIP3    H218456   0.733   1.469   5.873
 6174TIP3   OH218457   0.704   2.364   6.057
 6174TIP3    H118458   0.694   2.455   6.030
 6174TIP3    H218459   0.626   2.346   6.109
 6175TIP3   OH218460   0.115   2.063   5.283
 6175TIP3    H118461   0.057   2.097   5.215
 6175TIP3    H218462   0.142   2.141   5.333
 6176TIP3   OH218463   1.528   2.573   5.540
 6176TIP3    H118464   1.439   2.566   5.576
 6176TIP3    H218465   1.528   2.657   5.494
 6177TIP3   OH218466   1.861   1.446   5.903
 6177TIP3    H118467   1.780   1.486   5.871
 6177TIP3    H218468   1.928   1.476   5.842
 6178TIP3   OH218469   1.145   1.108   5.899
 6178TIP3    H118470   1.144   1.017   5.927
 6178TIP3    H218471   1.064   1.145   5.933
 6179TIP3   OH218472   1.237   2.592   5.198
 6179TIP3    H118473   1.291   2.514   5.186
 6179TIP3    H218474   1.295   2.665   5.172
 6180TIP3   OH218475   1.387   2.371   5.151
 6180TIP3    H118476   1.333   2.294   5.135
 6180TIP3    H218477   1.434   2.351   5.232
 6181TIP3   OH218478   1.762   2.464   5.882
 6181TIP3    H118479   1.747   2.388   5.825
 6181TIP3    H218480   1.748   2.540   5.825
 6182TIP3   OH218481   1.052   1.865   5.151
 6182TIP3    H118482   0.973   1.915   5.129
 6182TIP3    H218483   1.102   1.862   5.069
 6183TIP3   OH218484   1.025   1.683   4.839
 6183TIP3    H118485   1.090   1.729   4.891
 6183TIP3    H218486   1.074   1.616   4.792
 6184TIP3   OH218487   1.948   2.118   5.753
 6184TIP3    H118488   1.864   2.164   5.752
 6184TIP3    H218489   1.985   2.132   5.666
 6185TIP3   OH218490   1.417   1.954   5.114
 6185TIP3    H118491   1.362   1.981   5.187
 6185TIP3    H218492   1.500   1.928   5.154
 6186TIP3   OH218493   1.643   1.983   6.058
 6186TIP3    H118494   1.643   2.066   6.105
 6186TIP3    H218495   1.560   1.982   6.011
 6187TIP3   OH218496   0.650   1.937   5.512
 6187TIP3    H118497   0.615   1.873   5.450
 6187TIP3    H218498   0.722   1.891   5.556
 6188TIP3   OH218499   0.787   2.353   5.661
 6188TIP3    H118500   0.765   2.330   5.571
 6188TIP3    H218501   0.874   2.314   5.675
 6189TIP3   OH218502   0.739   1.933   5.891
 6189TIP3    H118503   0.780   1.897   5.812
 6189TIP3    H218504   0.788   2.014   5.908
 6190TIP3   OH218505   1.286   2.564   5.665
 6190TIP3    H118506   1.277   2.645   5.716
 6190TIP3    H218507   1.275   2.494   5.729
 6191TIP3   OH218508   0.907   2.465   6.220
 6191TIP3    H118509   0.849   2.524   6.268
 6191TIP3    H218510   0.849   2.414   6.165
 6192TIP3   OH218511   1.244   1.818   4.949
 6192TIP3    H118512   1.306   1.874   4.997
 6192TIP3    H218513   1.273   1.823   4.858
 6193TIP3   OH218514   0.688   2.019   6.335
 6193TIP3    H118515   0.699   2.107   6.370
 6193TIP3    H218516   0.593   2.005   6.334
 6194TIP3   OH218517   0.984   2.490   5.166
 6194TIP3    H118518   1.072   2.521   5.188
 6194TIP3    H218519   0.931   2.569   5.163
 6195TIP3   OH218520   0.701   2.635   6.305
 6195TIP3    H118521   0.686   2.643   6.211
 6195TIP3    H218522   0.613   2.633   6.343
 6196TIP3   OH218523   1.759   1.037   5.005
 6196TIP3    H118524   1.683   1.059   5.058
 6196TIP3    H218525   1.772   1.114   4.949
 6197TIP3   OH218526   0.530   1.777   5.310
 6197TIP3    H118527   0.447   1.817   5.283
 6197TIP3    H218528   0.510   1.683   5.317
 6198TIP3   OH218529   1.578   2.414   4.562
 6198TIP3    H118530   1.575   2.507   4.543
 6198TIP3    H218531   1.667   2.387   4.537
 6199TIP3   OH218532   0.332   2.144   6.235
 6199TIP3    H118533   0.292   2.101   6.160
 6199TIP3    H218534   0.361   2.071   6.291
 6200TIP3   OH218535   0.192   2.323   5.836
 6200TIP3    H118536   0.286   2.323   5.854
 6200TIP3    H218537   0.154   2.374   5.908
 6201TIP3   OH218538   1.993   2.815   5.952
 6201TIP3    H118539   1.998   2.721   5.968
 6201TIP3    H218540   1.914   2.843   5.998
 6202TIP3   OH218541   1.102   2.603   6.081
 6202TIP3    H118542   1.097   2.694   6.110
 6202TIP3    H218543   1.033   2.558   6.130
 6203TIP3   OH218544   0.873   2.720   5.038
 6203TIP3    H118545   0.829   2.704   4.955
 6203TIP3    H218546   0.845   2.807   5.064
 6204TIP3   OH218547   0.329   2.552   5.398
 6204TIP3    H118548   0.373   2.543   5.483
 6204TIP3    H218549   0.282   2.469   5.387
 6205TIP3   OH218550   1.091   2.618   4.681
 6205TIP3    H118551   1.151   2.549   4.654
 6205TIP3    H218552   1.120   2.643   4.769
 6206TIP3   OH218553   1.130   2.692   4.941
 6206TIP3    H118554   1.045   2.695   4.984
 6206TIP3    H218555   1.191   2.664   5.009
 6207TIP3   OH218556   1.885   1.944   6.230
 6207TIP3    H118557   1.805   1.947   6.178
 6207TIP3    H218558   1.907   1.851   6.234
 6208TIP3   OH218559   0.491   2.368   6.248
 6208TIP3    H118560   0.554   2.337   6.313
 6208TIP3    H218561   0.428   2.296   6.240
 6209TIP3   OH218562   0.903   1.177   5.998
 6209TIP3    H118563   0.822   1.137   5.966
 6209TIP3    H218564   0.873   1.245   6.059
 6210TIP3   OH218565   1.463   1.293   6.220
 6210TIP3    H118566   1.531   1.265   6.280
 6210TIP3    H218567   1.381   1.278   6.267
 6211TIP3   OH218568   1.649   1.719   6.141
 6211TIP3    H118569   1.606   1.713   6.226
 6211TIP3    H218570   1.634   1.809   6.112
 6212TIP3   OH218571   1.326   1.809   4.690
 6212TIP3    H118572   1.282   1.800   4.605
 6212TIP3    H218573   1.408   1.852   4.670
 6213TIP3   OH218574   1.045   1.220   4.992
 6213TIP3    H118575   1.005   1.229   5.079
 6213TIP3    H218576   1.008   1.139   4.958
 6214TIP3   OH218577   0.831   1.720   6.046
 6214TIP3    H118578   0.782   1.726   6.129
 6214TIP3    H218579   0.806   1.798   5.998
 6215TIP3   OH218580   0.709   1.593   5.559
 6215TIP3    H118581   0.623   1.560   5.585
 6215TIP3    H218582   0.722   1.561   5.470
 6216TIP3   OH218583   1.186   1.667   5.288
 6216TIP3    H118584   1.135   1.737   5.247
 6216TIP3    H218585   1.243   1.636   5.218
 6217TIP3   OH218586   1.372   1.935   6.361
 6217TIP3    H118587   1.341   1.865   6.419
 6217TIP3    H218588   1.465   1.944   6.382
 6218TIP3   OH218589   1.347   1.674   5.515
 6218TIP3    H118590   1.280   1.697   5.450
 6218TIP3    H218591   1.395   1.602   5.475
 6219TIP3   OH218592   0.658   1.752   6.260
 6219TIP3    H118593   0.683   1.834   6.302
 6219TIP3    H218594   0.602   1.708   6.324
 6220TIP3   OH218595   0.708   1.199   4.997
 6220TIP3    H118596   0.689   1.194   5.091
 6220TIP3    H218597   0.632   1.243   4.960
 6221TIP3   OH218598   1.387   1.932   5.942
 6221TIP3    H118599   1.413   1.866   5.878
 6221TIP3    H218600   1.346   1.883   6.013
 6222TIP3   OH218601   1.084   1.397   5.614
 6222TIP3    H118602   1.006   1.398   5.670
 6222TIP3    H218603   1.157   1.382   5.675
 6223TIP3   OH218604   0.501   1.413   5.616
 6223TIP3    H118605   0.417   1.376   5.587
 6223TIP3    H218606   0.563   1.341   5.608
 6224TIP3   OH218607   0.728   1.474   5.315
 6224TIP3    H118608   0.823   1.479   5.303
 6224TIP3    H218609   0.692   1.492   5.228
 6225TIP3   OH218610   1.504   1.468   5.818
 6225TIP3    H118611   1.491   1.484   5.911
 6225TIP3    H218612   1.434   1.408   5.794
 6226TIP3   OH218613   0.605   1.508   5.074
 6226TIP3    H118614   0.555   1.446   5.022
 6226TIP3    H218615   0.661   1.553   5.012
 6227TIP3   OH218616   1.710   3.167   6.044
 6227TIP3    H118617   1.708   3.181   5.949
 6227TIP3    H218618   1.789   3.212   6.073
 6228TIP3   OH218619   0.662   2.272   6.451
 6228TIP3    H118620   0.739   2.295   6.503
 6228TIP3    H218621   0.590   2.272   6.514
 6229TIP3   OH218622   1.116   1.750   5.715
 6229TIP3    H118623   1.180   1.698   5.667
 6229TIP3    H218624   1.115   1.711   5.802
 6230TIP3   OH218625   0.691   1.209   5.571
 6230TIP3    H118626   0.666   1.182   5.483
 6230TIP3    H218627   0.771   1.160   5.589
 6231TIP3   OH218628   1.093   1.658   5.979
 6231TIP3    H118629   1.008   1.692   6.005
 6231TIP3    H218630   1.156   1.706   6.034
 6232TIP3   OH218631   0.826   2.018   5.084
 6232TIP3    H118632   0.753   1.961   5.062
 6232TIP3    H218633   0.800   2.057   5.168
 6233TIP3   OH218634   1.712   2.257   5.706
 6233TIP3    H118635   1.749   2.305   5.632
 6233TIP3    H218636   1.633   2.216   5.670
 6234TIP3   OH218637   1.296   1.322   5.008
 6234TIP3    H118638   1.203   1.300   5.000
 6234TIP3    H218639   1.297   1.417   5.017
 6235TIP3   OH218640   1.226   2.339   6.116
 6235TIP3    H118641   1.277   2.328   6.196
 6235TIP3    H218642   1.186   2.426   6.124
 6236TIP3   OH218643   1.349   1.587   5.074
 6236TIP3    H118644   1.444   1.591   5.085
 6236TIP3    H218645   1.327   1.664   5.021
 6237TIP3   OH218646   0.508   2.011   5.740
 6237TIP3    H118647   0.547   1.995   5.654
 6237TIP3    H218648   0.573   1.977   5.802
 6238TIP3   OH218649   0.973   2.167   4.903
 6238TIP3    H118650   0.927   2.251   4.906
 6238TIP3    H218651   0.922   2.109   4.959
 6239TIP3   OH218652   0.427   1.947   6.417
 6239TIP3    H118653   0.464   1.960   6.505
 6239TIP3    H218654   0.353   1.888   6.431
 6240TIP3   OH218655   1.139   2.084   6.403
 6240TIP3    H118656   1.072   2.022   6.376
 6240TIP3    H218657   1.221   2.045   6.373
 6241TIP3   OH218658   1.371   2.629   5.999
 6241TIP3    H118659   1.277   2.613   6.006
 6241TIP3    H218660   1.396   2.666   6.084
 6242TIP3   OH218661   1.757   1.670   4.892
 6242TIP3    H118662   1.701   1.624   4.829
 6242TIP3    H218663   1.763   1.759   4.858
 6243TIP3   OH218664   2.008   2.534   5.977
 6243TIP3    H118665   1.914   2.522   5.968
 6243TIP3    H218666   2.044   2.509   5.892
 6244TIP3   OH218667   1.483   2.486   4.822
 6244TIP3    H118668   1.470   2.416   4.885
 6244TIP3    H218669   1.514   2.442   4.742
 6245TIP3   OH218670   1.481   2.123   5.602
 6245TIP3    H118671   1.392   2.101   5.628
 6245TIP3    H218672   1.516   2.042   5.565
 6246TIP3   OH218673   0.634   2.364   5.413
 6246TIP3    H118674   0.627   2.433   5.348
 6246TIP3    H218675   0.567   2.385   5.478
 6247TIP3   OH218676   0.171   1.639   5.134
 6247TIP3    H118677   0.223   1.718   5.147
 6247TIP3    H218678   0.110   1.638   5.207
 6248TIP3   OH218679   0.719   2.121   5.312
 6248TIP3    H118680   0.694   2.207   5.345
 6248TIP3    H218681   0.697   2.061   5.384
 6249TIP3   OH218682   0.926   2.680   5.871
 6249TIP3    H118683   0.960   2.755   5.822
 6249TIP3    H218684   1.000   2.649   5.923
 6250TIP3   OH218685   0.558   2.584   5.249
 6250TIP3    H118686   0.473   2.583   5.294
 6250TIP3    H218687   0.590   2.673   5.260
 6251TIP3   OH218688   1.271   2.346   5.843
 6251TIP3    H118689   1.256   2.341   5.938
 6251TIP3    H218690   1.353   2.298   5.830
 6252TIP3   OH218691   1.257   2.219   4.731
 6252TIP3    H118692   1.321   2.197   4.799
 6252TIP3    H218693   1.173   2.190   4.767
 6253TIP3   OH218694   1.523   2.843   5.885
 6253TIP3    H118695   1.453   2.779   5.900
 6253TIP3    H218696   1.491   2.896   5.812
 6254TIP3   OH218697   1.579   2.688   4.525
 6254TIP3    H118698   1.615   2.755   4.467
 6254TIP3    H218699   1.504   2.730   4.566
 6255TIP3   OH218700   1.443   2.147   4.915
 6255TIP3    H118701   1.428   2.085   4.987
 6255TIP3    H218702   1.539   2.152   4.908
 6256TIP3   OH218703   0.381   2.565   6.007
 6256TIP3    H118704   0.400   2.504   6.078
 6256TIP3    H218705   0.391   2.652   6.046
 6257TIP3   OH218706   0.587   2.192   4.712
 6257TIP3    H118707   0.616   2.104   4.686
 6257TIP3    H218708   0.584   2.188   4.808
 6258TIP3   OH218709   0.556   2.205   4.990
 6258TIP3    H118710   0.613   2.175   5.061
 6258TIP3    H218711   0.560   2.301   4.995
 6259TIP3   OH218712   0.296   1.880   5.196
 6259TIP3    H118713   0.235   1.932   5.248
 6259TIP3    H218714   0.319   1.936   5.122
 6260TIP3   OH218715   1.460   1.528   6.079
 6260TIP3    H118716   1.536   1.579   6.107
 6260TIP3    H218717   1.461   1.450   6.135
 6261TIP3   OH218718   1.354   1.275   5.275
 6261TIP3    H118719   1.332   1.294   5.184
 6261TIP3    H218720   1.398   1.355   5.306
 6262TIP3   OH218721   0.846   2.405   4.944
 6262TIP3    H118722   0.754   2.422   4.966
 6262TIP3    H218723   0.894   2.433   5.021
 6263TIP3   OH218724   1.007   1.472   5.360
 6263TIP3    H118725   1.067   1.542   5.333
 6263TIP3    H218726   1.030   1.455   5.452
 6264TIP3   OH218727   1.297   1.762   6.140
 6264TIP3    H118728   1.322   1.808   6.220
 6264TIP3    H218729   1.346   1.680   6.142
 6265TIP3   OH218730   1.161   1.183   5.449
 6265TIP3    H118731   1.142   1.258   5.505
 6265TIP3    H218732   1.228   1.215   5.388
 6266TIP3   OH218733   0.587   2.478   4.999
 6266TIP3    H118734   0.559   2.545   4.937
 6266TIP3    H218735   0.573   2.518   5.085
 6267TIP3   OH218736   0.685   1.201   5.282
 6267TIP3    H118737   0.682   1.295   5.299
 6267TIP3    H218738   0.777   1.181   5.270
 6268TIP3   OH218739   1.914   1.669   6.134
 6268TIP3    H118740   1.819   1.675   6.142
 6268TIP3    H218741   1.929   1.621   6.052
 6269TIP3   OH218742   1.573   1.865   5.514
 6269TIP3    H118743   1.496   1.810   5.529
 6269TIP3    H218744   1.641   1.826   5.569
 6270TIP3   OH218745   0.312   2.066   4.984
 6270TIP3    H118746   0.379   2.133   4.996
 6270TIP3    H218747   0.349   2.006   4.918
 6271TIP3   OH218748   0.259   1.391   5.017
 6271TIP3    H118749   0.246   1.471   5.068
 6271TIP3    H218750   0.246   1.320   5.081
 6272TIP3   OH218751   1.552   2.839   5.453
 6272TIP3    H118752   1.512   2.890   5.382
 6272TIP3    H218753   1.646   2.850   5.441
 6273TIP3   OH218754   0.163   2.325   5.377
 6273TIP3    H118755   0.132   2.358   5.461
 6273TIP3    H218756   0.100   2.359   5.313
 6274TIP3   OH218757   0.367   2.900   6.458
 6274TIP3    H118758   0.440   2.911   6.518
 6274TIP3    H218759   0.368   2.806   6.436
 6275TIP3   OH218760   0.817   2.793   6.499
 6275TIP3    H118761   0.906   2.760   6.508
 6275TIP3    H218762   0.778   2.740   6.429
 6276TIP3   OH218763   1.429   2.728   6.248
 6276TIP3    H118764   1.441   2.658   6.312
 6276TIP3    H218765   1.504   2.786   6.263
 6277TIP3   OH218766   1.219   2.416   4.541
 6277TIP3    H118767   1.252   2.352   4.604
 6277TIP3    H218768   1.282   2.415   4.470
 6278TIP3   OH218769   0.444   2.249   6.618
 6278TIP3    H118770   0.471   2.159   6.637
 6278TIP3    H218771   0.349   2.244   6.605
 6279TIP3   OH218772   0.442   1.880   4.835
 6279TIP3    H118773   0.494   1.859   4.912
 6279TIP3    H218774   0.506   1.896   4.766
 6280TIP3   OH218775   1.069   2.359   6.419
 6280TIP3    H118776   1.022   2.379   6.338
 6280TIP3    H218777   1.103   2.271   6.406
 6281TIP3   OH218778   0.939   2.116   4.628
 6281TIP3    H118779   0.943   2.128   4.723
 6281TIP3    H218780   0.948   2.022   4.614
 6282TIP3   OH218781   1.539   2.403   6.033
 6282TIP3    H118782   1.618   2.430   5.986
 6282TIP3    H218783   1.476   2.473   6.018
 6283TIP3   OH218784   0.532   1.984   6.672
 6283TIP3    H118785   0.589   1.908   6.689
 6283TIP3    H218786   0.529   2.030   6.755
 6284TIP3   OH218787   0.618   1.837   5.047
 6284TIP3    H118788   0.599   1.808   5.136
 6284TIP3    H218789   0.666   1.764   5.008
 6285TIP3   OH218790   0.943   1.909   6.297
 6285TIP3    H118791   0.859   1.954   6.306
 6285TIP3    H218792   0.976   1.935   6.211
 6286TIP3   OH218793   0.756   1.650   4.897
 6286TIP3    H118794   0.723   1.649   4.807
 6286TIP3    H218795   0.851   1.656   4.888
 6287TIP3   OH218796   1.424   2.278   6.394
 6287TIP3    H118797   1.492   2.240   6.338
 6287TIP3    H218798   1.422   2.221   6.470
 6288TIP3   OH218799   1.546   1.932   4.577
 6288TIP3    H118800   1.533   1.890   4.492
 6288TIP3    H218801   1.518   2.023   4.563
 6289TIP3   OH218802   1.022   1.665   6.398
 6289TIP3    H118803   1.030   1.598   6.330
 6289TIP3    H218804   0.996   1.744   6.350
 6290TIP3   OH218805   1.043   1.472   6.191
 6290TIP3    H118806   1.067   1.517   6.109
 6290TIP3    H218807   0.954   1.441   6.176
 6291TIP3   OH218808   1.052   2.003   6.068
 6291TIP3    H118809   1.138   2.044   6.058
 6291TIP3    H218810   0.992   2.064   6.025
 6292TIP3   OH218811   1.640   1.954   6.464
 6292TIP3    H118812   1.681   1.868   6.473
 6292TIP3    H218813   1.712   2.014   6.446
 6293TIP3   OH218814   1.667   2.226   6.196
 6293TIP3    H118815   1.613   2.288   6.147
 6293TIP3    H218816   1.756   2.242   6.164
 6294TIP3   OH218817   0.929   1.759   6.647
 6294TIP3    H118818   0.836   1.756   6.671
 6294TIP3    H218819   0.931   1.726   6.557
 6295TIP3   OH218820   1.191   1.250   6.272
 6295TIP3    H118821   1.142   1.328   6.248
 6295TIP3    H218822   1.136   1.177   6.243
 6296TIP3   OH218823   1.277   1.719   6.498
 6296TIP3    H118824   1.268   1.699   6.591
 6296TIP3    H218825   1.193   1.695   6.460
 6297TIP3   OH218826   1.522   1.670   6.373
 6297TIP3    H118827   1.444   1.670   6.428
 6297TIP3    H218828   1.594   1.649   6.433
 6298TIP3   OH218829   1.759   1.645   6.516
 6298TIP3    H118830   1.780   1.552   6.522
 6298TIP3    H218831   1.758   1.675   6.607
 6299TIP3   OH218832   1.258   1.222   6.536
 6299TIP3    H118833   1.322   1.152   6.528
 6299TIP3    H218834   1.221   1.231   6.448
 6300TIP3   OH218835   1.349   1.433   6.675
 6300TIP3    H118836   1.319   1.358   6.624
 6300TIP3    H218837   1.271   1.489   6.683
 6301TIP3   OH218838   0.559   2.674   4.801
 6301TIP3    H118839   0.652   2.659   4.780
 6301TIP3    H218840   0.524   2.714   4.722
 6302TIP3   OH218841   0.035   2.061   4.968
 6302TIP3    H118842   0.130   2.069   4.982
 6302TIP3    H218843   0.021   1.969   4.944
 6303TIP3   OH218844   8.461   2.599   5.431
 6303TIP3    H118845   8.405   2.534   5.389
 6303TIP3    H218846   8.509   2.549   5.498
 6304TIP3   OH218847   0.116   2.465   5.613
 6304TIP3    H118848   0.138   2.397   5.677
 6304TIP3    H218849   0.126   2.547   5.660
 6305TIP3   OH218850   1.823   2.889   5.445
 6305TIP3    H118851   1.848   2.918   5.533
 6305TIP3    H218852   1.882   2.938   5.387
 6306TIP3   OH218853   1.845   2.919   5.728
 6306TIP3    H118854   1.796   2.837   5.720
 6306TIP3    H218855   1.914   2.900   5.792
 6307TIP3   OH218856   1.890   2.622   6.298
 6307TIP3    H118857   1.818   2.630   6.362
 6307TIP3    H218858   1.938   2.704   6.306
 6308TIP3   OH218859   1.721   2.137   4.909
 6308TIP3    H118860   1.779   2.207   4.878
 6308TIP3    H218861   1.767   2.099   4.983
 6309TIP3   OH218862   1.850   1.994   5.109
 6309TIP3    H118863   1.783   1.958   5.168
 6309TIP3    H218864   1.916   2.031   5.168
 6310TIP3   OH218865   1.890   2.393   5.541
 6310TIP3    H118866   1.944   2.324   5.504
 6310TIP3    H218867   1.896   2.465   5.478
 6311TIP3   OH218868   1.697   2.684   5.731
 6311TIP3    H118869   1.630   2.728   5.784
 6311TIP3    H218870   1.648   2.643   5.660
 6312TIP3   OH218871   1.752   1.910   4.757
 6312TIP3    H118872   1.681   1.911   4.693
 6312TIP3    H218873   1.738   1.988   4.810
 6313TIP3   OH218874   1.606   1.559   4.692
 6313TIP3    H118875   1.559   1.593   4.616
 6313TIP3    H218876   1.601   1.464   4.682
 6314TIP3   OH218877   1.643   1.857   5.245
 6314TIP3    H118878   1.650   1.762   5.232
 6314TIP3    H218879   1.624   1.867   5.338
 6315TIP3   OH218880   0.263   1.967   6.022
 6315TIP3    H118881   0.256   1.921   5.938
 6315TIP3    H218882   0.354   1.953   6.049
 6316TIP3   OH218883   1.926   2.272   6.105
 6316TIP3    H118884   1.990   2.202   6.089
 6316TIP3    H218885   1.951   2.341   6.044
 6317TIP3   OH218886   2.098   2.057   6.098
 6317TIP3    H118887   2.026   2.017   6.147
 6317TIP3    H218888   2.174   2.002   6.118
 6318TIP3   OH218889   1.575   1.287   4.661
 6318TIP3    H118890   1.638   1.262   4.729
 6318TIP3    H218891   1.492   1.251   4.691
 6319TIP3   OH218892   1.636   1.578   5.133
 6319TIP3    H118893   1.678   1.492   5.144
 6319TIP3    H218894   1.679   1.615   5.056
 6320TIP3   OH218895   1.786   1.740   5.653
 6320TIP3    H118896   1.866   1.758   5.605
 6320TIP3    H218897   1.800   1.780   5.739
 6321TIP3   OH218898   1.860   1.889   5.882
 6321TIP3    H118899   1.789   1.919   5.938
 6321TIP3    H218900   1.893   1.969   5.840
 6322TIP3   OH218901   2.325   1.504   6.411
 6322TIP3    H118902   2.391   1.442   6.382
 6322TIP3    H218903   2.294   1.545   6.330
 6323TIP3   OH218904   1.739   1.323   5.182
 6323TIP3    H118905   1.789   1.302   5.261
 6323TIP3    H218906   1.679   1.249   5.171
 6324TIP3   OH218907   2.176   1.605   6.205
 6324TIP3    H118908   2.090   1.643   6.225
 6324TIP3    H218909   2.156   1.525   6.157
 6325TIP3   OH218910   1.796   1.241   4.824
 6325TIP3    H118911   1.843   1.182   4.765
 6325TIP3    H218912   1.851   1.319   4.829
 6326TIP3   OH218913   1.372   2.799   5.091
 6326TIP3    H118914   1.430   2.790   5.016
 6326TIP3    H218915   1.413   2.867   5.145
 6327TIP3   OH218916   0.449   2.617   6.433
 6327TIP3    H118917   0.432   2.533   6.390
 6327TIP3    H218918   0.457   2.595   6.526
 6328TIP3   OH218919   0.703   2.638   6.025
 6328TIP3    H118920   0.648   2.709   5.991
 6328TIP3    H218921   0.786   2.648   5.979
 6329TIP3   OH218922   1.097   2.869   6.155
 6329TIP3    H118923   1.133   2.864   6.243
 6329TIP3    H218924   1.159   2.924   6.107
 6330TIP3   OH218925   1.289   3.025   6.031
 6330TIP3    H118926   1.355   2.971   5.987
 6330TIP3    H218927   1.340   3.085   6.086
 6331TIP3   OH218928   2.091   1.352   6.113
 6331TIP3    H118929   2.001   1.337   6.082
 6331TIP3    H218930   2.133   1.267   6.107
 6332TIP3   OH218931   0.400   2.838   6.080
 6332TIP3    H118932   0.312   2.845   6.044
 6332TIP3    H218933   0.408   2.914   6.137
 6333TIP3   OH218934   0.608   2.870   5.905
 6333TIP3    H118935   0.528   2.864   5.958
 6333TIP3    H218936   0.577   2.886   5.816
 6334TIP3   OH218937   1.000   2.892   5.707
 6334TIP3    H118938   0.929   2.902   5.644
 6334TIP3    H218939   1.009   2.979   5.747
 6335TIP3   OH218940   1.262   2.825   5.752
 6335TIP3    H118941   1.170   2.847   5.736
 6335TIP3    H218942   1.311   2.895   5.710
 6336TIP3   OH218943   1.462   3.000   5.658
 6336TIP3    H118944   1.461   3.088   5.619
 6336TIP3    H218945   1.492   2.943   5.588
 6337TIP3   OH218946   0.285   2.649   5.756
 6337TIP3    H118947   0.293   2.628   5.849
 6337TIP3    H218948   0.355   2.599   5.714
 6338TIP3   OH218949   0.488   2.515   5.621
 6338TIP3    H118950   0.491   2.441   5.681
 6338TIP3    H218951   0.568   2.564   5.639
 6339TIP3   OH218952   0.745   2.627   5.664
 6339TIP3    H118953   0.766   2.535   5.655
 6339TIP3    H218954   0.794   2.655   5.741
 6340TIP3   OH218955   1.300   1.288   5.753
 6340TIP3    H118956   1.246   1.228   5.805
 6340TIP3    H218957   1.361   1.231   5.706
 6341TIP3   OH218958   1.752   1.190   5.611
 6341TIP3    H118959   1.806   1.193   5.532
 6341TIP3    H218960   1.736   1.281   5.633
 6342TIP3   OH218961   1.903   1.257   5.394
 6342TIP3    H118962   1.972   1.195   5.370
 6342TIP3    H218963   1.946   1.343   5.389
 6343TIP3   OH218964   0.942   1.103   5.614
 6343TIP3    H118965   1.010   1.113   5.548
 6343TIP3    H218966   0.989   1.072   5.692
 6344TIP3   OH218967   1.480   1.131   5.616
 6344TIP3    H118968   1.459   1.127   5.522
 6344TIP3    H218969   1.575   1.141   5.618
 6345TIP3   OH218970   1.543   1.103   5.161
 6345TIP3    H118971   1.477   1.156   5.206
 6345TIP3    H218972   1.497   1.024   5.135
 6346TIP3   OH218973   8.501   2.418   5.175
 6346TIP3    H118974   8.465   2.367   5.102
 6346TIP3    H218975   8.527   2.501   5.135
 6347TIP3   OH218976   0.956   1.227   5.252
 6347TIP3    H118977   1.009   1.164   5.301
 6347TIP3    H218978   0.978   1.312   5.290
 6348TIP3   OH218979   0.827   2.617   4.766
 6348TIP3    H118980   0.915   2.633   4.731
 6348TIP3    H218981   0.834   2.534   4.812
 6349TIP3   OH218982   1.525   2.754   4.862
 6349TIP3    H118983   1.515   2.659   4.853
 6349TIP3    H218984   1.485   2.789   4.783
 6350TIP3   OH218985   0.139   2.467   4.832
 6350TIP3    H118986   0.157   2.498   4.921
 6350TIP3    H218987   0.218   2.419   4.808
 6351TIP3   OH218988   1.838   1.383   6.524
 6351TIP3    H118989   1.849   1.340   6.608
 6351TIP3    H218990   1.924   1.377   6.482
 6352TIP3   OH218991   1.746   2.892   6.048
 6352TIP3    H118992   1.671   2.863   5.996
 6352TIP3    H218993   1.734   2.987   6.057
 6353TIP3   OH218994   3.024   2.281   4.786
 6353TIP3    H118995   2.993   2.368   4.761
 6353TIP3    H218996   2.953   2.222   4.763
 6354TIP3   OH218997   3.017   2.272   5.216
 6354TIP3    H118998   3.072   2.256   5.292
 6354TIP3    H218999   2.976   2.187   5.198
 6355TIP3   OH219000   2.319   2.132   5.561
 6355TIP3    H119001   2.357   2.080   5.632
 6355TIP3    H219002   2.394   2.158   5.508
 6356TIP3   OH219003   3.288   2.583   4.888
 6356TIP3    H119004   3.280   2.515   4.956
 6356TIP3    H219005   3.311   2.662   4.936
 6357TIP3   OH219006   2.309   2.557   5.244
 6357TIP3    H119007   2.292   2.463   5.249
 6357TIP3    H219008   2.404   2.564   5.236
 6358TIP3   OH219009   1.995   1.765   5.028
 6358TIP3    H119010   1.959   1.850   5.053
 6358TIP3    H219011   1.922   1.718   4.989
 6359TIP3   OH219012   2.078   2.080   5.251
 6359TIP3    H119013   2.128   2.002   5.277
 6359TIP3    H219014   2.145   2.145   5.229
 6360TIP3   OH219015   2.951   3.005   4.902
 6360TIP3    H119016   2.977   2.943   4.834
 6360TIP3    H219017   2.959   2.957   4.984
 6361TIP3   OH219018   2.830   2.494   5.221
 6361TIP3    H119019   2.875   2.413   5.195
 6361TIP3    H219020   2.900   2.552   5.250
 6362TIP3   OH219021   3.864   1.813   5.237
 6362TIP3    H119022   3.883   1.893   5.286
 6362TIP3    H219023   3.885   1.834   5.146
 6363TIP3   OH219024   3.233   1.982   5.253
 6363TIP3    H119025   3.268   1.898   5.282
 6363TIP3    H219026   3.198   1.965   5.166
 6364TIP3   OH219027   2.589   1.642   5.215
 6364TIP3    H119028   2.569   1.714   5.156
 6364TIP3    H219029   2.534   1.570   5.185
 6365TIP3   OH219030   3.287   1.741   4.846
 6365TIP3    H119031   3.349   1.735   4.919
 6365TIP3    H219032   3.338   1.776   4.773
 6366TIP3   OH219033   2.214   1.855   5.341
 6366TIP3    H119034   2.297   1.838   5.386
 6366TIP3    H219035   2.219   1.804   5.260
 6367TIP3   OH219036   2.635   2.056   5.158
 6367TIP3    H119037   2.729   2.041   5.165
 6367TIP3    H219038   2.600   1.974   5.124
 6368TIP3   OH219039   3.914   2.027   5.404
 6368TIP3    H119040   3.828   2.069   5.401
 6368TIP3    H219041   3.954   2.059   5.485
 6369TIP3   OH219042   2.574   1.644   5.663
 6369TIP3    H119043   2.522   1.680   5.591
 6369TIP3    H219044   2.520   1.657   5.741
 6370TIP3   OH219045   2.919   2.498   4.648
 6370TIP3    H119046   2.881   2.472   4.564
 6370TIP3    H219047   2.867   2.575   4.674
 6371TIP3   OH219048   2.668   2.417   5.432
 6371TIP3    H119049   2.615   2.490   5.466
 6371TIP3    H219050   2.718   2.456   5.360
 6372TIP3   OH219051   3.444   1.768   5.068
 6372TIP3    H119052   3.404   1.746   5.152
 6372TIP3    H219053   3.502   1.842   5.088
 6373TIP3   OH219054   2.459   1.752   5.435
 6373TIP3    H119055   2.514   1.826   5.458
 6373TIP3    H219056   2.506   1.708   5.364
 6374TIP3   OH219057   2.511   2.622   5.535
 6374TIP3    H119058   2.498   2.712   5.504
 6374TIP3    H219059   2.433   2.603   5.588
 6375TIP3   OH219060   1.888   2.326   4.789
 6375TIP3    H119061   1.856   2.348   4.702
 6375TIP3    H219062   1.913   2.410   4.827
 6376TIP3   OH219063   3.322   2.830   5.027
 6376TIP3    H119064   3.234   2.823   5.064
 6376TIP3    H219065   3.323   2.913   4.981
 6377TIP3   OH219066   3.663   1.699   5.402
 6377TIP3    H119067   3.579   1.727   5.366
 6377TIP3    H219068   3.728   1.729   5.338
 6378TIP3   OH219069   2.912   1.335   5.393
 6378TIP3    H119070   2.908   1.243   5.421
 6378TIP3    H219071   2.836   1.376   5.433
 6379TIP3   OH219072   3.036   2.856   4.683
 6379TIP3    H119073   3.089   2.777   4.671
 6379TIP3    H219074   3.093   2.928   4.654
 6380TIP3   OH219075   3.174   2.625   4.640
 6380TIP3    H119076   3.102   2.563   4.640
 6380TIP3    H219077   3.225   2.604   4.719
 6381TIP3   OH219078   3.559   2.719   5.369
 6381TIP3    H119079   3.544   2.643   5.313
 6381TIP3    H219080   3.545   2.795   5.312
 6382TIP3   OH219081   2.850   2.117   4.640
 6382TIP3    H119082   2.769   2.164   4.619
 6382TIP3    H219083   2.900   2.117   4.558
 6383TIP3   OH219084   2.816   1.931   4.331
 6383TIP3    H119085   2.882   1.979   4.382
 6383TIP3    H219086   2.865   1.861   4.289
 6384TIP3   OH219087   3.743   2.374   5.238
 6384TIP3    H119088   3.660   2.420   5.238
 6384TIP3    H219089   3.779   2.388   5.151
 6385TIP3   OH219090   3.211   2.205   4.601
 6385TIP3    H119091   3.157   2.235   4.674
 6385TIP3    H219092   3.294   2.181   4.641
 6386TIP3   OH219093   3.438   2.237   5.549
 6386TIP3    H119094   3.437   2.321   5.595
 6386TIP3    H219095   3.356   2.236   5.500
 6387TIP3   OH219096   2.440   2.191   5.004
 6387TIP3    H119097   2.405   2.129   4.940
 6387TIP3    H219098   2.512   2.144   5.046
 6388TIP3   OH219099   2.574   2.607   5.150
 6388TIP3    H119100   2.554   2.595   5.057
 6388TIP3    H219101   2.662   2.571   5.161
 6389TIP3   OH219102   2.532   2.185   5.382
 6389TIP3    H119103   2.572   2.149   5.303
 6389TIP3    H219104   2.582   2.265   5.399
 6390TIP3   OH219105   3.081   2.824   5.155
 6390TIP3    H119106   3.071   2.903   5.207
 6390TIP3    H219107   3.070   2.752   5.217
 6391TIP3   OH219108   2.709   2.722   5.704
 6391TIP3    H119109   2.647   2.779   5.750
 6391TIP3    H219110   2.654   2.670   5.646
 6392TIP3   OH219111   3.039   2.070   4.433
 6392TIP3    H119112   3.101   2.126   4.480
 6392TIP3    H219113   3.067   2.074   4.342
 6393TIP3   OH219114   2.465   2.279   5.842
 6393TIP3    H119115   2.465   2.373   5.863
 6393TIP3    H219116   2.372   2.256   5.835
 6394TIP3   OH219117   2.786   2.741   4.684
 6394TIP3    H119118   2.870   2.787   4.693
 6394TIP3    H219119   2.729   2.804   4.641
 6395TIP3   OH219120   2.496   2.879   5.788
 6395TIP3    H119121   2.473   2.888   5.695
 6395TIP3    H219122   2.411   2.866   5.831
 6396TIP3   OH219123   3.557   1.296   4.492
 6396TIP3    H119124   3.479   1.318   4.544
 6396TIP3    H219125   3.568   1.371   4.434
 6397TIP3   OH219126   2.314   2.032   4.804
 6397TIP3    H119127   2.234   2.077   4.776
 6397TIP3    H219128   2.285   1.942   4.824
 6398TIP3   OH219129   3.366   2.650   4.052
 6398TIP3    H119130   3.360   2.744   4.034
 6398TIP3    H219131   3.458   2.629   4.039
 6399TIP3   OH219132   2.092   2.439   5.736
 6399TIP3    H119133   2.023   2.417   5.673
 6399TIP3    H219134   2.127   2.354   5.763
 6400TIP3   OH219135   1.950   2.620   5.382
 6400TIP3    H119136   2.045   2.630   5.382
 6400TIP3    H219137   1.917   2.699   5.425
 6401TIP3   OH219138   3.792   3.077   5.440
 6401TIP3    H119139   3.797   2.982   5.453
 6401TIP3    H219140   3.713   3.103   5.486
 6402TIP3   OH219141   2.897   2.866   5.564
 6402TIP3    H119142   2.890   2.957   5.594
 6402TIP3    H219143   2.831   2.819   5.614
 6403TIP3   OH219144   2.676   2.961   4.521
 6403TIP3    H119145   2.631   2.946   4.438
 6403TIP3    H219146   2.643   3.045   4.552
 6404TIP3   OH219147   2.113   2.817   4.898
 6404TIP3    H119148   2.158   2.810   4.982
 6404TIP3    H219149   2.066   2.733   4.889
 6405TIP3   OH219150   2.878   2.888   4.148
 6405TIP3    H119151   2.931   2.816   4.113
 6405TIP3    H219152   2.915   2.905   4.235
 6406TIP3   OH219153   2.931   2.941   4.414
 6406TIP3    H119154   2.847   2.941   4.460
 6406TIP3    H219155   2.994   2.911   4.480
 6407TIP3   OH219156   3.681   2.200   5.712
 6407TIP3    H119157   3.599   2.204   5.663
 6407TIP3    H219158   3.703   2.107   5.715
 6408TIP3   OH219159   2.293   2.625   5.706
 6408TIP3    H119160   2.344   2.611   5.786
 6408TIP3    H219161   2.221   2.562   5.713
 6409TIP3   OH219162   2.674   1.426   5.518
 6409TIP3    H119163   2.589   1.393   5.489
 6409TIP3    H219164   2.654   1.507   5.566
 6410TIP3   OH219165   3.222   1.550   5.721
 6410TIP3    H119166   3.293   1.525   5.780
 6410TIP3    H219167   3.142   1.532   5.770
 6411TIP3   OH219168   3.435   1.970   5.632
 6411TIP3    H119169   3.397   1.966   5.720
 6411TIP3    H219170   3.424   2.061   5.605
 6412TIP3   OH219171   3.112   2.045   4.168
 6412TIP3    H119172   3.073   2.049   4.080
 6412TIP3    H219173   3.194   2.092   4.159
 6413TIP3   OH219174   2.818   1.475   4.485
 6413TIP3    H119175   2.787   1.480   4.576
 6413TIP3    H219176   2.788   1.390   4.454
 6414TIP3   OH219177   2.614   1.961   5.526
 6414TIP3    H119178   2.571   1.969   5.612
 6414TIP3    H219179   2.592   2.043   5.481
 6415TIP3   OH219180   2.494   1.840   5.050
 6415TIP3    H119181   2.405   1.816   5.075
 6415TIP3    H219182   2.504   1.806   4.961
 6416TIP3   OH219183   2.974   1.913   4.777
 6416TIP3    H119184   2.928   1.986   4.737
 6416TIP3    H219185   3.033   1.881   4.709
 6417TIP3   OH219186   3.166   2.183   5.851
 6417TIP3    H119187   3.137   2.115   5.912
 6417TIP3    H219188   3.258   2.196   5.871
 6418TIP3   OH219189   3.142   1.928   5.001
 6418TIP3    H119190   3.074   1.948   4.937
 6418TIP3    H219191   3.191   1.855   4.962
 6419TIP3   OH219192   2.451   1.969   5.750
 6419TIP3    H119193   2.497   2.024   5.814
 6419TIP3    H219194   2.433   1.887   5.796
 6420TIP3   OH219195   2.489   1.447   4.462
 6420TIP3    H119196   2.483   1.451   4.557
 6420TIP3    H219197   2.413   1.495   4.431
 6421TIP3   OH219198   2.043   1.482   5.335
 6421TIP3    H119199   2.110   1.523   5.391
 6421TIP3    H219200   2.086   1.468   5.251
 6422TIP3   OH219201   1.948   1.474   4.835
 6422TIP3    H119202   1.993   1.508   4.757
 6422TIP3    H219203   1.885   1.543   4.859
 6423TIP3   OH219204   3.183   2.183   5.428
 6423TIP3    H119205   3.209   2.117   5.364
 6423TIP3    H219206   3.142   2.134   5.499
 6424TIP3   OH219207   2.857   1.630   5.100
 6424TIP3    H119208   2.781   1.629   5.157
 6424TIP3    H219209   2.932   1.618   5.159
 6425TIP3   OH219210   2.256   1.714   5.109
 6425TIP3    H119211   2.168   1.717   5.072
 6425TIP3    H219212   2.285   1.624   5.095
 6426TIP3   OH219213   2.507   1.715   4.806
 6426TIP3    H119214   2.602   1.726   4.796
 6426TIP3    H219215   2.472   1.733   4.718
 6427TIP3   OH219216   3.305   1.718   5.306
 6427TIP3    H119217   3.286   1.734   5.398
 6427TIP3    H219218   3.239   1.655   5.278
 6428TIP3   OH219219   2.394   1.740   4.557
 6428TIP3    H119220   2.331   1.692   4.503
 6428TIP3    H219221   2.449   1.787   4.493
 6429TIP3   OH219222   3.504   3.423   5.530
 6429TIP3    H119223   3.501   3.439   5.435
 6429TIP3    H219224   3.582   3.470   5.559
 6430TIP3   OH219225   2.444   2.542   5.940
 6430TIP3    H119226   2.526   2.559   5.987
 6430TIP3    H219227   2.377   2.548   6.007
 6431TIP3   OH219228   2.907   2.002   5.208
 6431TIP3    H119229   2.975   1.954   5.161
 6431TIP3    H219230   2.905   1.961   5.295
 6432TIP3   OH219231   2.397   1.465   5.102
 6432TIP3    H119232   2.368   1.390   5.154
 6432TIP3    H219233   2.430   1.426   5.021
 6433TIP3   OH219234   2.882   1.906   5.472
 6433TIP3    H119235   2.794   1.936   5.498
 6433TIP3    H219236   2.942   1.956   5.528
 6434TIP3   OH219237   2.618   2.259   4.577
 6434TIP3    H119238   2.543   2.204   4.554
 6434TIP3    H219239   2.593   2.301   4.659
 6435TIP3   OH219240   3.508   2.513   5.192
 6435TIP3    H119241   3.545   2.562   5.119
 6435TIP3    H219242   3.429   2.473   5.157
 6436TIP3   OH219243   3.072   1.580   4.475
 6436TIP3    H119244   2.979   1.559   4.480
 6436TIP3    H219245   3.077   1.673   4.497
 6437TIP3   OH219246   3.023   2.596   5.604
 6437TIP3    H119247   3.078   2.584   5.681
 6437TIP3    H219248   2.987   2.684   5.613
 6438TIP3   OH219249   3.139   1.837   4.561
 6438TIP3    H119250   3.233   1.840   4.574
 6438TIP3    H219251   3.119   1.917   4.511
 6439TIP3   OH219252   2.301   2.265   5.233
 6439TIP3    H119253   2.341   2.250   5.147
 6439TIP3    H219254   2.368   2.239   5.296
 6440TIP3   OH219255   2.772   2.420   4.415
 6440TIP3    H119256   2.723   2.502   4.416
 6440TIP3    H219257   2.721   2.360   4.469
 6441TIP3   OH219258   2.190   2.215   5.873
 6441TIP3    H119259   2.205   2.194   5.965
 6441TIP3    H219260   2.118   2.157   5.847
 6442TIP3   OH219261   2.938   2.343   5.885
 6442TIP3    H119262   2.873   2.290   5.838
 6442TIP3    H219263   3.022   2.303   5.863
 6443TIP3   OH219264   3.168   2.884   5.489
 6443TIP3    H119265   3.074   2.872   5.492
 6443TIP3    H219266   3.191   2.922   5.574
 6444TIP3   OH219267   3.551   1.924   4.377
 6444TIP3    H119268   3.494   1.879   4.315
 6444TIP3    H219269   3.559   2.013   4.343
 6445TIP3   OH219270   3.805   2.795   5.462
 6445TIP3    H119271   3.710   2.781   5.454
 6445TIP3    H219272   3.840   2.767   5.378
 6446TIP3   OH219273   3.283   2.742   4.313
 6446TIP3    H119274   3.267   2.675   4.378
 6446TIP3    H219275   3.308   2.694   4.234
 6447TIP3   OH219276   3.277   2.380   5.089
 6447TIP3    H119277   3.187   2.358   5.114
 6447TIP3    H219278   3.312   2.298   5.053
 6448TIP3   OH219279   2.435   2.615   4.902
 6448TIP3    H119280   2.432   2.691   4.844
 6448TIP3    H219281   2.346   2.608   4.937
 6449TIP3   OH219282   1.989   1.898   4.615
 6449TIP3    H119283   2.033   1.980   4.637
 6449TIP3    H219284   1.909   1.899   4.668
 6450TIP3   OH219285   2.514   2.370   4.801
 6450TIP3    H119286   2.500   2.459   4.833
 6450TIP3    H219287   2.491   2.314   4.876
 6451TIP3   OH219288   2.714   2.940   5.357
 6451TIP3    H119289   2.749   3.014   5.308
 6451TIP3    H219290   2.789   2.907   5.407
 6452TIP3   OH219291   2.347   2.837   4.750
 6452TIP3    H119292   2.260   2.844   4.791
 6452TIP3    H219293   2.383   2.925   4.756
 6453TIP3   OH219294   3.064   2.602   5.330
 6453TIP3    H119295   3.050   2.597   5.424
 6453TIP3    H219296   3.146   2.554   5.315
 6454TIP3   OH219297   3.051   2.476   4.217
 6454TIP3    H119298   3.117   2.451   4.281
 6454TIP3    H219299   2.968   2.455   4.258
 6455TIP3   OH219300   3.323   3.093   5.373
 6455TIP3    H119301   3.253   3.030   5.392
 6455TIP3    H219302   3.289   3.146   5.301
 6456TIP3   OH219303   3.356   2.919   4.016
 6456TIP3    H119304   3.412   2.979   3.966
 6456TIP3    H219305   3.285   2.974   4.049
 6457TIP3   OH219306   2.404   1.717   5.873
 6457TIP3    H119307   2.308   1.721   5.877
 6457TIP3    H219308   2.429   1.659   5.945
 6458TIP3   OH219309   3.240   2.389   4.393
 6458TIP3    H119310   3.224   2.336   4.471
 6458TIP3    H219311   3.335   2.399   4.388
 6459TIP3   OH219312   2.137   2.838   5.520
 6459TIP3    H119313   2.189   2.778   5.574
 6459TIP3    H219314   2.154   2.924   5.558
 6460TIP3   OH219315   2.402   2.447   4.215
 6460TIP3    H119316   2.419   2.356   4.189
 6460TIP3    H219317   2.391   2.443   4.310
 6461TIP3   OH219318   2.351   2.459   4.488
 6461TIP3    H119319   2.415   2.432   4.554
 6461TIP3    H219320   2.350   2.554   4.493
 6462TIP3   OH219321   2.084   2.148   4.697
 6462TIP3    H119322   2.020   2.197   4.749
 6462TIP3    H219323   2.105   2.207   4.624
 6463TIP3   OH219324   3.246   1.778   5.568
 6463TIP3    H119325   3.323   1.825   5.599
 6463TIP3    H219326   3.240   1.702   5.626
 6464TIP3   OH219327   3.138   1.526   4.749
 6464TIP3    H119328   3.119   1.547   4.658
 6464TIP3    H219329   3.182   1.604   4.783
 6465TIP3   OH219330   2.619   2.642   4.417
 6465TIP3    H119331   2.536   2.666   4.458
 6465TIP3    H219332   2.645   2.721   4.368
 6466TIP3   OH219333   2.786   1.725   4.849
 6466TIP3    H119334   2.849   1.792   4.824
 6466TIP3    H219335   2.809   1.703   4.939
 6467TIP3   OH219336   3.088   2.017   5.627
 6467TIP3    H119337   3.115   2.060   5.708
 6467TIP3    H219338   3.137   1.935   5.625
 6468TIP3   OH219339   2.956   1.421   4.933
 6468TIP3    H119340   2.935   1.497   4.986
 6468TIP3    H219341   3.025   1.451   4.874
 6469TIP3   OH219342   2.370   2.731   4.499
 6469TIP3    H119343   2.350   2.802   4.438
 6469TIP3    H219344   2.361   2.771   4.585
 6470TIP3   OH219345   2.467   1.442   4.740
 6470TIP3    H119346   2.455   1.532   4.772
 6470TIP3    H219347   2.561   1.426   4.748
 6471TIP3   OH219348   3.702   1.922   5.625
 6471TIP3    H119349   3.607   1.928   5.632
 6471TIP3    H219350   3.717   1.872   5.545
 6472TIP3   OH219351   3.368   2.121   5.003
 6472TIP3    H119352   3.292   2.064   5.016
 6472TIP3    H219353   3.437   2.083   5.057
 6473TIP3   OH219354   2.106   2.327   4.480
 6473TIP3    H119355   2.178   2.389   4.491
 6473TIP3    H219356   2.139   2.264   4.416
 6474TIP3   OH219357   2.010   1.619   4.610
 6474TIP3    H119358   2.025   1.713   4.619
 6474TIP3    H219359   1.947   1.611   4.539
 6475TIP3   OH219360   3.347   3.095   4.941
 6475TIP3    H119361   3.307   3.146   4.871
 6475TIP3    H219362   3.441   3.105   4.928
 6476TIP3   OH219363   2.410   1.342   5.485
 6476TIP3    H119364   2.380   1.306   5.401
 6476TIP3    H219365   2.402   1.268   5.545
 6477TIP3   OH219366   1.938   2.592   4.878
 6477TIP3    H119367   1.899   2.631   4.956
 6477TIP3    H219368   1.895   2.637   4.805
 6478TIP3   OH219369   2.145   3.139   5.943
 6478TIP3    H119370   2.227   3.147   5.993
 6478TIP3    H219371   2.137   3.046   5.925
 6479TIP3   OH219372   2.605   3.042   5.981
 6479TIP3    H119373   2.696   3.014   5.990
 6479TIP3    H219374   2.571   2.989   5.909
 6480TIP3   OH219375   2.562   2.640   4.097
 6480TIP3    H119376   2.514   2.574   4.147
 6480TIP3    H219377   2.641   2.594   4.067
 6481TIP3   OH219378   3.222   2.986   5.737
 6481TIP3    H119379   3.235   2.915   5.800
 6481TIP3    H219380   3.298   3.043   5.751
 6482TIP3   OH219381   3.010   2.677   4.029
 6482TIP3    H119382   3.042   2.616   4.096
 6482TIP3    H219383   3.077   2.677   3.962
 6483TIP3   OH219384   2.240   2.534   6.130
 6483TIP3    H119385   2.262   2.441   6.141
 6483TIP3    H219386   2.153   2.534   6.091
 6484TIP3   OH219387   2.231   2.137   4.328
 6484TIP3    H119388   2.282   2.114   4.406
 6484TIP3    H219389   2.297   2.153   4.260
 6485TIP3   OH219390   2.863   2.617   5.909
 6485TIP3    H119391   2.820   2.638   5.826
 6485TIP3    H219392   2.902   2.531   5.894
 6486TIP3   OH219393   2.749   2.366   4.144
 6486TIP3    H119394   2.752   2.378   4.239
 6486TIP3    H219395   2.749   2.271   4.132
 6487TIP3   OH219396   3.336   2.659   5.522
 6487TIP3    H119397   3.415   2.686   5.474
 6487TIP3    H219398   3.273   2.729   5.506
 6488TIP3   OH219399   2.356   2.278   6.131
 6488TIP3    H119400   2.433   2.261   6.076
 6488TIP3    H219401   2.391   2.296   6.218
 6489TIP3   OH219402   2.406   2.082   4.540
 6489TIP3    H119403   2.386   2.055   4.629
 6489TIP3    H219404   2.454   2.008   4.502
 6490TIP3   OH219405   2.696   2.139   5.784
 6490TIP3    H119406   2.623   2.198   5.801
 6490TIP3    H219407   2.741   2.178   5.709
 6491TIP3   OH219408   2.545   1.895   4.387
 6491TIP3    H119409   2.514   1.902   4.297
 6491TIP3    H219410   2.640   1.905   4.381
 6492TIP3   OH219411   3.220   2.533   5.876
 6492TIP3    H119412   3.292   2.499   5.823
 6492TIP3    H219413   3.219   2.478   5.954
 6493TIP3   OH219414   3.333   2.182   4.072
 6493TIP3    H119415   3.324   2.141   3.986
 6493TIP3    H219416   3.304   2.272   4.059
 6494TIP3   OH219417   2.820   1.927   5.905
 6494TIP3    H119418   2.828   1.855   5.843
 6494TIP3    H219419   2.781   1.998   5.854
 6495TIP3   OH219420   2.833   1.730   5.701
 6495TIP3    H119421   2.861   1.765   5.617
 6495TIP3    H219422   2.742   1.702   5.686
 6496TIP3   OH219423   2.837   2.266   5.590
 6496TIP3    H119424   2.927   2.291   5.568
 6496TIP3    H219425   2.783   2.323   5.535
 6497TIP3   OH219426   3.434   2.210   5.952
 6497TIP3    H119427   3.472   2.123   5.964
 6497TIP3    H219428   3.509   2.267   5.937
 6498TIP3   OH219429   3.462   2.483   5.687
 6498TIP3    H119430   3.410   2.544   5.636
 6498TIP3    H219431   3.552   2.497   5.657
 6499TIP3   OH219432   2.706   2.013   6.146
 6499TIP3    H119433   2.638   1.949   6.167
 6499TIP3    H219434   2.736   1.988   6.059
 6500TIP3   OH219435   2.956   1.497   5.799
 6500TIP3    H119436   2.914   1.577   5.768
 6500TIP3    H219437   2.890   1.429   5.787
 6501TIP3   OH219438   3.078   1.973   6.004
 6501TIP3    H119439   3.073   1.959   6.099
 6501TIP3    H219440   2.991   1.950   5.972
 6502TIP3   OH219441   3.322   1.924   5.872
 6502TIP3    H119442   3.244   1.924   5.928
 6502TIP3    H219443   3.393   1.899   5.931
 6503TIP3   OH219444   3.551   1.885   6.025
 6503TIP3    H119445   3.571   1.792   6.031
 6503TIP3    H219446   3.550   1.915   6.116
 6504TIP3   OH219447   2.541   1.792   6.211
 6504TIP3    H119448   2.549   1.704   6.174
 6504TIP3    H219449   2.580   1.784   6.299
 6505TIP3   OH219450   3.022   1.479   6.066
 6505TIP3    H119451   3.090   1.411   6.063
 6505TIP3    H219452   2.993   1.488   5.975
 6506TIP3   OH219453   3.117   1.694   6.209
 6506TIP3    H119454   3.087   1.621   6.155
 6506TIP3    H219455   3.042   1.754   6.211
 6507TIP3   OH219456   2.364   2.935   4.311
 6507TIP3    H119457   2.454   2.916   4.287
 6507TIP3    H219458   2.330   2.987   4.238
 6508TIP3   OH219459   1.832   2.324   4.492
 6508TIP3    H119460   1.927   2.335   4.491
 6508TIP3    H219461   1.818   2.237   4.454
 6509TIP3   OH219462   1.738   2.902   4.956
 6509TIP3    H119463   1.672   2.849   4.912
 6509TIP3    H219464   1.782   2.840   5.015
 6510TIP3   OH219465   1.883   2.735   5.124
 6510TIP3    H119466   1.876   2.668   5.192
 6510TIP3    H219467   1.933   2.805   5.164
 6511TIP3   OH219468   3.619   3.138   4.932
 6511TIP3    H119469   3.643   3.171   5.019
 6511TIP3    H219470   3.675   3.187   4.872
 6512TIP3   OH219471   3.640   3.175   5.215
 6512TIP3    H119472   3.593   3.093   5.207
 6512TIP3    H219473   3.710   3.157   5.278
 6513TIP3   OH219474   3.689   2.879   5.788
 6513TIP3    H119475   3.618   2.887   5.852
 6513TIP3    H219476   3.735   2.962   5.791
 6514TIP3   OH219477   3.517   2.390   4.397
 6514TIP3    H119478   3.574   2.462   4.368
 6514TIP3    H219479   3.563   2.352   4.472
 6515TIP3   OH219480   3.645   2.247   4.598
 6515TIP3    H119481   3.578   2.212   4.656
 6515TIP3    H219482   3.710   2.286   4.656
 6516TIP3   OH219483   3.686   2.652   5.030
 6516TIP3    H119484   3.739   2.584   4.990
 6516TIP3    H219485   3.690   2.725   4.967
 6517TIP3   OH219486   3.495   2.939   5.217
 6517TIP3    H119487   3.429   2.983   5.270
 6517TIP3    H219488   3.446   2.898   5.146
 6518TIP3   OH219489   3.547   2.164   4.243
 6518TIP3    H119490   3.472   2.166   4.183
 6518TIP3    H219491   3.536   2.243   4.297
 6519TIP3   OH219492   3.395   1.809   4.182
 6519TIP3    H119493   3.352   1.841   4.103
 6519TIP3    H219494   3.390   1.713   4.175
 6520TIP3   OH219495   3.438   2.112   4.734
 6520TIP3    H119496   3.446   2.017   4.723
 6520TIP3    H219497   3.419   2.123   4.828
 6521TIP3   OH219498   2.057   2.175   5.508
 6521TIP3    H119499   2.049   2.142   5.418
 6521TIP3    H219500   2.151   2.170   5.527
 6522TIP3   OH219501   3.721   2.531   5.595
 6522TIP3    H119502   3.786   2.462   5.581
 6522TIP3    H219503   3.744   2.599   5.532
 6523TIP3   OH219504   3.894   2.319   5.587
 6523TIP3    H119505   3.820   2.279   5.632
 6523TIP3    H219506   3.968   2.261   5.606
 6524TIP3   OH219507   3.363   1.535   4.162
 6524TIP3    H119508   3.427   1.508   4.228
 6524TIP3    H219509   3.280   1.499   4.193
 6525TIP3   OH219510   3.428   1.831   4.617
 6525TIP3    H119511   3.475   1.749   4.630
 6525TIP3    H219512   3.470   1.871   4.541
 6526TIP3   OH219513   3.583   2.000   5.141
 6526TIP3    H119514   3.664   2.017   5.093
 6526TIP3    H219515   3.598   2.038   5.227
 6527TIP3   OH219516   3.656   2.147   5.371
 6527TIP3    H119517   3.585   2.177   5.427
 6527TIP3    H219518   3.689   2.226   5.329
 6528TIP3   OH219519   2.279   1.854   6.144
 6528TIP3    H119520   2.373   1.850   6.162
 6528TIP3    H219521   2.244   1.771   6.178
 6529TIP3   OH219522   4.121   1.742   5.905
 6529TIP3    H119523   4.177   1.678   5.860
 6529TIP3    H219524   4.089   1.799   5.835
 6530TIP3   OH219525   3.545   1.583   4.668
 6530TIP3    H119526   3.591   1.569   4.751
 6530TIP3    H219527   3.484   1.510   4.663
 6531TIP3   OH219528   2.248   1.567   5.505
 6531TIP3    H119529   2.301   1.488   5.510
 6531TIP3    H219530   2.310   1.638   5.486
 6532TIP3   OH219531   2.028   1.832   5.553
 6532TIP3    H119532   2.081   1.825   5.474
 6532TIP3    H219533   2.063   1.907   5.600
 6533TIP3   OH219534   3.956   1.856   5.715
 6533TIP3    H119535   3.868   1.894   5.719
 6533TIP3    H219536   3.945   1.777   5.661
 6534TIP3   OH219537   3.604   1.488   4.300
 6534TIP3    H119538   3.662   1.428   4.253
 6534TIP3    H219539   3.654   1.569   4.307
 6535TIP3   OH219540   2.020   1.332   5.057
 6535TIP3    H119541   1.936   1.324   5.101
 6535TIP3    H219542   2.004   1.390   4.983
 6536TIP3   OH219543   3.170   3.061   4.572
 6536TIP3    H119544   3.227   3.051   4.496
 6536TIP3    H219545   3.214   3.126   4.627
 6537TIP3   OH219546   2.254   1.426   5.894
 6537TIP3    H119547   2.199   1.399   5.968
 6537TIP3    H219548   2.192   1.459   5.829
 6538TIP3   OH219549   2.265   2.861   5.950
 6538TIP3    H119550   2.174   2.834   5.945
 6538TIP3    H219551   2.289   2.846   6.042
 6539TIP3   OH219552   2.486   2.897   5.505
 6539TIP3    H119553   2.434   2.971   5.472
 6539TIP3    H219554   2.571   2.907   5.463
 6540TIP3   OH219555   2.884   3.132   5.645
 6540TIP3    H119556   2.925   3.125   5.731
 6540TIP3    H219557   2.944   3.187   5.595
 6541TIP3   OH219558   3.070   3.289   5.513
 6541TIP3    H119559   3.130   3.234   5.463
 6541TIP3    H219560   3.128   3.343   5.568
 6542TIP3   OH219561   3.882   1.615   5.598
 6542TIP3    H119562   3.796   1.609   5.556
 6542TIP3    H219563   3.916   1.525   5.596
 6543TIP3   OH219564   2.147   3.134   5.559
 6543TIP3    H119565   2.057   3.155   5.535
 6543TIP3    H219566   2.172   3.203   5.621
 6544TIP3   OH219567   2.375   3.125   5.402
 6544TIP3    H119568   2.292   3.132   5.449
 6544TIP3    H219569   2.354   3.153   5.313
 6545TIP3   OH219570   2.790   3.152   5.194
 6545TIP3    H119571   2.719   3.160   5.130
 6545TIP3    H219572   2.800   3.241   5.229
 6546TIP3   OH219573   3.051   3.082   5.250
 6546TIP3    H119574   2.961   3.104   5.227
 6546TIP3    H219575   3.104   3.146   5.203
 6547TIP3   OH219576   3.253   3.248   5.151
 6547TIP3    H119577   3.244   3.336   5.115
 6547TIP3    H219578   3.284   3.195   5.077
 6548TIP3   OH219579   2.054   2.917   5.268
 6548TIP3    H119580   2.080   2.895   5.357
 6548TIP3    H219581   2.126   2.885   5.214
 6549TIP3   OH219582   2.259   2.801   5.131
 6549TIP3    H119583   2.271   2.717   5.174
 6549TIP3    H219584   2.345   2.843   5.136
 6550TIP3   OH219585   2.526   2.885   5.157
 6550TIP3    H119586   2.547   2.793   5.143
 6550TIP3    H219587   2.582   2.912   5.230
 6551TIP3   OH219588   3.083   1.533   5.235
 6551TIP3    H119589   3.046   1.462   5.288
 6551TIP3    H219590   3.153   1.491   5.185
 6552TIP3   OH219591   3.592   1.450   5.125
 6552TIP3    H119592   3.629   1.500   5.052
 6552TIP3    H219593   3.501   1.479   5.130
 6553TIP3   OH219594   3.704   1.533   4.889
 6553TIP3    H119595   3.773   1.473   4.864
 6553TIP3    H219596   3.743   1.620   4.878
 6554TIP3   OH219597   2.322   1.236   5.243
 6554TIP3    H119598   2.234   1.199   5.252
 6554TIP3    H219599   2.379   1.159   5.236
 6555TIP3   OH219600   2.125   1.134   4.881
 6555TIP3    H119601   2.162   1.185   4.808
 6555TIP3    H219602   2.098   1.200   4.945
 6556TIP3   OH219603   2.804   1.281   5.132
 6556TIP3    H119604   2.856   1.327   5.066
 6556TIP3    H219605   2.845   1.306   5.215
 6557TIP3   OH219606   3.301   1.417   5.109
 6557TIP3    H119607   3.326   1.381   5.024
 6557TIP3    H219608   3.307   1.343   5.170
 6558TIP3   OH219609   3.360   1.373   4.671
 6558TIP3    H119610   3.280   1.419   4.696
 6558TIP3    H219611   3.350   1.286   4.711
 6559TIP3   OH219612   1.821   2.715   4.664
 6559TIP3    H119613   1.737   2.682   4.632
 6559TIP3    H219614   1.826   2.804   4.627
 6560TIP3   OH219615   2.255   1.273   4.657
 6560TIP3    H119616   2.302   1.213   4.600
 6560TIP3    H219617   2.323   1.330   4.693
 6561TIP3   OH219618   2.743   1.472   4.752
 6561TIP3    H119619   2.802   1.420   4.805
 6561TIP3    H219620   2.756   1.562   4.781
 6562TIP3   OH219621   2.622   2.865   4.245
 6562TIP3    H119622   2.707   2.892   4.211
 6562TIP3    H219623   2.593   2.794   4.188
 6563TIP3   OH219624   3.319   3.013   4.343
 6563TIP3    H119625   3.313   2.918   4.336
 6563TIP3    H219626   3.281   3.046   4.262
 6564TIP3   OH219627   2.562   1.521   6.127
 6564TIP3    H119628   2.527   1.455   6.186
 6564TIP3    H219629   2.654   1.528   6.151
 6565TIP3   OH219630   2.808   1.522   6.254
 6565TIP3    H119631   2.885   1.502   6.201
 6565TIP3    H219632   2.805   1.453   6.320
 6566TIP3   OH219633   1.928   2.713   4.307
 6566TIP3    H119634   1.932   2.727   4.401
 6566TIP3    H219635   2.009   2.667   4.286
 6567TIP3   OH219636   3.629   1.618   6.030
 6567TIP3    H119637   3.644   1.589   6.119
 6567TIP3    H219638   3.714   1.612   5.987
 6568TIP3   OH219639   3.543   3.149   5.537
 6568TIP3    H119640   3.469   3.119   5.484
 6568TIP3    H219641   3.530   3.244   5.544
 6569TIP3   OH219642   4.822   2.538   4.274
 6569TIP3    H119643   4.792   2.625   4.249
 6569TIP3    H219644   4.751   2.479   4.250
 6570TIP3   OH219645   4.824   2.528   4.699
 6570TIP3    H119646   4.875   2.509   4.778
 6570TIP3    H219647   4.777   2.446   4.682
 6571TIP3   OH219648   4.115   2.396   5.045
 6571TIP3    H119649   4.153   2.345   5.116
 6571TIP3    H219650   4.191   2.422   4.992
 6572TIP3   OH219651   5.089   2.833   4.374
 6572TIP3    H119652   5.075   2.768   4.443
 6572TIP3    H219653   5.110   2.914   4.420
 6573TIP3   OH219654   4.105   2.813   4.731
 6573TIP3    H119655   4.085   2.719   4.738
 6573TIP3    H219656   4.200   2.817   4.722
 6574TIP3   OH219657   3.792   2.021   4.513
 6574TIP3    H119658   3.755   2.105   4.540
 6574TIP3    H219659   3.719   1.973   4.474
 6575TIP3   OH219660   3.873   2.336   4.737
 6575TIP3    H119661   3.924   2.259   4.764
 6575TIP3    H219662   3.939   2.401   4.716
 6576TIP3   OH219663   4.741   3.276   4.382
 6576TIP3    H119664   4.772   3.208   4.322
 6576TIP3    H219665   4.707   3.229   4.458
 6577TIP3   OH219666   4.627   2.749   4.701
 6577TIP3    H119667   4.672   2.669   4.673
 6577TIP3    H219668   4.697   2.805   4.735
 6578TIP3   OH219669   5.660   2.073   4.723
 6578TIP3    H119670   5.676   2.156   4.769
 6578TIP3    H219671   5.673   2.094   4.631
 6579TIP3   OH219672   5.036   2.238   4.738
 6579TIP3    H119673   5.067   2.152   4.767
 6579TIP3    H219674   4.997   2.222   4.652
 6580TIP3   OH219675   4.389   1.897   4.697
 6580TIP3    H119676   4.366   1.970   4.640
 6580TIP3    H219677   4.332   1.825   4.668
 6581TIP3   OH219678   5.087   1.999   4.335
 6581TIP3    H119679   5.150   1.992   4.406
 6581TIP3    H219680   5.137   2.035   4.262
 6582TIP3   OH219681   4.012   2.114   4.828
 6582TIP3    H119682   4.095   2.095   4.873
 6582TIP3    H219683   4.016   2.062   4.748
 6583TIP3   OH219684   4.432   2.313   4.642
 6583TIP3    H119685   4.526   2.297   4.649
 6583TIP3    H219686   4.397   2.231   4.608
 6584TIP3   OH219687   5.715   2.294   4.887
 6584TIP3    H119688   5.625   2.327   4.880
 6584TIP3    H219689   5.747   2.328   4.970
 6585TIP3   OH219690   4.370   1.899   5.152
 6585TIP3    H119691   4.315   1.935   5.083
 6585TIP3    H219692   4.322   1.917   5.233
 6586TIP3   OH219693   4.720   2.756   4.137
 6586TIP3    H119694   4.679   2.727   4.055
 6586TIP3    H219695   4.667   2.831   4.164
 6587TIP3   OH219696   4.462   2.678   4.914
 6587TIP3    H119697   4.408   2.749   4.948
 6587TIP3    H219698   4.509   2.717   4.841
 6588TIP3   OH219699   5.249   2.016   4.555
 6588TIP3    H119700   5.202   1.995   4.636
 6588TIP3    H219701   5.301   2.093   4.577
 6589TIP3   OH219702   4.259   2.008   4.920
 6589TIP3    H119703   4.314   2.082   4.944
 6589TIP3    H219704   4.307   1.964   4.849
 6590TIP3   OH219705   4.306   2.879   5.021
 6590TIP3    H119706   4.291   2.969   4.992
 6590TIP3    H219707   4.229   2.859   5.074
 6591TIP3   OH219708   3.687   2.581   4.286
 6591TIP3    H119709   3.656   2.595   4.197
 6591TIP3    H219710   3.709   2.668   4.318
 6592TIP3   OH219711   5.131   3.079   4.513
 6592TIP3    H119712   5.046   3.071   4.556
 6592TIP3    H219713   5.127   3.162   4.466
 6593TIP3   OH219714   5.456   1.964   4.889
 6593TIP3    H119715   5.370   1.986   4.852
 6593TIP3    H219716   5.519   1.992   4.823
 6594TIP3   OH219717   4.711   1.593   4.885
 6594TIP3    H119718   4.702   1.501   4.910
 6594TIP3    H219719   4.634   1.636   4.923
 6595TIP3   OH219720   4.834   3.116   4.169
 6595TIP3    H119721   4.884   3.035   4.159
 6595TIP3    H219722   4.895   3.185   4.142
 6596TIP3   OH219723   4.969   2.882   4.129
 6596TIP3    H119724   4.894   2.823   4.129
 6596TIP3    H219725   5.019   2.857   4.207
 6597TIP3   OH219726   5.369   2.967   4.860
 6597TIP3    H119727   5.345   2.895   4.802
 6597TIP3    H219728   5.352   3.046   4.808
 6598TIP3   OH219729   4.648   2.376   4.128
 6598TIP3    H119730   4.565   2.420   4.111
 6598TIP3    H219731   4.693   2.376   4.044
 6599TIP3   OH219732   4.613   2.184   3.817
 6599TIP3    H119733   4.678   2.232   3.868
 6599TIP3    H219734   4.664   2.116   3.772
 6600TIP3   OH219735   5.537   2.634   4.721
 6600TIP3    H119736   5.452   2.678   4.720
 6600TIP3    H219737   5.573   2.649   4.633
 6601TIP3   OH219738   5.006   2.463   4.087
 6601TIP3    H119739   4.952   2.494   4.159
 6601TIP3    H219740   5.090   2.440   4.128
 6602TIP3   OH219741   5.238   2.496   5.032
 6602TIP3    H119742   5.231   2.578   5.080
 6602TIP3    H219743   5.156   2.490   4.982
 6603TIP3   OH219744   4.232   2.446   4.493
 6603TIP3    H119745   4.196   2.386   4.428
 6603TIP3    H219746   4.305   2.398   4.532
 6604TIP3   OH219747   4.369   2.854   4.637
 6604TIP3    H119748   4.345   2.846   4.544
 6604TIP3    H219749   4.458   2.819   4.642
 6605TIP3   OH219750   4.330   2.442   4.866
 6605TIP3    H119751   4.369   2.406   4.786
 6605TIP3    H219752   4.378   2.523   4.882
 6606TIP3   OH219753   4.902   3.073   4.655
 6606TIP3    H119754   4.878   3.155   4.699
 6606TIP3    H219755   4.877   3.004   4.717
 6607TIP3   OH219756   4.504   2.976   5.190
 6607TIP3    H119757   4.443   3.033   5.238
 6607TIP3    H219758   4.448   2.925   5.132
 6608TIP3   OH219759   4.837   2.324   3.919
 6608TIP3    H119760   4.896   2.383   3.966
 6608TIP3    H219761   4.867   2.329   3.828
 6609TIP3   OH219762   4.260   2.531   5.323
 6609TIP3    H119763   4.262   2.623   5.348
 6609TIP3    H219764   4.166   2.510   5.319
 6610TIP3   OH219765   4.586   2.995   4.181
 6610TIP3    H119766   4.667   3.047   4.183
 6610TIP3    H219767   4.523   3.050   4.135
 6611TIP3   OH219768   4.294   3.135   5.277
 6611TIP3    H119769   4.270   3.145   5.185
 6611TIP3    H219770   4.211   3.120   5.323
 6612TIP3   OH219771   5.348   1.553   3.983
 6612TIP3    H119772   5.271   1.573   4.037
 6612TIP3    H219773   5.358   1.630   3.927
 6613TIP3   OH219774   4.106   2.289   4.291
 6613TIP3    H119775   4.029   2.336   4.260
 6613TIP3    H219776   4.073   2.202   4.313
 6614TIP3   OH219777   5.168   2.928   3.532
 6614TIP3    H119778   5.162   3.022   3.513
 6614TIP3    H219779   5.258   2.905   3.509
 6615TIP3   OH219780   3.889   2.693   5.225
 6615TIP3    H119781   3.820   2.674   5.161
 6615TIP3    H219782   3.924   2.607   5.249
 6616TIP3   OH219783   3.734   2.884   4.873
 6616TIP3    H119784   3.827   2.905   4.885
 6616TIP3    H219785   3.688   2.961   4.906
 6617TIP3   OH219786   5.594   3.356   4.923
 6617TIP3    H119787   5.602   3.261   4.930
 6617TIP3    H219788   5.513   3.377   4.970
 6618TIP3   OH219789   4.694   3.119   5.054
 6618TIP3    H119790   4.685   3.210   5.081
 6618TIP3    H219791   4.626   3.073   5.101
 6619TIP3   OH219792   4.474   3.226   4.004
 6619TIP3    H119793   4.422   3.204   3.926
 6619TIP3    H219794   4.435   3.306   4.037
 6620TIP3   OH219795   3.903   3.082   4.384
 6620TIP3    H119796   3.948   3.071   4.468
 6620TIP3    H219797   3.855   3.001   4.372
 6621TIP3   OH219798   4.678   3.155   3.633
 6621TIP3    H119799   4.728   3.081   3.598
 6621TIP3    H219800   4.713   3.168   3.721
 6622TIP3   OH219801   4.728   3.199   3.905
 6622TIP3    H119802   4.641   3.201   3.943
 6622TIP3    H219803   4.783   3.161   3.974
 6623TIP3   OH219804   5.483   2.445   5.188
 6623TIP3    H119805   5.399   2.458   5.145
 6623TIP3    H219806   5.499   2.351   5.184
 6624TIP3   OH219807   4.091   2.879   5.194
 6624TIP3    H119808   4.141   2.865   5.274
 6624TIP3    H219809   4.018   2.817   5.201
 6625TIP3   OH219810   4.473   1.686   5.005
 6625TIP3    H119811   4.388   1.653   4.973
 6625TIP3    H219812   4.451   1.766   5.053
 6626TIP3   OH219813   5.019   1.804   5.210
 6626TIP3    H119814   5.087   1.783   5.275
 6626TIP3    H219815   4.937   1.795   5.258
 6627TIP3   OH219816   5.239   2.232   5.129
 6627TIP3    H119817   5.196   2.226   5.214
 6627TIP3    H219818   5.219   2.320   5.097
 6628TIP3   OH219819   4.920   2.299   3.657
 6628TIP3    H119820   4.870   2.306   3.575
 6628TIP3    H219821   5.000   2.348   3.641
 6629TIP3   OH219822   4.627   1.723   3.976
 6629TIP3    H119823   4.590   1.732   4.063
 6629TIP3    H219824   4.588   1.643   3.941
 6630TIP3   OH219825   4.411   2.220   5.013
 6630TIP3    H119826   4.365   2.227   5.097
 6630TIP3    H219827   4.388   2.301   4.966
 6631TIP3   OH219828   4.292   2.097   4.536
 6631TIP3    H119829   4.203   2.074   4.562
 6631TIP3    H219830   4.301   2.063   4.447
 6632TIP3   OH219831   4.772   2.172   4.265
 6632TIP3    H119832   4.724   2.245   4.225
 6632TIP3    H219833   4.829   2.140   4.195
 6633TIP3   OH219834   4.954   2.440   5.341
 6633TIP3    H119835   4.929   2.373   5.404
 6633TIP3    H219836   5.047   2.456   5.360
 6634TIP3   OH219837   4.942   2.186   4.487
 6634TIP3    H119838   4.872   2.208   4.425
 6634TIP3    H219839   4.987   2.113   4.446
 6635TIP3   OH219840   4.250   2.238   5.234
 6635TIP3    H119841   4.269   2.299   5.305
 6635TIP3    H219842   4.234   2.154   5.278
 6636TIP3   OH219843   4.293   1.711   3.950
 6636TIP3    H119844   4.283   1.712   4.046
 6636TIP3    H219845   4.216   1.757   3.918
 6637TIP3   OH219846   3.835   1.756   4.816
 6637TIP3    H119847   3.908   1.791   4.868
 6637TIP3    H219848   3.874   1.736   4.731
 6638TIP3   OH219849   3.742   1.729   4.322
 6638TIP3    H119850   3.792   1.767   4.250
 6638TIP3    H219851   3.678   1.795   4.345
 6639TIP3   OH219852   4.987   2.439   4.913
 6639TIP3    H119853   5.011   2.371   4.850
 6639TIP3    H219854   4.943   2.391   4.984
 6640TIP3   OH219855   4.655   1.888   4.589
 6640TIP3    H119856   4.576   1.888   4.643
 6640TIP3    H219857   4.727   1.880   4.652
 6641TIP3   OH219858   4.053   1.973   4.595
 6641TIP3    H119859   3.964   1.977   4.559
 6641TIP3    H219860   4.080   1.883   4.581
 6642TIP3   OH219861   4.307   1.973   4.290
 6642TIP3    H119862   4.401   1.985   4.280
 6642TIP3    H219863   4.270   1.993   4.204
 6643TIP3   OH219864   5.105   1.974   4.791
 6643TIP3    H119865   5.092   1.989   4.885
 6643TIP3    H219866   5.034   1.915   4.766
 6644TIP3   OH219867   4.195   2.002   4.042
 6644TIP3    H119868   4.131   1.953   3.991
 6644TIP3    H219869   4.248   2.047   3.976
 6645TIP3   OH219870   5.302   3.680   5.019
 6645TIP3    H119871   5.298   3.697   4.925
 6645TIP3    H219872   5.380   3.728   5.049
 6646TIP3   OH219873   4.245   2.795   5.426
 6646TIP3    H119874   4.325   2.812   5.474
 6646TIP3    H219875   4.175   2.800   5.491
 6647TIP3   OH219876   4.705   2.260   4.696
 6647TIP3    H119877   4.770   2.207   4.650
 6647TIP3    H219878   4.701   2.223   4.784
 6648TIP3   OH219879   4.195   1.724   4.583
 6648TIP3    H119880   4.166   1.649   4.635
 6648TIP3    H219881   4.215   1.687   4.497
 6649TIP3   OH219882   4.678   2.169   4.960
 6649TIP3    H119883   4.590   2.198   4.984
 6649TIP3    H219884   4.737   2.221   5.015
 6650TIP3   OH219885   4.411   2.510   4.074
 6650TIP3    H119886   4.335   2.457   4.049
 6650TIP3    H219887   4.385   2.553   4.156
 6651TIP3   OH219888   5.302   2.770   4.680
 6651TIP3    H119889   5.334   2.821   4.605
 6651TIP3    H219890   5.221   2.729   4.647
 6652TIP3   OH219891   4.878   1.830   3.979
 6652TIP3    H119892   4.785   1.807   3.976
 6652TIP3    H219893   4.879   1.924   3.992
 6653TIP3   OH219894   4.821   2.854   5.094
 6653TIP3    H119895   4.865   2.844   5.179
 6653TIP3    H219896   4.778   2.940   5.100
 6654TIP3   OH219897   4.935   2.095   4.048
 6654TIP3    H119898   5.030   2.101   4.058
 6654TIP3    H219899   4.911   2.173   3.997
 6655TIP3   OH219900   4.096   2.522   4.722
 6655TIP3    H119901   4.135   2.507   4.636
 6655TIP3    H219902   4.163   2.494   4.784
 6656TIP3   OH219903   4.562   2.675   3.917
 6656TIP3    H119904   4.515   2.759   3.914
 6656TIP3    H219905   4.506   2.618   3.970
 6657TIP3   OH219906   3.986   2.464   5.356
 6657TIP3    H119907   3.995   2.443   5.449
 6657TIP3    H219908   3.912   2.411   5.327
 6658TIP3   OH219909   4.721   2.594   5.377
 6658TIP3    H119910   4.650   2.534   5.352
 6658TIP3    H219911   4.801   2.549   5.349
 6659TIP3   OH219912   4.967   3.139   4.980
 6659TIP3    H119913   4.872   3.125   4.983
 6659TIP3    H219914   4.989   3.175   5.066
 6660TIP3   OH219915   5.353   2.182   3.864
 6660TIP3    H119916   5.297   2.136   3.802
 6660TIP3    H219917   5.357   2.272   3.831
 6661TIP3   OH219918   5.612   3.080   4.941
 6661TIP3    H119919   5.520   3.053   4.949
 6661TIP3    H219920   5.641   3.040   4.859
 6662TIP3   OH219921   5.096   2.996   3.800
 6662TIP3    H119922   5.061   2.930   3.860
 6662TIP3    H219923   5.108   2.950   3.717
 6663TIP3   OH219924   5.074   2.633   4.579
 6663TIP3    H119925   4.984   2.611   4.605
 6663TIP3    H219926   5.107   2.552   4.540
 6664TIP3   OH219927   4.224   2.868   4.394
 6664TIP3    H119928   4.219   2.944   4.335
 6664TIP3    H219929   4.135   2.859   4.429
 6665TIP3   OH219930   3.778   2.159   4.092
 6665TIP3    H119931   3.823   2.240   4.115
 6665TIP3    H219932   3.700   2.158   4.147
 6666TIP3   OH219933   4.314   2.627   4.297
 6666TIP3    H119934   4.294   2.716   4.326
 6666TIP3    H219935   4.287   2.571   4.370
 6667TIP3   OH219936   4.510   3.190   4.845
 6667TIP3    H119937   4.543   3.262   4.792
 6667TIP3    H219938   4.586   3.160   4.895
 6668TIP3   OH219939   4.141   3.088   4.242
 6668TIP3    H119940   4.053   3.100   4.278
 6668TIP3    H219941   4.181   3.174   4.246
 6669TIP3   OH219942   4.858   2.852   4.821
 6669TIP3    H119943   4.846   2.850   4.916
 6669TIP3    H219944   4.934   2.797   4.805
 6670TIP3   OH219945   4.856   2.734   3.682
 6670TIP3    H119946   4.905   2.704   3.758
 6670TIP3    H219947   4.770   2.691   3.690
 6671TIP3   OH219948   5.120   3.348   4.859
 6671TIP3    H119949   5.049   3.287   4.879
 6671TIP3    H219950   5.085   3.402   4.788
 6672TIP3   OH219951   5.162   3.202   3.489
 6672TIP3    H119952   5.168   3.259   3.413
 6672TIP3    H219953   5.093   3.241   3.543
 6673TIP3   OH219954   4.215   1.993   5.362
 6673TIP3    H119955   4.122   1.983   5.385
 6673TIP3    H219956   4.261   1.995   5.446
 6674TIP3   OH219957   5.029   2.640   3.872
 6674TIP3    H119958   5.014   2.591   3.952
 6674TIP3    H219959   5.124   2.651   3.868
 6675TIP3   OH219960   3.936   3.091   5.005
 6675TIP3    H119961   3.989   3.034   5.060
 6675TIP3    H219962   3.950   3.179   5.041
 6676TIP3   OH219963   4.213   2.701   3.701
 6676TIP3    H119964   4.222   2.609   3.676
 6676TIP3    H219965   4.195   2.698   3.795
 6677TIP3   OH219966   4.149   2.717   3.971
 6677TIP3    H119967   4.209   2.692   4.041
 6677TIP3    H219968   4.146   2.813   3.975
 6678TIP3   OH219969   3.879   2.406   4.180
 6678TIP3    H119970   3.817   2.453   4.235
 6678TIP3    H219971   3.896   2.466   4.107
 6679TIP3   OH219972   5.062   2.027   5.054
 6679TIP3    H119973   5.131   2.079   5.095
 6679TIP3    H219974   5.047   1.954   5.113
 6680TIP3   OH219975   4.938   1.781   4.248
 6680TIP3    H119976   4.915   1.799   4.157
 6680TIP3    H219977   4.980   1.861   4.279
 6681TIP3   OH219978   4.420   2.906   3.910
 6681TIP3    H119979   4.335   2.928   3.947
 6681TIP3    H219980   4.441   2.980   3.853
 6682TIP3   OH219981   4.587   1.980   4.335
 6682TIP3    H119982   4.648   2.049   4.310
 6682TIP3    H219983   4.608   1.961   4.427
 6683TIP3   OH219984   4.887   2.281   5.115
 6683TIP3    H119985   4.903   2.328   5.196
 6683TIP3    H219986   4.930   2.196   5.128
 6684TIP3   OH219987   4.750   1.680   4.426
 6684TIP3    H119988   4.725   1.757   4.477
 6684TIP3    H219989   4.818   1.711   4.366
 6685TIP3   OH219990   4.169   2.989   3.988
 6685TIP3    H119991   4.149   3.060   3.927
 6685TIP3    H219992   4.155   3.026   4.075
 6686TIP3   OH219993   4.264   1.701   4.229
 6686TIP3    H119994   4.252   1.791   4.258
 6686TIP3    H219995   4.358   1.685   4.236
 6687TIP3   OH219996   5.499   2.165   5.097
 6687TIP3    H119997   5.406   2.181   5.113
 6687TIP3    H219998   5.500   2.103   5.024
 6688TIP3   OH219999   5.165   2.375   4.487
 6688TIP3    H120000   5.086   2.321   4.499
 6688TIP3    H220001   5.230   2.334   4.545
 6689TIP3   OH220002   3.902   2.587   3.967
 6689TIP3    H120003   3.972   2.652   3.974
 6689TIP3    H220004   3.933   2.526   3.900
 6690TIP3   OH220005   3.823   1.884   4.112
 6690TIP3    H120006   3.822   1.980   4.111
 6690TIP3    H220007   3.798   1.858   4.024
 6691TIP3   OH220008   5.150   3.345   4.429
 6691TIP3    H120009   5.110   3.396   4.358
 6691TIP3    H220010   5.244   3.357   4.417
 6692TIP3   OH220011   4.212   1.600   4.964
 6692TIP3    H120012   4.182   1.567   4.879
 6692TIP3    H220013   4.204   1.525   5.023
 6693TIP3   OH220014   3.733   2.852   4.365
 6693TIP3    H120015   3.696   2.889   4.445
 6693TIP3    H220016   3.686   2.895   4.294
 6694TIP3   OH220017   3.932   3.389   5.436
 6694TIP3    H120018   4.016   3.394   5.483
 6694TIP3    H220019   3.917   3.295   5.425
 6695TIP3   OH220020   4.402   3.299   5.471
 6695TIP3    H120021   4.493   3.271   5.479
 6695TIP3    H220022   4.367   3.245   5.400
 6696TIP3   OH220023   4.363   2.901   3.586
 6696TIP3    H120024   4.316   2.832   3.633
 6696TIP3    H220025   4.438   2.856   3.546
 6697TIP3   OH220026   5.023   3.239   5.229
 6697TIP3    H120027   5.038   3.170   5.294
 6697TIP3    H220028   5.096   3.299   5.242
 6698TIP3   OH220029   4.804   2.943   3.512
 6698TIP3    H120030   4.837   2.877   3.573
 6698TIP3    H220031   4.863   2.938   3.437
 6699TIP3   OH220032   4.037   2.793   5.614
 6699TIP3    H120033   4.061   2.701   5.623
 6699TIP3    H220034   3.950   2.792   5.575
 6700TIP3   OH220035   4.029   2.397   3.813
 6700TIP3    H120036   4.079   2.375   3.892
 6700TIP3    H220037   4.095   2.411   3.746
 6701TIP3   OH220038   4.659   2.871   5.393
 6701TIP3    H120039   4.612   2.891   5.312
 6701TIP3    H220040   4.690   2.781   5.380
 6702TIP3   OH220041   4.603   2.616   3.652
 6702TIP3    H120042   4.577   2.629   3.744
 6702TIP3    H220043   4.582   2.525   3.634
 6703TIP3   OH220044   5.138   2.914   5.011
 6703TIP3    H120045   5.215   2.945   4.962
 6703TIP3    H220046   5.072   2.982   4.996
 6704TIP3   OH220047   4.152   2.541   5.614
 6704TIP3    H120048   4.228   2.507   5.568
 6704TIP3    H220049   4.181   2.551   5.705
 6705TIP3   OH220050   4.201   2.336   4.025
 6705TIP3    H120051   4.180   2.305   4.113
 6705TIP3    H220052   4.247   2.262   3.984
 6706TIP3   OH220053   4.514   2.423   5.277
 6706TIP3    H120054   4.428   2.464   5.286
 6706TIP3    H220055   4.545   2.451   5.191
 6707TIP3   OH220056   4.339   2.151   3.863
 6707TIP3    H120057   4.310   2.156   3.771
 6707TIP3    H220058   4.434   2.160   3.858
 6708TIP3   OH220059   5.015   2.794   5.367
 6708TIP3    H120060   5.080   2.751   5.311
 6708TIP3    H220061   5.009   2.737   5.444
 6709TIP3   OH220062   5.137   2.435   3.547
 6709TIP3    H120063   5.122   2.397   3.460
 6709TIP3    H220064   5.114   2.527   3.537
 6710TIP3   OH220065   4.638   2.200   5.378
 6710TIP3    H120066   4.627   2.121   5.324
 6710TIP3    H220067   4.590   2.268   5.331
 6711TIP3   OH220068   4.629   1.987   5.184
 6711TIP3    H120069   4.652   2.026   5.100
 6711TIP3    H220070   4.537   1.960   5.174
 6712TIP3   OH220071   4.634   2.513   5.050
 6712TIP3    H120072   4.721   2.552   5.043
 6712TIP3    H220073   4.577   2.573   5.003
 6713TIP3   OH220074   5.223   2.472   5.436
 6713TIP3    H120075   5.263   2.385   5.445
 6713TIP3    H220076   5.297   2.531   5.425
 6714TIP3   OH220077   5.254   2.736   5.180
 6714TIP3    H120078   5.201   2.798   5.130
 6714TIP3    H220079   5.344   2.751   5.149
 6715TIP3   OH220080   4.520   2.282   5.623
 6715TIP3    H120081   4.459   2.210   5.638
 6715TIP3    H220082   4.554   2.267   5.535
 6716TIP3   OH220083   4.745   1.746   5.271
 6716TIP3    H120084   4.704   1.829   5.247
 6716TIP3    H220085   4.674   1.682   5.268
 6717TIP3   OH220086   4.882   2.227   5.497
 6717TIP3    H120087   4.866   2.210   5.589
 6717TIP3    H220088   4.798   2.210   5.454
 6718TIP3   OH220089   5.120   2.179   5.363
 6718TIP3    H120090   5.041   2.181   5.417
 6718TIP3    H220091   5.189   2.154   5.424
 6719TIP3   OH220092   5.361   2.151   5.510
 6719TIP3    H120093   5.373   2.056   5.517
 6719TIP3    H220094   5.354   2.181   5.600
 6720TIP3   OH220095   4.889   1.759   5.503
 6720TIP3    H120096   4.932   1.674   5.502
 6720TIP3    H220097   4.823   1.753   5.434
 6721TIP3   OH220098   4.923   1.946   5.699
 6721TIP3    H120099   4.908   1.881   5.631
 6721TIP3    H220100   4.845   2.002   5.697
 6722TIP3   OH220101   4.169   3.197   3.806
 6722TIP3    H120102   4.256   3.179   3.773
 6722TIP3    H220103   4.124   3.242   3.734
 6723TIP3   OH220104   3.629   2.575   4.010
 6723TIP3    H120105   3.719   2.600   3.991
 6723TIP3    H220106   3.615   2.496   3.957
 6724TIP3   OH220107   3.529   3.167   4.444
 6724TIP3    H120108   3.469   3.114   4.393
 6724TIP3    H220109   3.577   3.103   4.498
 6725TIP3   OH220110   3.676   2.994   4.608
 6725TIP3    H120111   3.670   2.927   4.677
 6725TIP3    H220112   3.727   3.064   4.648
 6726TIP3   OH220113   5.419   3.399   4.420
 6726TIP3    H120114   5.437   3.429   4.510
 6726TIP3    H220115   5.474   3.455   4.365
 6727TIP3   OH220116   5.430   3.434   4.700
 6727TIP3    H120117   5.382   3.351   4.696
 6727TIP3    H220118   5.499   3.419   4.764
 6728TIP3   OH220119   5.491   3.133   5.269
 6728TIP3    H120120   5.418   3.141   5.330
 6728TIP3    H220121   5.536   3.217   5.275
 6729TIP3   OH220122   5.310   2.645   3.878
 6729TIP3    H120123   5.365   2.719   3.852
 6729TIP3    H220124   5.354   2.609   3.955
 6730TIP3   OH220125   5.437   2.503   4.083
 6730TIP3    H120126   5.368   2.466   4.138
 6730TIP3    H220127   5.499   2.541   4.144
 6731TIP3   OH220128   5.486   2.912   4.520
 6731TIP3    H120129   5.536   2.843   4.475
 6731TIP3    H220130   5.485   2.985   4.459
 6732TIP3   OH220131   5.294   3.190   4.712
 6732TIP3    H120132   5.225   3.234   4.762
 6732TIP3    H220133   5.248   3.148   4.639
 6733TIP3   OH220134   5.347   2.420   3.725
 6733TIP3    H120135   5.275   2.419   3.662
 6733TIP3    H220136   5.330   2.499   3.778
 6734TIP3   OH220137   5.206   2.067   3.664
 6734TIP3    H120138   5.156   2.109   3.594
 6734TIP3    H220139   5.195   1.973   3.649
 6735TIP3   OH220140   5.234   2.367   4.219
 6735TIP3    H120141   5.236   2.272   4.205
 6735TIP3    H220142   5.214   2.377   4.312
 6736TIP3   OH220143   3.851   2.433   4.993
 6736TIP3    H120144   3.842   2.399   4.904
 6736TIP3    H220145   3.945   2.429   5.011
 6737TIP3   OH220146   5.508   2.783   5.077
 6737TIP3    H120147   5.578   2.720   5.058
 6737TIP3    H220148   5.499   2.833   4.995
 6738TIP3   OH220149   5.693   2.575   5.070
 6738TIP3    H120150   5.619   2.533   5.113
 6738TIP3    H220151   5.768   2.520   5.093
 6739TIP3   OH220152   5.164   1.795   3.637
 6739TIP3    H120153   5.224   1.773   3.708
 6739TIP3    H220154   5.079   1.763   3.667
 6740TIP3   OH220155   5.228   2.090   4.106
 6740TIP3    H120156   5.274   2.007   4.117
 6740TIP3    H220157   5.269   2.129   4.029
 6741TIP3   OH220158   5.380   2.251   4.629
 6741TIP3    H120159   5.461   2.268   4.582
 6741TIP3    H220160   5.392   2.293   4.714
 6742TIP3   OH220161   5.454   2.405   4.854
 6742TIP3    H120162   5.382   2.432   4.910
 6742TIP3    H220163   5.483   2.486   4.812
 6743TIP3   OH220164   4.052   2.101   5.634
 6743TIP3    H120165   4.147   2.096   5.638
 6743TIP3    H220166   4.021   2.024   5.682
 6744TIP3   OH220167   5.919   2.004   5.397
 6744TIP3    H120168   5.982   1.946   5.354
 6744TIP3    H220169   5.880   2.054   5.326
 6745TIP3   OH220170   5.345   1.839   4.154
 6745TIP3    H120171   5.390   1.824   4.237
 6745TIP3    H220172   5.280   1.769   4.149
 6746TIP3   OH220173   4.049   1.824   4.980
 6746TIP3    H120174   4.102   1.745   4.988
 6746TIP3    H220175   4.112   1.894   4.965
 6747TIP3   OH220176   3.827   2.084   5.042
 6747TIP3    H120177   3.879   2.079   4.962
 6747TIP3    H220178   3.863   2.159   5.089
 6748TIP3   OH220179   5.767   2.125   5.205
 6748TIP3    H120180   5.694   2.164   5.252
 6748TIP3    H220181   5.727   2.062   5.146
 6749TIP3   OH220182   5.390   1.752   3.797
 6749TIP3    H120183   5.439   1.692   3.740
 6749TIP3    H220184   5.442   1.832   3.799
 6750TIP3   OH220185   3.818   1.608   4.555
 6750TIP3    H120186   3.733   1.592   4.594
 6750TIP3    H220187   3.799   1.658   4.475
 6751TIP3   OH220188   4.999   3.300   4.066
 6751TIP3    H120189   5.050   3.293   3.985
 6751TIP3    H220190   5.036   3.375   4.112
 6752TIP3   OH220191   4.039   1.632   5.358
 6752TIP3    H120192   3.996   1.638   5.444
 6752TIP3    H220193   3.987   1.690   5.303
 6753TIP3   OH220194   4.068   3.110   5.442
 6753TIP3    H120195   3.975   3.087   5.433
 6753TIP3    H220196   4.087   3.094   5.534
 6754TIP3   OH220197   4.282   3.156   4.996
 6754TIP3    H120198   4.230   3.229   4.963
 6754TIP3    H220199   4.366   3.165   4.952
 6755TIP3   OH220200   4.677   3.386   5.131
 6755TIP3    H120201   4.716   3.380   5.218
 6755TIP3    H220202   4.736   3.442   5.082
 6756TIP3   OH220203   4.863   3.544   5.001
 6756TIP3    H120204   4.921   3.490   4.947
 6756TIP3    H220205   4.921   3.596   5.055
 6757TIP3   OH220206   5.678   1.872   5.089
 6757TIP3    H120207   5.589   1.868   5.053
 6757TIP3    H220208   5.709   1.782   5.086
 6758TIP3   OH220209   3.935   3.386   5.040
 6758TIP3    H120210   3.845   3.408   5.014
 6758TIP3    H220211   3.957   3.453   5.105
 6759TIP3   OH220212   4.172   3.384   4.889
 6759TIP3    H120213   4.087   3.392   4.932
 6759TIP3    H220214   4.155   3.407   4.798
 6760TIP3   OH220215   4.589   3.393   4.673
 6760TIP3    H120216   4.519   3.397   4.607
 6760TIP3    H220217   4.595   3.482   4.707
 6761TIP3   OH220218   4.851   3.337   4.735
 6761TIP3    H120219   4.760   3.353   4.712
 6761TIP3    H220220   4.901   3.400   4.682
 6762TIP3   OH220221   5.057   3.505   4.633
 6762TIP3    H120222   5.060   3.592   4.594
 6762TIP3    H220223   5.085   3.446   4.563
 6763TIP3   OH220224   3.845   3.174   4.756
 6763TIP3    H120225   3.875   3.152   4.845
 6763TIP3    H220226   3.916   3.144   4.699
 6764TIP3   OH220227   4.048   3.055   4.618
 6764TIP3    H120228   4.058   2.970   4.662
 6764TIP3    H220229   4.135   3.095   4.624
 6765TIP3   OH220230   4.316   3.127   4.653
 6765TIP3    H120231   4.336   3.034   4.641
 6765TIP3    H220232   4.373   3.154   4.725
 6766TIP3   OH220233   4.882   1.798   4.730
 6766TIP3    H120234   4.844   1.727   4.782
 6766TIP3    H220235   4.951   1.755   4.678
 6767TIP3   OH220236   5.384   1.709   4.611
 6767TIP3    H120237   5.420   1.760   4.538
 6767TIP3    H220238   5.292   1.733   4.613
 6768TIP3   OH220239   5.505   1.784   4.374
 6768TIP3    H120240   5.576   1.726   4.348
 6768TIP3    H220241   5.541   1.872   4.363
 6769TIP3   OH220242   4.122   1.496   4.724
 6769TIP3    H120243   4.033   1.462   4.734
 6769TIP3    H220244   4.177   1.417   4.715
 6770TIP3   OH220245   3.951   1.415   4.394
 6770TIP3    H120246   3.973   1.462   4.314
 6770TIP3    H220247   3.915   1.482   4.452
 6771TIP3   OH220248   4.608   1.532   4.623
 6771TIP3    H120249   4.653   1.583   4.556
 6771TIP3    H220250   4.644   1.563   4.705
 6772TIP3   OH220251   5.097   1.686   4.594
 6772TIP3    H120252   5.096   1.652   4.504
 6772TIP3    H220253   5.103   1.608   4.649
 6773TIP3   OH220254   5.157   1.630   4.166
 6773TIP3    H120255   5.078   1.678   4.189
 6773TIP3    H220256   5.145   1.543   4.204
 6774TIP3   OH220257   3.599   2.976   4.162
 6774TIP3    H120258   3.516   2.939   4.134
 6774TIP3    H220259   3.617   3.046   4.099
 6775TIP3   OH220260   4.042   1.544   4.149
 6775TIP3    H120261   4.080   1.475   4.094
 6775TIP3    H220262   4.118   1.593   4.180
 6776TIP3   OH220263   4.539   1.729   4.238
 6776TIP3    H120264   4.596   1.676   4.294
 6776TIP3    H220265   4.554   1.819   4.267
 6777TIP3   OH220266   4.422   3.124   3.731
 6777TIP3    H120267   4.506   3.152   3.694
 6777TIP3    H220268   4.393   3.054   3.673
 6778TIP3   OH220269   5.135   3.265   3.827
 6778TIP3    H120270   5.125   3.170   3.821
 6778TIP3    H220271   5.083   3.299   3.754
 6779TIP3   OH220272   3.696   2.917   3.754
 6779TIP3    H120273   3.667   2.988   3.811
 6779TIP3    H220274   3.791   2.915   3.765
 6780TIP3   OH220275   5.425   1.880   5.519
 6780TIP3    H120276   5.440   1.851   5.609
 6780TIP3    H220277   5.511   1.873   5.477
 6781TIP3   OH220278   5.341   3.407   5.020
 6781TIP3    H120279   5.266   3.375   4.970
 6781TIP3    H220280   5.324   3.501   5.030
 6782TIP3   OH220281   6.623   2.808   3.756
 6782TIP3    H120282   6.593   2.893   3.726
 6782TIP3    H220283   6.551   2.748   3.734
 6783TIP3   OH220284   6.615   2.784   4.187
 6783TIP3    H120285   6.667   2.767   4.266
 6783TIP3    H220286   6.570   2.701   4.169
 6784TIP3   OH220287   5.914   2.651   4.528
 6784TIP3    H120288   5.950   2.598   4.599
 6784TIP3    H220289   5.991   2.677   4.477
 6785TIP3   OH220290   6.823   3.116   3.900
 6785TIP3    H120291   6.836   3.035   3.949
 6785TIP3    H220292   6.801   3.181   3.967
 6786TIP3   OH220293   5.911   3.077   4.219
 6786TIP3    H120294   5.891   2.984   4.228
 6786TIP3    H220295   6.007   3.080   4.214
 6787TIP3   OH220296   5.589   2.280   4.002
 6787TIP3    H120297   5.550   2.363   4.028
 6787TIP3    H220298   5.518   2.231   3.961
 6788TIP3   OH220299   5.666   2.588   4.224
 6788TIP3    H120300   5.717   2.511   4.251
 6788TIP3    H220301   5.732   2.650   4.194
 6789TIP3   OH220302   6.519   3.504   3.861
 6789TIP3    H120303   6.538   3.410   3.852
 6789TIP3    H220304   6.537   3.524   3.953
 6790TIP3   OH220305   6.431   3.008   4.187
 6790TIP3    H120306   6.475   2.925   4.166
 6790TIP3    H220307   6.502   3.065   4.216
 6791TIP3   OH220308   7.434   2.316   4.217
 6791TIP3    H120309   7.450   2.403   4.255
 6791TIP3    H220310   7.477   2.319   4.131
 6792TIP3   OH220311   6.826   2.499   4.226
 6792TIP3    H120312   6.859   2.414   4.256
 6792TIP3    H220313   6.792   2.482   4.138
 6793TIP3   OH220314   6.184   2.151   4.181
 6793TIP3    H120315   6.161   2.226   4.125
 6793TIP3    H220316   6.125   2.081   4.152
 6794TIP3   OH220317   6.883   2.252   3.823
 6794TIP3    H120318   6.947   2.247   3.894
 6794TIP3    H220319   6.933   2.287   3.749
 6795TIP3   OH220320   5.809   2.369   4.317
 6795TIP3    H120321   5.892   2.351   4.361
 6795TIP3    H220322   5.812   2.317   4.237
 6796TIP3   OH220323   6.230   2.568   4.128
 6796TIP3    H120324   6.324   2.552   4.136
 6796TIP3    H220325   6.194   2.486   4.095
 6797TIP3   OH220326   7.478   2.534   4.386
 6797TIP3    H120327   7.400   2.587   4.372
 6797TIP3    H220328   7.525   2.578   4.457
 6798TIP3   OH220329   6.164   2.158   4.639
 6798TIP3    H120330   6.114   2.194   4.565
 6798TIP3    H220331   6.108   2.175   4.715
 6799TIP3   OH220332   6.541   3.030   3.606
 6799TIP3    H120333   6.488   2.993   3.535
 6799TIP3    H220334   6.497   3.112   3.629
 6800TIP3   OH220335   6.264   2.933   4.399
 6800TIP3    H120336   6.210   3.003   4.436
 6800TIP3    H220337   6.313   2.975   4.328
 6801TIP3   OH220338   7.041   2.278   4.046
 6801TIP3    H120339   6.997   2.261   4.129
 6801TIP3    H220340   7.098   2.352   4.064
 6802TIP3   OH220341   6.059   2.264   4.405
 6802TIP3    H120342   6.113   2.339   4.429
 6802TIP3    H220343   6.106   2.222   4.333
 6803TIP3   OH220344   6.109   3.132   4.512
 6803TIP3    H120345   6.095   3.221   4.481
 6803TIP3    H220346   6.030   3.111   4.563
 6804TIP3   OH220347   5.478   2.840   3.762
 6804TIP3    H120348   5.439   2.855   3.676
 6804TIP3    H220349   5.497   2.927   3.795
 6805TIP3   OH220350   7.246   2.200   4.383
 6805TIP3    H120351   7.163   2.239   4.356
 6805TIP3    H220352   7.309   2.233   4.318
 6806TIP3   OH220353   6.506   1.853   4.365
 6806TIP3    H120354   6.501   1.762   4.393
 6806TIP3    H220355   6.430   1.895   4.405
 6807TIP3   OH220356   6.788   3.161   3.636
 6807TIP3    H120357   6.719   3.102   3.605
 6807TIP3    H220358   6.803   3.136   3.727
 6808TIP3   OH220359   7.144   3.238   4.339
 6808TIP3    H120360   7.131   3.162   4.282
 6808TIP3    H220361   7.128   3.313   4.283
 6809TIP3   OH220362   6.449   2.638   3.618
 6809TIP3    H120363   6.364   2.680   3.598
 6809TIP3    H220364   6.492   2.631   3.533
 6810TIP3   OH220365   6.414   2.437   3.305
 6810TIP3    H120366   6.481   2.485   3.354
 6810TIP3    H220367   6.464   2.370   3.258
 6811TIP3   OH220368   7.331   2.890   4.214
 6811TIP3    H120369   7.248   2.938   4.212
 6811TIP3    H220370   7.363   2.894   4.124
 6812TIP3   OH220371   6.803   2.736   3.565
 6812TIP3    H120372   6.750   2.761   3.640
 6812TIP3    H220373   6.885   2.704   3.603
 6813TIP3   OH220374   7.028   2.751   4.525
 6813TIP3    H120375   7.026   2.835   4.571
 6813TIP3    H220376   6.945   2.748   4.477
 6814TIP3   OH220377   6.031   2.702   3.980
 6814TIP3    H120378   5.992   2.641   3.917
 6814TIP3    H220379   6.103   2.652   4.019
 6815TIP3   OH220380   6.175   3.118   4.124
 6815TIP3    H120381   6.148   3.103   4.034
 6815TIP3    H220382   6.262   3.079   4.130
 6816TIP3   OH220383   6.133   2.697   4.355
 6816TIP3    H120384   6.171   2.660   4.275
 6816TIP3    H220385   6.181   2.778   4.370
 6817TIP3   OH220386   6.752   3.300   4.098
 6817TIP3    H120387   6.715   3.386   4.117
 6817TIP3    H220388   6.720   3.244   4.169
 6818TIP3   OH220389   6.306   3.242   4.676
 6818TIP3    H120390   6.245   3.297   4.724
 6818TIP3    H220391   6.250   3.188   4.619
 6819TIP3   OH220392   6.634   2.583   3.409
 6819TIP3    H120393   6.694   2.642   3.454
 6819TIP3    H220394   6.661   2.588   3.317
 6820TIP3   OH220395   6.054   2.776   4.819
 6820TIP3    H120396   6.059   2.870   4.840
 6820TIP3    H220397   5.960   2.759   4.813
 6821TIP3   OH220398   6.411   3.276   3.621
 6821TIP3    H120399   6.372   3.354   3.662
 6821TIP3    H220400   6.345   3.247   3.558
 6822TIP3   OH220401   6.092   3.396   4.765
 6822TIP3    H120402   6.064   3.398   4.674
 6822TIP3    H220403   6.012   3.375   4.814
 6823TIP3   OH220404   7.145   1.809   3.466
 6823TIP3    H120405   7.069   1.833   3.518
 6823TIP3    H220406   7.159   1.883   3.407
 6824TIP3   OH220407   5.901   2.546   3.780
 6824TIP3    H120408   5.825   2.596   3.749
 6824TIP3    H220409   5.866   2.459   3.798
 6825TIP3   OH220410   6.974   3.195   3.040
 6825TIP3    H120411   6.966   3.285   3.008
 6825TIP3    H220412   7.059   3.165   3.007
 6826TIP3   OH220413   5.687   2.949   4.714
 6826TIP3    H120414   5.616   2.933   4.651
 6826TIP3    H220415   5.720   2.862   4.737
 6827TIP3   OH220416   5.526   3.147   4.367
 6827TIP3    H120417   5.615   3.175   4.391
 6827TIP3    H220418   5.470   3.221   4.391
 6828TIP3   OH220419   7.374   3.582   4.410
 6828TIP3    H120420   7.380   3.488   4.426
 6828TIP3    H220421   7.295   3.609   4.457
 6829TIP3   OH220422   6.489   3.393   4.535
 6829TIP3    H120423   6.482   3.485   4.562
 6829TIP3    H220424   6.423   3.347   4.588
 6830TIP3   OH220425   6.268   3.514   3.478
 6830TIP3    H120426   6.209   3.487   3.407
 6830TIP3    H220427   6.226   3.592   3.514
 6831TIP3   OH220428   5.708   3.321   3.864
 6831TIP3    H120429   5.744   3.314   3.952
 6831TIP3    H220430   5.651   3.244   3.855
 6832TIP3   OH220431   6.476   3.413   3.119
 6832TIP3    H120432   6.525   3.339   3.083
 6832TIP3    H220433   6.510   3.422   3.208
 6833TIP3   OH220434   6.518   3.444   3.399
 6833TIP3    H120435   6.430   3.474   3.422
 6833TIP3    H220436   6.534   3.371   3.459
 6834TIP3   OH220437   7.268   2.719   4.694
 6834TIP3    H120438   7.186   2.725   4.643
 6834TIP3    H220439   7.290   2.626   4.693
 6835TIP3   OH220440   5.889   3.134   4.680
 6835TIP3    H120441   5.938   3.121   4.761
 6835TIP3    H220442   5.816   3.072   4.686
 6836TIP3   OH220443   6.271   1.943   4.495
 6836TIP3    H120444   6.187   1.909   4.463
 6836TIP3    H220445   6.248   2.024   4.541
 6837TIP3   OH220446   6.813   2.060   4.695
 6837TIP3    H120447   6.884   2.038   4.756
 6837TIP3    H220448   6.733   2.047   4.745
 6838TIP3   OH220449   7.031   2.481   4.603
 6838TIP3    H120450   6.993   2.476   4.691
 6838TIP3    H220451   7.019   2.572   4.577
 6839TIP3   OH220452   6.711   2.577   3.148
 6839TIP3    H120453   6.664   2.574   3.064
 6839TIP3    H220454   6.794   2.620   3.127
 6840TIP3   OH220455   6.422   1.979   3.463
 6840TIP3    H120456   6.384   1.985   3.551
 6840TIP3    H220457   6.384   1.900   3.426
 6841TIP3   OH220458   6.208   2.475   4.504
 6841TIP3    H120459   6.161   2.482   4.587
 6841TIP3    H220460   6.188   2.556   4.458
 6842TIP3   OH220461   6.088   2.354   4.023
 6842TIP3    H120462   5.998   2.331   4.049
 6842TIP3    H220463   6.096   2.321   3.934
 6843TIP3   OH220464   6.569   2.429   3.752
 6843TIP3    H120465   6.524   2.504   3.713
 6843TIP3    H220466   6.626   2.397   3.682
 6844TIP3   OH220467   6.753   2.694   4.824
 6844TIP3    H120468   6.727   2.627   4.886
 6844TIP3    H220469   6.845   2.711   4.844
 6845TIP3   OH220470   6.738   2.440   3.974
 6845TIP3    H120471   6.669   2.460   3.910
 6845TIP3    H220472   6.786   2.366   3.936
 6846TIP3   OH220473   6.043   2.492   4.723
 6846TIP3    H120474   6.049   2.558   4.792
 6846TIP3    H220475   6.023   2.410   4.769
 6847TIP3   OH220476   6.088   1.963   3.439
 6847TIP3    H120477   6.079   1.970   3.534
 6847TIP3    H220478   6.010   2.006   3.404
 6848TIP3   OH220479   5.633   2.009   4.302
 6848TIP3    H120480   5.706   2.044   4.353
 6848TIP3    H220481   5.671   1.994   4.215
 6849TIP3   OH220482   5.541   1.986   3.804
 6849TIP3    H120483   5.585   2.022   3.727
 6849TIP3    H220484   5.478   2.053   3.830
 6850TIP3   OH220485   6.776   2.698   4.402
 6850TIP3    H120486   6.802   2.632   4.338
 6850TIP3    H220487   6.735   2.649   4.472
 6851TIP3   OH220488   6.448   2.132   4.069
 6851TIP3    H120489   6.369   2.137   4.123
 6851TIP3    H220490   6.520   2.129   4.131
 6852TIP3   OH220491   5.849   2.230   4.083
 6852TIP3    H120492   5.760   2.237   4.047
 6852TIP3    H220493   5.874   2.139   4.068
 6853TIP3   OH220494   6.104   2.231   3.778
 6853TIP3    H120495   6.198   2.242   3.767
 6853TIP3    H220496   6.067   2.249   3.692
 6854TIP3   OH220497   6.894   2.235   4.281
 6854TIP3    H120498   6.876   2.250   4.374
 6854TIP3    H220499   6.824   2.174   4.253
 6855TIP3   OH220500   5.991   2.252   3.530
 6855TIP3    H120501   5.927   2.204   3.478
 6855TIP3    H220502   6.043   2.299   3.465
 6856TIP3   OH220503   7.101   3.938   4.504
 6856TIP3    H120504   7.098   3.954   4.410
 6856TIP3    H220505   7.182   3.982   4.532
 6857TIP3   OH220506   6.043   3.043   4.913
 6857TIP3    H120507   6.123   3.064   4.962
 6857TIP3    H220508   5.972   3.053   4.977
 6858TIP3   OH220509   6.502   2.515   4.182
 6858TIP3    H120510   6.571   2.466   4.137
 6858TIP3    H220511   6.498   2.476   4.269
 6859TIP3   OH220512   5.991   1.977   4.068
 6859TIP3    H120513   5.968   1.900   4.119
 6859TIP3    H220514   6.004   1.945   3.979
 6860TIP3   OH220515   6.475   2.420   4.446
 6860TIP3    H120516   6.388   2.452   4.471
 6860TIP3    H220517   6.535   2.471   4.500
 6861TIP3   OH220518   6.210   2.772   3.562
 6861TIP3    H120519   6.136   2.716   3.537
 6861TIP3    H220520   6.182   2.812   3.644
 6862TIP3   OH220521   7.095   3.029   4.164
 6862TIP3    H120522   7.132   3.077   4.090
 6862TIP3    H220523   7.018   2.985   4.129
 6863TIP3   OH220524   6.673   2.085   3.468
 6863TIP3    H120525   6.580   2.064   3.464
 6863TIP3    H220526   6.676   2.180   3.479
 6864TIP3   OH220527   6.616   3.122   4.559
 6864TIP3    H120528   6.667   3.107   4.639
 6864TIP3    H220529   6.570   3.205   4.576
 6865TIP3   OH220530   6.732   2.351   3.535
 6865TIP3    H120531   6.827   2.354   3.545
 6865TIP3    H220532   6.711   2.428   3.482
 6866TIP3   OH220533   5.903   2.789   4.210
 6866TIP3    H120534   5.940   2.770   4.124
 6866TIP3    H220535   5.968   2.757   4.272
 6867TIP3   OH220536   6.356   2.946   3.411
 6867TIP3    H120537   6.307   3.029   3.411
 6867TIP3    H220538   6.300   2.885   3.460
 6868TIP3   OH220539   5.781   2.710   4.839
 6868TIP3    H120540   5.779   2.685   4.931
 6868TIP3    H220541   5.705   2.666   4.801
 6869TIP3   OH220542   6.522   2.853   4.864
 6869TIP3    H120543   6.452   2.792   4.839
 6869TIP3    H220544   6.603   2.810   4.835
 6870TIP3   OH220545   6.760   3.408   4.455
 6870TIP3    H120546   6.666   3.391   4.460
 6870TIP3    H220547   6.784   3.440   4.542
 6871TIP3   OH220548   7.142   2.440   3.352
 6871TIP3    H120549   7.086   2.394   3.289
 6871TIP3    H220550   7.148   2.529   3.317
 6872TIP3   OH220551   7.392   3.297   4.436
 6872TIP3    H120552   7.297   3.290   4.426
 6872TIP3    H220553   7.427   3.272   4.350
 6873TIP3   OH220554   6.883   3.225   3.312
 6873TIP3    H120555   6.853   3.138   3.338
 6873TIP3    H220556   6.913   3.215   3.222
 6874TIP3   OH220557   6.864   2.888   4.063
 6874TIP3    H120558   6.777   2.861   4.092
 6874TIP3    H220559   6.902   2.809   4.025
 6875TIP3   OH220560   6.020   3.126   3.884
 6875TIP3    H120561   6.012   3.203   3.828
 6875TIP3    H220562   5.935   3.120   3.928
 6876TIP3   OH220563   5.589   2.414   3.594
 6876TIP3    H120564   5.628   2.499   3.614
 6876TIP3    H220565   5.506   2.413   3.641
 6877TIP3   OH220566   6.112   2.886   3.787
 6877TIP3    H120567   6.086   2.973   3.817
 6877TIP3    H220568   6.085   2.827   3.857
 6878TIP3   OH220569   6.311   3.463   4.324
 6878TIP3    H120570   6.350   3.539   4.279
 6878TIP3    H220571   6.382   3.429   4.378
 6879TIP3   OH220572   5.946   3.350   3.732
 6879TIP3    H120573   5.857   3.348   3.767
 6879TIP3    H220574   5.969   3.443   3.730
 6880TIP3   OH220575   6.672   3.112   4.290
 6880TIP3    H120576   6.652   3.117   4.383
 6880TIP3    H220577   6.745   3.050   4.284
 6881TIP3   OH220578   6.659   2.994   3.171
 6881TIP3    H120579   6.703   2.973   3.254
 6881TIP3    H220580   6.576   2.947   3.175
 6882TIP3   OH220581   6.895   3.624   4.340
 6882TIP3    H120582   6.834   3.553   4.360
 6882TIP3    H220583   6.861   3.662   4.259
 6883TIP3   OH220584   6.960   3.463   2.979
 6883TIP3    H120585   6.972   3.516   2.900
 6883TIP3    H220586   6.893   3.509   3.029
 6884TIP3   OH220587   5.989   2.239   4.842
 6884TIP3    H120588   5.894   2.249   4.847
 6884TIP3    H220589   6.012   2.195   4.924
 6885TIP3   OH220590   6.829   2.952   3.387
 6885TIP3    H120591   6.805   2.885   3.451
 6885TIP3    H220592   6.923   2.940   3.373
 6886TIP3   OH220593   5.736   3.333   4.490
 6886TIP3    H120594   5.789   3.272   4.542
 6886TIP3    H220595   5.747   3.417   4.534
 6887TIP3   OH220596   6.014   2.951   3.187
 6887TIP3    H120597   6.018   2.859   3.159
 6887TIP3    H220598   5.990   2.947   3.280
 6888TIP3   OH220599   5.944   2.973   3.454
 6888TIP3    H120600   5.990   2.944   3.533
 6888TIP3    H220601   5.943   3.069   3.461
 6889TIP3   OH220602   5.678   2.669   3.669
 6889TIP3    H120603   5.612   2.715   3.721
 6889TIP3    H220604   5.693   2.726   3.594
 6890TIP3   OH220605   6.839   2.290   4.543
 6890TIP3    H120606   6.916   2.338   4.574
 6890TIP3    H220607   6.832   2.214   4.601
 6891TIP3   OH220608   6.732   2.035   3.736
 6891TIP3    H120609   6.710   2.056   3.645
 6891TIP3    H220610   6.775   2.114   3.768
 6892TIP3   OH220611   6.232   3.192   3.428
 6892TIP3    H120612   6.140   3.200   3.454
 6892TIP3    H220613   6.241   3.253   3.354
 6893TIP3   OH220614   6.384   2.235   3.818
 6893TIP3    H120615   6.446   2.304   3.794
 6893TIP3    H220616   6.406   2.212   3.908
 6894TIP3   OH220617   6.682   2.532   4.599
 6894TIP3    H120618   6.705   2.575   4.681
 6894TIP3    H220619   6.730   2.449   4.600
 6895TIP3   OH220620   6.545   1.922   3.907
 6895TIP3    H120621   6.519   1.997   3.961
 6895TIP3    H220622   6.616   1.956   3.852
 6896TIP3   OH220623   5.969   3.244   3.479
 6896TIP3    H120624   5.947   3.314   3.417
 6896TIP3    H220625   5.954   3.284   3.565
 6897TIP3   OH220626   6.059   1.958   3.718
 6897TIP3    H120627   6.047   2.049   3.746
 6897TIP3    H220628   6.153   1.943   3.725
 6898TIP3   OH220629   7.302   2.453   4.610
 6898TIP3    H120630   7.207   2.443   4.605
 6898TIP3    H220631   7.333   2.433   4.522
 6899TIP3   OH220632   6.960   2.633   3.971
 6899TIP3    H120633   6.886   2.575   3.984
 6899TIP3    H220634   7.030   2.596   4.024
 6900TIP3   OH220635   5.696   2.840   3.449
 6900TIP3    H120636   5.764   2.908   3.452
 6900TIP3    H220637   5.729   2.777   3.386
 6901TIP3   OH220638   5.606   2.135   3.583
 6901TIP3    H120639   5.621   2.229   3.595
 6901TIP3    H220640   5.541   2.130   3.513
 6902TIP3   OH220641   6.013   1.852   4.448
 6902TIP3    H120642   5.987   1.819   4.362
 6902TIP3    H220643   6.006   1.776   4.506
 6903TIP3   OH220644   5.520   3.112   3.834
 6903TIP3    H120645   5.476   3.147   3.912
 6903TIP3    H220646   5.479   3.158   3.761
 6904TIP3   OH220647   5.721   3.635   4.915
 6904TIP3    H120648   5.801   3.629   4.968
 6904TIP3    H220649   5.689   3.545   4.908
 6905TIP3   OH220650   6.190   3.582   4.944
 6905TIP3    H120651   6.280   3.553   4.960
 6905TIP3    H220652   6.157   3.520   4.879
 6906TIP3   OH220653   6.162   3.152   3.076
 6906TIP3    H120654   6.113   3.081   3.118
 6906TIP3    H220655   6.234   3.108   3.032
 6907TIP3   OH220656   6.815   3.499   4.708
 6907TIP3    H120657   6.823   3.429   4.772
 6907TIP3    H220658   6.890   3.556   4.724
 6908TIP3   OH220659   6.601   3.201   3.001
 6908TIP3    H120660   6.637   3.134   3.059
 6908TIP3    H220661   6.653   3.195   2.921
 6909TIP3   OH220662   5.837   3.048   5.102
 6909TIP3    H120663   5.851   2.955   5.113
 6909TIP3    H220664   5.751   3.054   5.060
 6910TIP3   OH220665   5.827   2.651   3.302
 6910TIP3    H120666   5.879   2.629   3.380
 6910TIP3    H220667   5.892   2.663   3.233
 6911TIP3   OH220668   6.455   3.131   4.881
 6911TIP3    H120669   6.411   3.153   4.799
 6911TIP3    H220670   6.490   3.043   4.868
 6912TIP3   OH220671   6.411   2.874   3.149
 6912TIP3    H120672   6.380   2.888   3.238
 6912TIP3    H220673   6.388   2.783   3.129
 6913TIP3   OH220674   6.927   3.175   4.498
 6913TIP3    H120675   7.005   3.202   4.449
 6913TIP3    H220676   6.863   3.244   4.480
 6914TIP3   OH220677   5.951   2.792   5.114
 6914TIP3    H120678   6.028   2.770   5.061
 6914TIP3    H220679   5.986   2.812   5.200
 6915TIP3   OH220680   6.003   2.594   3.515
 6915TIP3    H120681   5.977   2.563   3.601
 6915TIP3    H220682   6.048   2.520   3.475
 6916TIP3   OH220683   6.316   2.677   4.771
 6916TIP3    H120684   6.229   2.714   4.780
 6916TIP3    H220685   6.345   2.703   4.684
 6917TIP3   OH220686   6.141   2.407   3.359
 6917TIP3    H120687   6.110   2.411   3.269
 6917TIP3    H220688   6.236   2.414   3.353
 6918TIP3   OH220689   6.814   3.048   4.853
 6918TIP3    H120690   6.885   3.012   4.800
 6918TIP3    H220691   6.812   2.992   4.931
 6919TIP3   OH220692   6.931   2.702   3.033
 6919TIP3    H120693   6.917   2.660   2.949
 6919TIP3    H220694   6.912   2.794   3.017
 6920TIP3   OH220695   6.416   2.443   4.877
 6920TIP3    H120696   6.418   2.373   4.811
 6920TIP3    H220697   6.382   2.519   4.829
 6921TIP3   OH220698   6.424   2.243   4.673
 6921TIP3    H120699   6.450   2.281   4.589
 6921TIP3    H220700   6.333   2.217   4.660
 6922TIP3   OH220701   6.428   2.764   4.539
 6922TIP3    H120702   6.518   2.795   4.527
 6922TIP3    H220703   6.374   2.827   4.491
 6923TIP3   OH220704   7.023   2.726   4.923
 6923TIP3    H120705   7.064   2.641   4.933
 6923TIP3    H220706   7.095   2.786   4.908
 6924TIP3   OH220707   7.053   2.997   4.661
 6924TIP3    H120708   6.999   3.059   4.612
 6924TIP3    H220709   7.142   3.012   4.630
 6925TIP3   OH220710   6.301   2.526   5.121
 6925TIP3    H120711   6.230   2.466   5.141
 6925TIP3    H220712   6.328   2.502   5.032
 6926TIP3   OH220713   6.545   2.011   4.775
 6926TIP3    H120714   6.506   2.092   4.742
 6926TIP3    H220715   6.477   1.945   4.762
 6927TIP3   OH220716   6.673   2.482   4.977
 6927TIP3    H120717   6.665   2.470   5.072
 6927TIP3    H220718   6.586   2.461   4.943
 6928TIP3   OH220719   6.916   2.435   4.844
 6928TIP3    H120720   6.838   2.437   4.898
 6928TIP3    H220721   6.987   2.413   4.904
 6929TIP3   OH220722   7.146   2.401   5.000
 6929TIP3    H120723   7.162   2.307   5.007
 6929TIP3    H220724   7.142   2.432   5.091
 6930TIP3   OH220725   6.133   2.304   5.181
 6930TIP3    H120726   6.140   2.215   5.147
 6930TIP3    H220727   6.172   2.299   5.269
 6931TIP3   OH220728   6.614   1.987   5.040
 6931TIP3    H120729   6.684   1.922   5.032
 6931TIP3    H220730   6.583   2.000   4.951
 6932TIP3   OH220731   6.708   2.203   5.184
 6932TIP3    H120732   6.677   2.131   5.130
 6932TIP3    H220733   6.636   2.266   5.186
 6933TIP3   OH220734   5.968   3.450   3.294
 6933TIP3    H120735   6.054   3.429   3.257
 6933TIP3    H220736   5.923   3.497   3.224
 6934TIP3   OH220737   5.423   2.836   3.471
 6934TIP3    H120738   5.518   2.847   3.467
 6934TIP3    H220739   5.407   2.750   3.432
 6935TIP3   OH220740   5.340   3.418   3.922
 6935TIP3    H120741   5.275   3.366   3.875
 6935TIP3    H220742   5.382   3.357   3.983
 6936TIP3   OH220743   5.480   3.251   4.094
 6936TIP3    H120744   5.471   3.183   4.161
 6936TIP3    H220745   5.528   3.322   4.139
 6937TIP3   OH220746   7.205   3.639   3.914
 6937TIP3    H120747   7.220   3.674   4.002
 6937TIP3    H220748   7.248   3.701   3.855
 6938TIP3   OH220749   7.216   3.696   4.192
 6938TIP3    H120750   7.170   3.612   4.186
 6938TIP3    H220751   7.289   3.678   4.252
 6939TIP3   OH220752   7.272   3.389   4.757
 6939TIP3    H120753   7.201   3.395   4.821
 6939TIP3    H220754   7.316   3.474   4.761
 6940TIP3   OH220755   7.101   2.912   3.367
 6940TIP3    H120756   7.162   2.978   3.335
 6940TIP3    H220757   7.147   2.870   3.440
 6941TIP3   OH220758   7.225   2.766   3.565
 6941TIP3    H120759   7.161   2.726   3.624
 6941TIP3    H220760   7.293   2.800   3.624
 6942TIP3   OH220761   7.255   3.171   3.991
 6942TIP3    H120762   7.310   3.100   3.957
 6942TIP3    H220763   7.272   3.244   3.931
 6943TIP3   OH220764   7.067   3.459   4.194
 6943TIP3    H120765   7.005   3.506   4.251
 6943TIP3    H220766   7.013   3.427   4.122
 6944TIP3   OH220767   7.135   2.681   3.217
 6944TIP3    H120768   7.064   2.681   3.153
 6944TIP3    H220769   7.120   2.760   3.269
 6945TIP3   OH220770   6.986   2.331   3.155
 6945TIP3    H120771   6.943   2.366   3.077
 6945TIP3    H220772   6.980   2.236   3.145
 6946TIP3   OH220773   7.022   2.625   3.700
 6946TIP3    H120774   7.029   2.531   3.686
 6946TIP3    H220775   7.006   2.634   3.794
 6947TIP3   OH220776   5.649   2.687   4.478
 6947TIP3    H120777   5.639   2.655   4.389
 6947TIP3    H220778   5.744   2.684   4.494
 6948TIP3   OH220779   7.310   3.046   4.566
 6948TIP3    H120780   7.374   2.977   4.551
 6948TIP3    H220781   7.336   3.117   4.508
 6949TIP3   OH220782   7.480   2.833   4.562
 6949TIP3    H120783   7.406   2.795   4.611
 6949TIP3    H220784   7.553   2.774   4.581
 6950TIP3   OH220785   6.951   2.060   3.123
 6950TIP3    H120786   7.018   2.034   3.186
 6950TIP3    H220787   6.871   2.020   3.156
 6951TIP3   OH220788   7.020   2.348   3.591
 6951TIP3    H120789   7.067   2.266   3.605
 6951TIP3    H220790   7.062   2.387   3.513
 6952TIP3   OH220791   7.175   2.517   4.112
 6952TIP3    H120792   7.258   2.535   4.067
 6952TIP3    H220793   7.186   2.556   4.198
 6953TIP3   OH220794   7.238   2.665   4.345
 6953TIP3    H120795   7.167   2.697   4.401
 6953TIP3    H220796   7.271   2.744   4.302
 6954TIP3   OH220797   5.870   2.368   5.122
 6954TIP3    H120798   5.964   2.365   5.141
 6954TIP3    H220799   5.835   2.287   5.161
 6955TIP3   OH220800   7.716   2.252   4.888
 6955TIP3    H120801   7.773   2.191   4.842
 6955TIP3    H220802   7.677   2.305   4.818
 6956TIP3   OH220803   7.135   2.102   3.646
 6956TIP3    H120804   7.185   2.087   3.727
 6956TIP3    H220805   7.075   2.028   3.641
 6957TIP3   OH220806   5.850   2.078   4.460
 6957TIP3    H120807   5.903   1.999   4.468
 6957TIP3    H220808   5.913   2.148   4.447
 6958TIP3   OH220809   5.626   2.336   4.533
 6958TIP3    H120810   5.678   2.331   4.453
 6958TIP3    H220811   5.644   2.424   4.568
 6959TIP3   OH220812   7.555   2.376   4.706
 6959TIP3    H120813   7.473   2.418   4.732
 6959TIP3    H220814   7.528   2.303   4.650
 6960TIP3   OH220815   7.175   2.010   3.278
 6960TIP3    H120816   7.224   1.950   3.222
 6960TIP3    H220817   7.233   2.086   3.288
 6961TIP3   OH220818   5.614   1.851   4.030
 6961TIP3    H120819   5.529   1.839   4.073
 6961TIP3    H220820   5.596   1.906   3.954
 6962TIP3   OH220821   6.855   3.505   3.595
 6962TIP3    H120822   6.869   3.548   3.511
 6962TIP3    H220823   6.841   3.576   3.657
 6963TIP3   OH220824   5.829   1.890   4.846
 6963TIP3    H120825   5.786   1.895   4.932
 6963TIP3    H220826   5.778   1.949   4.790
 6964TIP3   OH220827   5.874   3.356   4.936
 6964TIP3    H120828   5.780   3.347   4.922
 6964TIP3    H220829   5.886   3.343   5.030
 6965TIP3   OH220830   6.088   3.405   4.479
 6965TIP3    H120831   6.029   3.473   4.447
 6965TIP3    H220832   6.170   3.420   4.432
 6966TIP3   OH220833   6.483   3.670   4.592
 6966TIP3    H120834   6.510   3.660   4.683
 6966TIP3    H220835   6.558   3.711   4.549
 6967TIP3   OH220836   6.710   3.787   4.491
 6967TIP3    H120837   6.782   3.738   4.453
 6967TIP3    H220838   6.752   3.853   4.547
 6968TIP3   OH220839   7.457   2.145   4.588
 6968TIP3    H120840   7.379   2.149   4.533
 6968TIP3    H220841   7.488   2.055   4.579
 6969TIP3   OH220842   5.736   3.649   4.534
 6969TIP3    H120843   5.645   3.670   4.512
 6969TIP3    H220844   5.760   3.711   4.602
 6970TIP3   OH220845   5.958   3.619   4.378
 6970TIP3    H120846   5.874   3.631   4.422
 6970TIP3    H220847   5.944   3.656   4.290
 6971TIP3   OH220848   6.402   3.678   4.158
 6971TIP3    H120849   6.320   3.669   4.111
 6971TIP3    H220850   6.418   3.773   4.162
 6972TIP3   OH220851   6.651   3.557   4.134
 6972TIP3    H120852   6.567   3.598   4.159
 6972TIP3    H220853   6.707   3.631   4.112
 6973TIP3   OH220854   6.841   3.752   4.077
 6973TIP3    H120855   6.842   3.848   4.069
 6973TIP3    H220856   6.872   3.720   3.993
 6974TIP3   OH220857   5.651   3.435   4.244
 6974TIP3    H120858   5.676   3.405   4.331
 6974TIP3    H220859   5.719   3.402   4.186
 6975TIP3   OH220860   5.850   3.314   4.102
 6975TIP3    H120861   5.861   3.232   4.149
 6975TIP3    H220862   5.936   3.356   4.104
 6976TIP3   OH220863   6.119   3.392   4.128
 6976TIP3    H120864   6.140   3.299   4.123
 6976TIP3    H220865   6.174   3.426   4.199
 6977TIP3   OH220866   6.671   2.056   4.218
 6977TIP3    H120867   6.630   1.985   4.268
 6977TIP3    H220868   6.738   2.013   4.165
 6978TIP3   OH220869   7.175   1.941   4.075
 6978TIP3    H120870   7.224   1.989   4.008
 6978TIP3    H220871   7.105   2.001   4.100
 6979TIP3   OH220872   7.303   2.046   3.858
 6979TIP3    H120873   7.368   1.979   3.834
 6979TIP3    H220874   7.348   2.129   3.844
 6980TIP3   OH220875   5.939   1.740   4.207
 6980TIP3    H120876   5.850   1.706   4.218
 6980TIP3    H220877   5.992   1.662   4.193
 6981TIP3   OH220878   5.756   1.664   3.867
 6981TIP3    H120879   5.774   1.715   3.788
 6981TIP3    H220880   5.712   1.726   3.926
 6982TIP3   OH220881   6.427   1.753   4.104
 6982TIP3    H120882   6.457   1.812   4.035
 6982TIP3    H220883   6.449   1.798   4.186
 6983TIP3   OH220884   6.874   1.935   4.083
 6983TIP3    H120885   6.912   1.908   4.000
 6983TIP3    H220886   6.887   1.859   4.141
 6984TIP3   OH220887   6.952   1.890   3.646
 6984TIP3    H120888   6.874   1.940   3.671
 6984TIP3    H220889   6.934   1.802   3.678
 6985TIP3   OH220890   5.410   3.245   3.616
 6985TIP3    H120891   5.326   3.213   3.585
 6985TIP3    H220892   5.413   3.336   3.589
 6986TIP3   OH220893   5.848   1.794   3.626
 6986TIP3    H120894   5.893   1.735   3.565
 6986TIP3    H220895   5.916   1.850   3.661
 6987TIP3   OH220896   6.335   1.981   3.727
 6987TIP3    H120897   6.397   1.933   3.782
 6987TIP3    H220898   6.347   2.073   3.751
 6988TIP3   OH220899   6.221   3.376   3.218
 6988TIP3    H120900   6.301   3.408   3.177
 6988TIP3    H220901   6.193   3.304   3.160
 6989TIP3   OH220902   6.913   3.502   3.325
 6989TIP3    H120903   6.904   3.410   3.302
 6989TIP3    H220904   6.872   3.549   3.252
 6990TIP3   OH220905   6.146   2.031   5.093
 6990TIP3    H120906   6.111   1.966   5.153
 6990TIP3    H220907   6.238   2.040   5.118
 6991TIP3   OH220908   6.394   2.039   5.218
 6991TIP3    H120909   6.473   2.016   5.168
 6991TIP3    H220910   6.387   1.970   5.284
 6992TIP3   OH220911   5.518   3.221   3.276
 6992TIP3    H120912   5.514   3.239   3.369
 6992TIP3    H220913   5.601   3.175   3.263
 6993TIP3   OH220914   7.216   2.132   5.008
 6993TIP3    H120915   7.233   2.102   5.097
 6993TIP3    H220916   7.301   2.126   4.964
 6994TIP3   OH220917   7.127   3.663   4.506
 6994TIP3    H120918   7.049   3.640   4.454
 6994TIP3    H220919   7.121   3.758   4.516
 6995TIP3   OH220920   7.667   2.900   4.035
 6995TIP3    H120921   7.707   2.853   4.109
 6995TIP3    H220922   7.739   2.910   3.972
 6996TIP3   OH220923   7.656   3.342   3.728
 6996TIP3    H120924   7.643   3.248   3.731
 6996TIP3    H220925   7.750   3.353   3.716
 6997TIP3   OH220926   7.377   2.540   3.483
 6997TIP3    H120927   7.340   2.625   3.509
 6997TIP3    H220928   7.303   2.491   3.447
 6998TIP3   OH220929   7.447   2.848   3.707
 6998TIP3    H120930   7.498   2.771   3.731
 6998TIP3    H220931   7.512   2.914   3.684
 6999TIP3   OH220932   8.424   3.821   3.400
 6999TIP3    H120933   8.485   3.753   3.428
 6999TIP3    H220934   8.357   3.774   3.350
 7000TIP3   OH220935   8.272   3.149   3.605
 7000TIP3    H120936   8.300   3.175   3.517
 7000TIP3    H220937   8.334   3.192   3.664
 7001TIP3   OH220938   7.985   2.327   3.642
 7001TIP3    H120939   7.950   2.384   3.710
 7001TIP3    H220940   7.908   2.288   3.601
 7002TIP3   OH220941   7.583   2.625   3.791
 7002TIP3    H120942   7.653   2.603   3.852
 7002TIP3    H220943   7.603   2.573   3.713
 7003TIP3   OH220944   7.961   2.830   3.585
 7003TIP3    H120945   8.042   2.810   3.631
 7003TIP3    H220946   7.931   2.747   3.550
 7004TIP3   OH220947   7.997   3.165   3.918
 7004TIP3    H120948   7.933   3.229   3.951
 7004TIP3    H220949   8.024   3.199   3.833
 7005TIP3   OH220950   7.771   2.533   3.972
 7005TIP3    H120951   7.819   2.479   4.034
 7005TIP3    H220952   7.835   2.554   3.903
 7006TIP3   OH220953   7.840   3.375   3.990
 7006TIP3    H120954   7.835   3.463   3.953
 7006TIP3    H220955   7.763   3.369   4.047
 7007TIP3   OH220956   7.270   3.097   3.248
 7007TIP3    H120957   7.238   3.118   3.159
 7007TIP3    H220958   7.296   3.182   3.284
 7008TIP3   OH220959   7.728   2.944   3.484
 7008TIP3    H120960   7.718   2.908   3.396
 7008TIP3    H220961   7.814   2.914   3.512
 7009TIP3   OH220962   7.905   3.418   3.619
 7009TIP3    H120963   7.877   3.382   3.535
 7009TIP3    H220964   8.000   3.411   3.618
 7010TIP3   OH220965   7.868   2.929   3.846
 7010TIP3    H120966   7.908   2.894   3.765
 7010TIP3    H220967   7.922   3.004   3.869
 7011TIP3   OH220968   8.048   3.446   4.152
 7011TIP3    H120969   8.007   3.520   4.196
 7011TIP3    H220970   7.979   3.410   4.096
 7012TIP3   OH220971   7.840   3.059   4.299
 7012TIP3    H120972   7.836   3.150   4.328
 7012TIP3    H220973   7.749   3.030   4.298
 7013TIP3   OH220974   8.051   3.507   3.231
 7013TIP3    H120975   8.132   3.551   3.257
 7013TIP3    H220976   7.989   3.579   3.216
 7014TIP3   OH220977   7.864   3.644   4.242
 7014TIP3    H120978   7.837   3.650   4.150
 7014TIP3    H220979   7.782   3.636   4.290
 7015TIP3   OH220980   7.677   2.790   3.251
 7015TIP3    H120981   7.595   2.831   3.225
 7015TIP3    H220982   7.651   2.706   3.288
 7016TIP3   OH220983   7.469   3.200   4.193
 7016TIP3    H120984   7.404   3.175   4.127
 7016TIP3    H220985   7.509   3.118   4.221
 7017TIP3   OH220986   7.323   3.395   3.836
 7017TIP3    H120987   7.417   3.410   3.847
 7017TIP3    H220988   7.282   3.473   3.874
 7018TIP3   OH220989   8.221   3.614   4.015
 7018TIP3    H120990   8.206   3.688   4.074
 7018TIP3    H220991   8.172   3.542   4.056
 7019TIP3   OH220992   8.046   3.789   3.113
 7019TIP3    H120993   8.011   3.719   3.058
 7019TIP3    H220994   7.987   3.863   3.100
 7020TIP3   OH220995   7.497   3.581   3.346
 7020TIP3    H120996   7.538   3.578   3.432
 7020TIP3    H220997   7.451   3.497   3.338
 7021TIP3   OH220998   8.405   3.695   2.993
 7021TIP3    H120999   8.387   3.757   2.922
 7021TIP3    H221000   8.484   3.648   2.965
 7022TIP3   OH221001   7.643   3.410   4.175
 7022TIP3    H121002   7.698   3.397   4.252
 7022TIP3    H221003   7.579   3.340   4.179
 7023TIP3   OH221004   7.987   2.753   4.034
 7023TIP3    H121005   7.920   2.737   4.101
 7023TIP3    H221006   7.939   2.793   3.962
 7024TIP3   OH221007   7.875   2.591   3.488
 7024TIP3    H121008   7.788   2.557   3.508
 7024TIP3    H221009   7.901   2.545   3.409
 7025TIP3   OH221010   7.789   2.756   4.234
 7025TIP3    H121011   7.825   2.806   4.307
 7025TIP3    H221012   7.775   2.668   4.270
 7026TIP3   OH221013   7.845   2.218   2.911
 7026TIP3    H121014   7.926   2.174   2.885
 7026TIP3    H221015   7.803   2.242   2.828
 7027TIP3   OH221016   7.465   2.249   3.784
 7027TIP3    H121017   7.517   2.274   3.860
 7027TIP3    H221018   7.529   2.227   3.717
 7028TIP3   OH221019   7.334   2.241   3.300
 7028TIP3    H121020   7.385   2.280   3.229
 7028TIP3    H221021   7.272   2.310   3.326
 7029TIP3   OH221022   7.636   2.479   3.560
 7029TIP3    H121023   7.546   2.487   3.528
 7029TIP3    H221024   7.661   2.389   3.539
 7030TIP3   OH221025   7.924   2.474   3.241
 7030TIP3    H121026   8.008   2.495   3.202
 7030TIP3    H221027   7.859   2.496   3.174
 7031TIP3   OH221028   7.745   2.515   3.038
 7031TIP3    H121029   7.668   2.467   3.009
 7031TIP3    H221030   7.791   2.536   2.957
 7032TIP3   OH221031   7.808   3.323   4.400
 7032TIP3    H121032   7.887   3.344   4.449
 7032TIP3    H221033   7.739   3.315   4.466
 7033TIP3   OH221034   7.752   2.232   3.507
 7033TIP3    H121035   7.728   2.151   3.553
 7033TIP3    H221036   7.773   2.203   3.418
 7034TIP3   OH221037   8.238   2.665   4.077
 7034TIP3    H121038   8.148   2.695   4.062
 7034TIP3    H221039   8.260   2.615   3.999
 7035TIP3   OH221040   7.994   2.959   3.064
 7035TIP3    H121041   7.912   2.917   3.040
 7035TIP3    H221042   7.981   2.989   3.154
 7036TIP3   OH221043   8.445   3.371   4.015
 7036TIP3    H121044   8.433   3.282   4.050
 7036TIP3    H221045   8.412   3.428   4.085
 7037TIP3   OH221046   7.651   3.060   3.717
 7037TIP3    H121047   7.676   3.037   3.627
 7037TIP3    H221048   7.718   3.019   3.772
 7038TIP3   OH221049   8.075   3.068   2.829
 7038TIP3    H121050   8.054   3.161   2.836
 7038TIP3    H221051   8.042   3.029   2.910
 7039TIP3   OH221052   7.570   2.984   4.338
 7039TIP3    H121053   7.581   2.957   4.429
 7039TIP3    H221054   7.500   2.928   4.305
 7040TIP3   OH221055   8.310   3.083   4.369
 7040TIP3    H121056   8.226   3.039   4.354
 7040TIP3    H221057   8.372   3.012   4.384
 7041TIP3   OH221058   7.801   3.368   3.369
 7041TIP3    H121059   7.805   3.442   3.309
 7041TIP3    H221060   7.718   3.325   3.349
 7042TIP3   OH221061   7.364   2.666   3.065
 7042TIP3    H121062   7.407   2.749   3.086
 7042TIP3    H221063   7.285   2.666   3.120
 7043TIP3   OH221064   7.949   3.071   3.313
 7043TIP3    H121065   7.938   3.155   3.268
 7043TIP3    H221066   7.936   3.091   3.405
 7044TIP3   OH221067   8.061   3.710   3.816
 7044TIP3    H121068   8.099   3.792   3.784
 7044TIP3    H221069   8.130   3.671   3.869
 7045TIP3   OH221070   7.731   3.599   3.202
 7045TIP3    H121071   7.647   3.595   3.247
 7045TIP3    H221072   7.750   3.693   3.194
 7046TIP3   OH221073   7.754   2.504   4.349
 7046TIP3    H121074   7.660   2.485   4.355
 7046TIP3    H221075   7.789   2.433   4.296
 7047TIP3   OH221076   7.516   3.605   3.983
 7047TIP3    H121077   7.561   3.543   4.040
 7047TIP3    H221078   7.531   3.691   4.023
 7048TIP3   OH221079   7.778   3.214   2.683
 7048TIP3    H121080   7.788   3.122   2.658
 7048TIP3    H221081   7.772   3.212   2.779
 7049TIP3   OH221082   7.733   3.223   2.959
 7049TIP3    H121083   7.803   3.217   3.024
 7049TIP3    H221084   7.710   3.316   2.958
 7050TIP3   OH221085   7.455   2.915   3.149
 7050TIP3    H121086   7.395   2.966   3.203
 7050TIP3    H221087   7.479   2.974   3.078
 7051TIP3   OH221088   8.014   3.340   2.867
 7051TIP3    H121089   7.978   3.425   2.890
 7051TIP3    H221090   8.084   3.359   2.804
 7052TIP3   OH221091   7.674   3.488   2.953
 7052TIP3    H121092   7.685   3.557   2.887
 7052TIP3    H221093   7.698   3.530   3.036
 7053TIP3   OH221094   7.817   2.218   3.194
 7053TIP3    H121095   7.856   2.298   3.229
 7053TIP3    H221096   7.830   2.225   3.099
 7054TIP3   OH221097   7.490   3.092   2.937
 7054TIP3    H121098   7.564   3.151   2.953
 7054TIP3    H221099   7.522   3.032   2.870
 7055TIP3   OH221100   7.419   2.395   3.089
 7055TIP3    H121101   7.413   2.491   3.092
 7055TIP3    H221102   7.395   2.373   2.999
 7056TIP3   OH221103   7.318   3.361   3.333
 7056TIP3    H121104   7.288   3.404   3.413
 7056TIP3    H221105   7.275   3.409   3.262
 7057TIP3   OH221106   7.522   3.906   4.397
 7057TIP3    H121107   7.597   3.917   4.455
 7057TIP3    H221108   7.518   3.812   4.379
 7058TIP3   OH221109   7.955   3.839   4.422
 7058TIP3    H121110   8.049   3.829   4.438
 7058TIP3    H221111   7.935   3.773   4.356
 7059TIP3   OH221112   7.967   3.370   2.556
 7059TIP3    H121113   7.900   3.319   2.600
 7059TIP3    H221114   8.049   3.328   2.582
 7060TIP3   OH221115   7.619   3.290   4.597
 7060TIP3    H121116   7.644   3.198   4.603
 7060TIP3    H221117   7.532   3.289   4.556
 7061TIP3   OH221118   7.615   2.910   2.776
 7061TIP3    H121119   7.659   2.878   2.855
 7061TIP3    H221120   7.686   2.924   2.713
 7062TIP3   OH221121   8.154   3.315   4.370
 7062TIP3    H121122   8.124   3.342   4.284
 7062TIP3    H221123   8.204   3.234   4.354
 7063TIP3   OH221124   8.070   3.030   2.550
 7063TIP3    H121125   8.102   3.047   2.639
 7063TIP3    H221126   7.977   3.008   2.563
 7064TIP3   OH221127   7.747   3.036   4.596
 7064TIP3    H121128   7.813   2.974   4.566
 7064TIP3    H221129   7.775   3.061   4.684
 7065TIP3   OH221130   7.765   2.824   2.991
 7065TIP3    H121131   7.739   2.802   3.080
 7065TIP3    H221132   7.804   2.743   2.957
 7066TIP3   OH221133   8.087   2.946   4.294
 7066TIP3    H121134   7.999   2.983   4.296
 7066TIP3    H221135   8.111   2.946   4.201
 7067TIP3   OH221136   7.899   2.628   2.840
 7067TIP3    H121137   7.882   2.644   2.747
 7067TIP3    H221138   7.995   2.634   2.847
 7068TIP3   OH221139   8.184   2.740   4.449
 7068TIP3    H121140   8.141   2.665   4.409
 7068TIP3    H221141   8.176   2.810   4.383
 7069TIP3   OH221142   8.214   2.407   4.189
 7069TIP3    H121143   8.203   2.496   4.154
 7069TIP3    H221144   8.131   2.363   4.169
 7070TIP3   OH221145   8.180   2.998   4.038
 7070TIP3    H121146   8.181   2.925   3.975
 7070TIP3    H221147   8.113   3.057   4.004
 7071TIP3   OH221148   7.943   2.818   4.565
 7071TIP3    H121149   7.926   2.730   4.601
 7071TIP3    H221150   8.009   2.804   4.497
 7072TIP3   OH221151   7.907   2.559   4.657
 7072TIP3    H121152   7.905   2.471   4.618
 7072TIP3    H221153   7.943   2.545   4.745
 7073TIP3   OH221154   7.756   3.691   2.768
 7073TIP3    H121155   7.828   3.679   2.706
 7073TIP3    H221156   7.694   3.748   2.721
 7074TIP3   OH221157   7.217   3.091   2.953
 7074TIP3    H121158   7.312   3.103   2.950
 7074TIP3    H221159   7.203   3.003   2.917
 7075TIP3   OH221160   7.121   3.668   3.413
 7075TIP3    H121161   7.061   3.612   3.363
 7075TIP3    H221162   7.167   3.608   3.471
 7076TIP3   OH221163   7.268   3.503   3.580
 7076TIP3    H121164   7.272   3.438   3.650
 7076TIP3    H221165   7.314   3.579   3.615
 7077TIP3   OH221166   7.417   2.955   3.959
 7077TIP3    H121167   7.412   2.917   3.870
 7077TIP3    H221168   7.508   2.945   3.984
 7078TIP3   OH221169   7.641   2.619   4.609
 7078TIP3    H121170   7.736   2.610   4.606
 7078TIP3    H221171   7.611   2.539   4.653
 7079TIP3   OH221172   7.618   2.308   4.007
 7079TIP3    H121173   7.692   2.260   4.044
 7079TIP3    H221174   7.653   2.395   3.987
 7080TIP3   OH221175   7.424   2.602   4.021
 7080TIP3    H121176   7.458   2.599   3.932
 7080TIP3    H221177   7.488   2.653   4.070
 7081TIP3   OH221178   7.387   2.059   3.499
 7081TIP3    H121179   7.312   2.073   3.557
 7081TIP3    H221180   7.386   2.133   3.438
 7082TIP3   OH221181   7.594   2.122   4.332
 7082TIP3    H121182   7.581   2.148   4.423
 7082TIP3    H221183   7.544   2.186   4.281
 7083TIP3   OH221184   7.644   3.634   4.416
 7083TIP3    H121185   7.553   3.605   4.408
 7083TIP3    H221186   7.666   3.622   4.508
 7084TIP3   OH221187   7.839   3.649   3.962
 7084TIP3    H121188   7.782   3.716   3.924
 7084TIP3    H221189   7.923   3.661   3.918
 7085TIP3   OH221190   8.217   3.852   4.149
 7085TIP3    H121191   8.283   3.842   4.217
 7085TIP3    H221192   8.260   3.905   4.081
 7086TIP3   OH221193   0.058   4.136   3.978
 7086TIP3    H121194   0.074   4.119   3.886
 7086TIP3    H221195   0.139   4.177   4.010
 7087TIP3   OH221196   7.518   3.903   4.022
 7087TIP3    H121197   7.427   3.925   4.000
 7087TIP3    H221198   7.545   3.971   4.083
 7088TIP3   OH221199   7.722   3.866   3.847
 7088TIP3    H121200   7.641   3.877   3.897
 7088TIP3    H221201   7.702   3.902   3.761
 7089TIP3   OH221202   8.132   3.949   3.695
 7089TIP3    H121203   8.102   3.963   3.605
 7089TIP3    H221204   8.102   4.027   3.742
 7090TIP3   OH221205   8.364   3.801   3.695
 7090TIP3    H121206   8.294   3.867   3.695
 7090TIP3    H221207   8.410   3.814   3.612
 7091TIP3   OH221208   7.427   3.694   3.733
 7091TIP3    H121209   7.451   3.669   3.822
 7091TIP3    H221210   7.498   3.659   3.678
 7092TIP3   OH221211   7.620   3.576   3.589
 7092TIP3    H121212   7.632   3.493   3.634
 7092TIP3    H221213   7.705   3.620   3.596
 7093TIP3   OH221214   7.873   3.687   3.614
 7093TIP3    H121215   7.890   3.594   3.603
 7093TIP3    H221216   7.931   3.714   3.686
 7094TIP3   OH221217   7.681   2.005   3.643
 7094TIP3    H121218   7.600   1.970   3.678
 7094TIP3    H221219   7.749   1.945   3.673
 7095TIP3   OH221220   7.508   1.886   3.320
 7095TIP3    H121221   7.536   1.951   3.256
 7095TIP3    H221222   7.472   1.937   3.393
 7096TIP3   OH221223   7.197   3.492   3.125
 7096TIP3    H121224   7.118   3.462   3.081
 7096TIP3    H221225   7.212   3.581   3.092
 7097TIP3   OH221226   7.617   2.044   3.119
 7097TIP3    H121227   7.668   1.991   3.058
 7097TIP3    H221228   7.679   2.106   3.156
 7098TIP3   OH221229   7.990   3.628   2.635
 7098TIP3    H121230   8.070   3.615   2.687
 7098TIP3    H221231   7.970   3.542   2.600
 7099TIP3   OH221232   7.919   2.271   4.604
 7099TIP3    H121233   7.892   2.196   4.656
 7099TIP3    H221234   8.010   2.287   4.629
 7100TIP3   OH221235   8.161   2.309   4.729
 7100TIP3    H121236   8.251   2.329   4.704
 7100TIP3    H221237   8.168   2.233   4.787
 7101TIP3   OH221238   7.318   3.483   2.770
 7101TIP3    H121239   7.325   3.500   2.864
 7101TIP3    H221240   7.400   3.437   2.748
 7102TIP3   OH221241   0.874   3.820   4.929
 7102TIP3    H121242   0.849   3.908   4.901
 7102TIP3    H221243   0.800   3.765   4.904
 7103TIP3   OH221244   0.890   3.810   5.355
 7103TIP3    H121245   0.938   3.794   5.436
 7103TIP3    H221246   0.848   3.727   5.335
 7104TIP3   OH221247   0.177   3.798   5.620
 7104TIP3    H121248   0.123   3.728   5.656
 7104TIP3    H221249   0.264   3.783   5.658
 7105TIP3   OH221250   1.131   4.142   5.037
 7105TIP3    H121251   1.123   4.072   5.101
 7105TIP3    H221252   1.154   4.219   5.089
 7106TIP3   OH221253   0.115   4.146   5.295
 7106TIP3    H121254   0.105   4.051   5.298
 7106TIP3    H221255   0.142   4.170   5.384
 7107TIP3   OH221256   8.446   3.605   5.411
 7107TIP3    H121257   8.500   3.530   5.437
 7107TIP3    H221258   8.439   3.598   5.316
 7108TIP3   OH221259   0.795   4.560   5.073
 7108TIP3    H121260   0.819   4.505   4.998
 7108TIP3    H221261   0.802   4.502   5.148
 7109TIP3   OH221262   0.743   4.042   5.374
 7109TIP3    H121263   0.783   3.959   5.350
 7109TIP3    H221264   0.816   4.096   5.404
 7110TIP3   OH221265   1.707   3.370   5.385
 7110TIP3    H121266   1.721   3.456   5.425
 7110TIP3    H221267   1.743   3.380   5.296
 7111TIP3   OH221268   1.089   3.541   5.407
 7111TIP3    H121269   1.117   3.454   5.435
 7111TIP3    H221270   1.053   3.528   5.319
 7112TIP3   OH221271   0.452   3.195   5.339
 7112TIP3    H121272   0.427   3.269   5.283
 7112TIP3    H221273   0.394   3.124   5.313
 7113TIP3   OH221274   1.134   3.298   4.999
 7113TIP3    H121275   1.199   3.291   5.069
 7113TIP3    H221276   1.182   3.335   4.925
 7114TIP3   OH221277   0.092   3.396   5.509
 7114TIP3    H121278   0.129   3.364   5.592
 7114TIP3    H221279   0.163   3.444   5.468
 7115TIP3   OH221280   0.534   3.608   5.235
 7115TIP3    H121281   0.622   3.582   5.262
 7115TIP3    H221282   0.489   3.525   5.217
 7116TIP3   OH221283   1.758   3.591   5.551
 7116TIP3    H121284   1.670   3.630   5.544
 7116TIP3    H221285   1.795   3.630   5.630
 7117TIP3   OH221286   0.472   3.187   5.800
 7117TIP3    H121287   0.417   3.226   5.732
 7117TIP3    H221288   0.425   3.204   5.882
 7118TIP3   OH221289   0.790   4.036   4.780
 7118TIP3    H121290   0.745   4.003   4.702
 7118TIP3    H221291   0.738   4.112   4.806
 7119TIP3   OH221292   0.562   3.963   5.567
 7119TIP3    H121293   0.524   4.032   5.622
 7119TIP3    H221294   0.620   4.009   5.507
 7120TIP3   OH221295   1.291   3.318   5.223
 7120TIP3    H121296   1.245   3.300   5.306
 7120TIP3    H221297   1.346   3.394   5.242
 7121TIP3   OH221298   0.356   3.288   5.577
 7121TIP3    H121299   0.399   3.372   5.593
 7121TIP3    H221300   0.397   3.255   5.496
 7122TIP3   OH221301   0.417   4.152   5.714
 7122TIP3    H121302   0.390   4.181   5.627
 7122TIP3    H221303   0.342   4.102   5.747
 7123TIP3   OH221304   1.163   4.388   5.181
 7123TIP3    H121305   1.072   4.379   5.211
 7123TIP3    H221306   1.164   4.471   5.134
 7124TIP3   OH221307   1.505   3.260   5.549
 7124TIP3    H121308   1.421   3.287   5.512
 7124TIP3    H221309   1.569   3.288   5.484
 7125TIP3   OH221310   0.771   2.884   5.535
 7125TIP3    H121311   0.768   2.792   5.562
 7125TIP3    H221312   0.694   2.923   5.575
 7126TIP3   OH221313   0.883   4.429   4.843
 7126TIP3    H121314   0.934   4.349   4.834
 7126TIP3    H221315   0.939   4.498   4.807
 7127TIP3   OH221316   1.017   4.199   4.793
 7127TIP3    H121317   0.952   4.129   4.780
 7127TIP3    H221318   1.066   4.172   4.870
 7128TIP3   OH221319   1.406   4.273   5.518
 7128TIP3    H121320   1.390   4.199   5.460
 7128TIP3    H221321   1.390   4.350   5.463
 7129TIP3   OH221322   0.691   3.660   4.793
 7129TIP3    H121323   0.597   3.644   4.783
 7129TIP3    H221324   0.725   3.663   4.704
 7130TIP3   OH221325   0.659   3.421   4.542
 7130TIP3    H121326   0.719   3.483   4.582
 7130TIP3    H221327   0.702   3.395   4.460
 7131TIP3   OH221328   1.586   3.930   5.377
 7131TIP3    H121329   1.502   3.976   5.377
 7131TIP3    H221330   1.620   3.943   5.289
 7132TIP3   OH221331   1.061   3.774   4.731
 7132TIP3    H121332   0.999   3.791   4.803
 7132TIP3    H221333   1.140   3.743   4.775
 7133TIP3   OH221334   1.284   3.796   5.701
 7133TIP3    H121335   1.279   3.879   5.748
 7133TIP3    H221336   1.202   3.790   5.652
 7134TIP3   OH221337   0.315   3.756   5.183
 7134TIP3    H121338   0.277   3.711   5.108
 7134TIP3    H221339   0.398   3.710   5.199
 7135TIP3   OH221340   0.492   4.115   5.297
 7135TIP3    H121341   0.467   4.026   5.273
 7135TIP3    H221342   0.587   4.110   5.313
 7136TIP3   OH221343   0.461   3.724   5.481
 7136TIP3    H121344   0.511   3.715   5.400
 7136TIP3    H221345   0.489   3.808   5.517
 7137TIP3   OH221346   0.917   4.372   5.302
 7137TIP3    H121347   0.922   4.452   5.354
 7137TIP3    H221348   0.926   4.301   5.366
 7138TIP3   OH221349   0.544   4.345   5.866
 7138TIP3    H121350   0.491   4.364   5.944
 7138TIP3    H221351   0.495   4.277   5.820
 7139TIP3   OH221352   0.872   3.602   4.568
 7139TIP3    H121353   0.939   3.670   4.577
 7139TIP3    H221354   0.883   3.570   4.478
 7140TIP3   OH221355   0.267   3.853   5.978
 7140TIP3    H121356   0.296   3.941   5.999
 7140TIP3    H221357   0.171   3.860   5.973
 7141TIP3   OH221358   0.658   4.268   4.830
 7141TIP3    H121359   0.727   4.333   4.845
 7141TIP3    H221360   0.580   4.307   4.870
 7142TIP3   OH221361   0.330   4.563   5.938
 7142TIP3    H121362   0.314   4.522   5.853
 7142TIP3    H221363   0.259   4.530   5.994
 7143TIP3   OH221364   1.387   2.851   4.640
 7143TIP3    H121365   1.314   2.876   4.697
 7143TIP3    H221366   1.401   2.927   4.584
 7144TIP3   OH221367   0.208   3.609   4.979
 7144TIP3    H121368   0.128   3.652   4.948
 7144TIP3    H221369   0.177   3.536   5.033
 7145TIP3   OH221370   1.221   4.228   4.199
 7145TIP3    H121371   1.223   4.320   4.175
 7145TIP3    H221372   1.307   4.194   4.173
 7146TIP3   OH221373   1.634   4.636   5.590
 7146TIP3    H121374   1.638   4.542   5.604
 7146TIP3    H221375   1.557   4.664   5.640
 7147TIP3   OH221376   0.763   4.412   5.720
 7147TIP3    H121377   0.775   4.504   5.742
 7147TIP3    H221378   0.687   4.384   5.771
 7148TIP3   OH221379   0.508   4.505   4.637
 7148TIP3    H121380   0.464   4.511   4.552
 7148TIP3    H221381   0.500   4.593   4.674
 7149TIP3   OH221382   0.734   4.449   4.300
 7149TIP3    H121383   0.781   4.373   4.266
 7149TIP3    H221384   0.761   4.454   4.392
 7150TIP3   OH221385   0.773   4.471   4.575
 7150TIP3    H121386   0.682   4.475   4.602
 7150TIP3    H221387   0.819   4.433   4.651
 7151TIP3   OH221388   1.520   3.754   5.866
 7151TIP3    H121389   1.442   3.760   5.811
 7151TIP3    H221390   1.542   3.661   5.866
 7152TIP3   OH221391   0.539   2.967   5.654
 7152TIP3    H121392   0.453   2.935   5.627
 7152TIP3    H221393   0.521   3.048   5.701
 7153TIP3   OH221394   1.072   3.106   5.871
 7153TIP3    H121395   1.143   3.080   5.931
 7153TIP3    H221396   0.992   3.088   5.920
 7154TIP3   OH221397   1.286   3.528   5.785
 7154TIP3    H121398   1.245   3.522   5.872
 7154TIP3    H221399   1.269   3.618   5.757
 7155TIP3   OH221400   0.661   3.006   4.634
 7155TIP3    H121401   0.633   3.014   4.725
 7155TIP3    H221402   0.619   2.926   4.603
 7156TIP3   OH221403   0.493   3.511   5.653
 7156TIP3    H121404   0.451   3.523   5.738
 7156TIP3    H221405   0.479   3.594   5.607
 7157TIP3   OH221406   0.363   3.393   5.169
 7157TIP3    H121407   0.276   3.367   5.198
 7157TIP3    H221408   0.368   3.364   5.078
 7158TIP3   OH221409   0.830   3.470   4.932
 7158TIP3    H121410   0.783   3.543   4.892
 7158TIP3    H221411   0.888   3.438   4.863
 7159TIP3   OH221412   1.023   3.735   5.999
 7159TIP3    H121413   0.992   3.670   6.063
 7159TIP3    H221414   1.116   3.746   6.020
 7160TIP3   OH221415   0.994   3.484   5.155
 7160TIP3    H121416   0.928   3.507   5.090
 7160TIP3    H221417   1.040   3.410   5.117
 7161TIP3   OH221418   0.364   3.519   5.899
 7161TIP3    H121419   0.326   3.572   5.969
 7161TIP3    H221420   0.375   3.432   5.938
 7162TIP3   OH221421   0.341   3.021   4.615
 7162TIP3    H121422   0.331   3.028   4.710
 7162TIP3    H221423   0.268   3.072   4.579
 7163TIP3   OH221424   8.411   3.039   5.448
 7163TIP3    H121425   8.492   3.059   5.494
 7163TIP3    H221426   8.438   2.980   5.377
 7164TIP3   OH221427   8.418   3.191   5.046
 7164TIP3    H121428   8.445   3.203   4.955
 7164TIP3    H221429   8.326   3.220   5.048
 7165TIP3   OH221430   1.036   3.737   5.584
 7165TIP3    H121431   1.063   3.670   5.522
 7165TIP3    H221432   0.991   3.689   5.654
 7166TIP3   OH221433   0.716   3.191   5.251
 7166TIP3    H121434   0.634   3.191   5.301
 7166TIP3    H221435   0.785   3.180   5.317
 7167TIP3   OH221436   0.133   3.252   5.209
 7167TIP3    H121437   0.053   3.238   5.158
 7167TIP3    H221438   0.167   3.163   5.225
 7168TIP3   OH221439   0.390   3.287   4.915
 7168TIP3    H121440   0.482   3.287   4.940
 7168TIP3    H221441   0.390   3.320   4.825
 7169TIP3   OH221442   1.146   3.276   5.460
 7169TIP3    H121443   1.129   3.292   5.553
 7169TIP3    H221444   1.077   3.214   5.434
 7170TIP3   OH221445   0.174   3.292   4.692
 7170TIP3    H121446   0.147   3.343   4.768
 7170TIP3    H221447   0.244   3.344   4.652
 7171TIP3   OH221448   1.338   4.982   5.676
 7171TIP3    H121449   1.339   4.994   5.581
 7171TIP3    H221450   1.417   5.028   5.706
 7172TIP3   OH221451   0.331   4.108   6.054
 7172TIP3    H121452   0.411   4.067   6.087
 7172TIP3    H221453   0.269   4.102   6.127
 7173TIP3   OH221454   0.779   3.545   5.343
 7173TIP3    H121455   0.846   3.497   5.296
 7173TIP3    H221456   0.777   3.504   5.430
 7174TIP3   OH221457   0.268   3.006   5.243
 7174TIP3    H121458   0.231   2.934   5.295
 7174TIP3    H221459   0.302   2.965   5.164
 7175TIP3   OH221460   0.757   3.452   5.606
 7175TIP3    H121461   0.667   3.479   5.624
 7175TIP3    H221462   0.810   3.506   5.664
 7176TIP3   OH221463   0.412   3.885   4.736
 7176TIP3    H121464   0.409   3.790   4.733
 7176TIP3    H221465   0.423   3.906   4.828
 7177TIP3   OH221466   1.349   4.071   5.340
 7177TIP3    H121467   1.387   4.119   5.266
 7177TIP3    H221468   1.273   4.027   5.303
 7178TIP3   OH221469   0.911   3.128   4.634
 7178TIP3    H121470   0.817   3.107   4.627
 7178TIP3    H221471   0.914   3.223   4.635
 7179TIP3   OH221472   0.874   4.152   5.751
 7179TIP3    H121473   0.922   4.142   5.833
 7179TIP3    H221474   0.841   4.242   5.754
 7180TIP3   OH221475   0.984   3.391   4.716
 7180TIP3    H121476   1.080   3.397   4.718
 7180TIP3    H221477   0.958   3.459   4.654
 7181TIP3   OH221478   0.145   3.886   5.363
 7181TIP3    H121479   0.209   3.838   5.311
 7181TIP3    H221480   0.159   3.855   5.453
 7182TIP3   OH221481   0.618   3.963   4.565
 7182TIP3    H121482   0.594   4.054   4.552
 7182TIP3    H221483   0.551   3.928   4.624
 7183TIP3   OH221484   0.812   3.909   6.044
 7183TIP3    H121485   0.743   3.846   6.022
 7183TIP3    H221486   0.893   3.867   6.014
 7184TIP3   OH221487   1.030   4.440   5.634
 7184TIP3    H121488   0.936   4.421   5.638
 7184TIP3    H221489   1.050   4.482   5.718
 7185TIP3   OH221490   1.396   3.483   4.530
 7185TIP3    H121491   1.342   3.433   4.469
 7185TIP3    H221492   1.397   3.572   4.494
 7186TIP3   OH221493   1.648   4.356   5.611
 7186TIP3    H121494   1.554   4.340   5.603
 7186TIP3    H221495   1.685   4.329   5.527
 7187TIP3   OH221496   1.177   4.281   4.475
 7187TIP3    H121497   1.128   4.220   4.530
 7187TIP3    H221498   1.170   4.244   4.387
 7188TIP3   OH221499   1.128   3.933   5.232
 7188TIP3    H121500   1.041   3.909   5.264
 7188TIP3    H221501   1.162   3.853   5.193
 7189TIP3   OH221502   0.193   4.126   4.980
 7189TIP3    H121503   0.261   4.153   4.918
 7189TIP3    H221504   0.111   4.156   4.940
 7190TIP3   OH221505   8.242   3.407   4.776
 7190TIP3    H121506   8.256   3.490   4.730
 7190TIP3    H221507   8.198   3.432   4.857
 7191TIP3   OH221508   0.400   3.942   5.001
 7191TIP3    H121509   0.328   4.005   5.004
 7191TIP3    H221510   0.381   3.879   5.070
 7192TIP3   OH221511   0.604   4.464   5.489
 7192TIP3    H121512   0.639   4.544   5.451
 7192TIP3    H221513   0.675   4.431   5.544
 7193TIP3   OH221514   0.185   4.413   4.833
 7193TIP3    H121515   0.097   4.389   4.862
 7193TIP3    H221516   0.201   4.498   4.873
 7194TIP3   OH221517   0.959   4.162   5.488
 7194TIP3    H121518   0.931   4.153   5.579
 7194TIP3    H221519   1.050   4.131   5.488
 7195TIP3   OH221520   0.901   4.027   4.355
 7195TIP3    H121521   0.961   4.011   4.427
 7195TIP3    H221522   0.821   3.980   4.379
 7196TIP3   OH221523   1.169   4.671   5.529
 7196TIP3    H121524   1.099   4.606   5.538
 7196TIP3    H221525   1.146   4.721   5.451
 7197TIP3   OH221526   1.251   4.500   4.158
 7197TIP3    H121527   1.272   4.556   4.083
 7197TIP3    H221528   1.176   4.541   4.199
 7198TIP3   OH221529   0.335   3.268   6.024
 7198TIP3    H121530   0.258   3.230   5.981
 7198TIP3    H221531   0.347   3.216   6.103
 7199TIP3   OH221532   1.094   3.977   4.543
 7199TIP3    H121533   1.071   3.914   4.612
 7199TIP3    H221534   1.190   3.977   4.541
 7200TIP3   OH221535   0.288   3.997   4.316
 7200TIP3    H121536   0.316   3.912   4.281
 7200TIP3    H221537   0.254   3.976   4.403
 7201TIP3   OH221538   0.197   3.968   4.570
 7201TIP3    H121539   0.261   3.933   4.632
 7201TIP3    H221540   0.189   4.060   4.593
 7202TIP3   OH221541   8.467   3.697   4.887
 7202TIP3    H121542   8.462   3.783   4.929
 7202TIP3    H221543   8.425   3.710   4.802
 7203TIP3   OH221544   1.095   3.335   5.723
 7203TIP3    H121545   1.174   3.380   5.754
 7203TIP3    H221546   1.088   3.258   5.779
 7204TIP3   OH221547   0.980   3.087   4.902
 7204TIP3    H121548   0.957   3.108   4.812
 7204TIP3    H221549   1.024   3.166   4.934
 7205TIP3   OH221550   0.528   4.217   4.553
 7205TIP3    H121551   0.519   4.235   4.647
 7205TIP3    H221552   0.520   4.303   4.511
 7206TIP3   OH221553   0.649   3.276   4.998
 7206TIP3    H121554   0.711   3.345   4.972
 7206TIP3    H221555   0.672   3.257   5.089
 7207TIP3   OH221556   0.939   3.570   5.779
 7207TIP3    H121557   0.963   3.615   5.860
 7207TIP3    H221558   0.989   3.488   5.782
 7208TIP3   OH221559   0.801   2.985   5.086
 7208TIP3    H121560   0.780   3.061   5.141
 7208TIP3    H221561   0.869   3.017   5.026
 7209TIP3   OH221562   0.176   4.261   4.593
 7209TIP3    H121563   0.185   4.325   4.522
 7209TIP3    H221564   0.163   4.314   4.672
 7210TIP3   OH221565   0.316   3.015   4.893
 7210TIP3    H121566   0.310   3.107   4.916
 7210TIP3    H221567   0.409   2.994   4.900
 7211TIP3   OH221568   1.552   3.481   5.772
 7211TIP3    H121569   1.457   3.486   5.781
 7211TIP3    H221570   1.566   3.431   5.691
 7212TIP3   OH221571   1.214   3.676   5.147
 7212TIP3    H121572   1.137   3.620   5.158
 7212TIP3    H221573   1.280   3.636   5.203
 7213TIP3   OH221574   8.371   3.171   4.718
 7213TIP3    H121575   8.316   3.243   4.749
 7213TIP3    H221576   8.310   3.101   4.696
 7214TIP3   OH221577   1.193   4.651   5.092
 7214TIP3    H121578   1.154   4.704   5.023
 7214TIP3    H221579   1.288   4.662   5.080
 7215TIP3   OH221580   0.285   2.876   5.607
 7215TIP3    H121581   0.249   2.838   5.526
 7215TIP3    H221582   0.276   2.806   5.672
 7216TIP3   OH221583   0.514   4.723   6.044
 7216TIP3    H121584   0.592   4.674   6.068
 7216TIP3    H221585   0.457   4.658   6.003
 7217TIP3   OH221586   0.440   4.212   4.243
 7217TIP3    H121587   0.394   4.140   4.288
 7217TIP3    H221588   0.517   4.170   4.204
 7218TIP3   OH221589   1.071   4.546   5.881
 7218TIP3    H121590   1.074   4.471   5.941
 7218TIP3    H221591   1.149   4.597   5.903
 7219TIP3   OH221592   0.856   4.235   4.181
 7219TIP3    H121593   0.888   4.167   4.241
 7219TIP3    H221594   0.913   4.228   4.105
 7220TIP3   OH221595   0.732   4.176   6.035
 7220TIP3    H121596   0.690   4.181   5.949
 7220TIP3    H221597   0.771   4.089   6.038
 7221TIP3   OH221598   0.605   3.895   4.299
 7221TIP3    H121599   0.607   3.908   4.394
 7221TIP3    H221600   0.540   3.826   4.286
 7222TIP3   OH221601   1.189   4.214   5.673
 7222TIP3    H121602   1.269   4.239   5.627
 7222TIP3    H221603   1.129   4.288   5.660
 7223TIP3   OH221604   0.316   3.800   6.294
 7223TIP3    H121605   0.234   3.788   6.245
 7223TIP3    H221606   0.293   3.859   6.366
 7224TIP3   OH221607   0.413   3.612   4.778
 7224TIP3    H121608   0.350   3.608   4.850
 7224TIP3    H221609   0.371   3.564   4.707
 7225TIP3   OH221610   0.612   3.720   5.972
 7225TIP3    H121611   0.560   3.791   6.011
 7225TIP3    H221612   0.637   3.754   5.886
 7226TIP3   OH221613   0.387   3.415   4.568
 7226TIP3    H121614   0.367   3.436   4.476
 7226TIP3    H221615   0.483   3.411   4.571
 7227TIP3   OH221616   1.072   4.087   6.027
 7227TIP3    H121617   1.143   4.052   5.973
 7227TIP3    H221618   1.068   4.028   6.102
 7228TIP3   OH221619   1.204   3.750   4.192
 7228TIP3    H121620   1.166   3.696   4.123
 7228TIP3    H221621   1.165   3.837   4.179
 7229TIP3   OH221622   0.695   3.473   6.049
 7229TIP3    H121623   0.704   3.407   5.979
 7229TIP3    H221624   0.666   3.552   6.004
 7230TIP3   OH221625   0.721   3.288   5.838
 7230TIP3    H121626   0.750   3.323   5.755
 7230TIP3    H221627   0.633   3.254   5.820
 7231TIP3   OH221628   0.714   3.816   5.741
 7231TIP3    H121629   0.796   3.853   5.711
 7231TIP3    H221630   0.647   3.854   5.683
 7232TIP3   OH221631   1.286   3.759   6.101
 7232TIP3    H121632   1.319   3.671   6.116
 7232TIP3    H221633   1.362   3.808   6.070
 7233TIP3   OH221634   1.304   4.039   5.845
 7233TIP3    H121635   1.252   4.100   5.793
 7233TIP3    H221636   1.394   4.051   5.815
 7234TIP3   OH221637   0.583   3.563   6.288
 7234TIP3    H121638   0.526   3.488   6.304
 7234TIP3    H221639   0.615   3.551   6.198
 7235TIP3   OH221640   0.813   3.051   5.953
 7235TIP3    H121641   0.777   3.132   5.917
 7235TIP3    H221642   0.746   2.985   5.935
 7236TIP3   OH221643   0.938   3.531   6.163
 7236TIP3    H121644   0.930   3.517   6.257
 7236TIP3    H221645   0.855   3.502   6.127
 7237TIP3   OH221646   1.172   3.475   6.023
 7237TIP3    H121647   1.095   3.479   6.079
 7237TIP3    H221648   1.244   3.451   6.082
 7238TIP3   OH221649   1.402   3.445   6.175
 7238TIP3    H121650   1.418   3.351   6.182
 7238TIP3    H221651   1.399   3.476   6.266
 7239TIP3   OH221652   0.434   3.335   6.342
 7239TIP3    H121653   0.427   3.249   6.299
 7239TIP3    H221654   0.461   3.315   6.431
 7240TIP3   OH221655   0.874   3.026   6.218
 7240TIP3    H121656   0.942   2.959   6.211
 7240TIP3    H221657   0.843   3.038   6.128
 7241TIP3   OH221658   0.971   3.246   6.352
 7241TIP3    H121659   0.937   3.173   6.300
 7241TIP3    H221660   0.898   3.307   6.360
 7242TIP3   OH221661   0.206   4.497   4.442
 7242TIP3    H121662   0.295   4.490   4.407
 7242TIP3    H221663   0.156   4.539   4.372
 7243TIP3   OH221664   1.465   4.700   5.086
 7243TIP3    H121665   1.484   4.725   5.177
 7243TIP3    H221666   1.518   4.760   5.033
 7244TIP3   OH221667   1.477   4.732   5.367
 7244TIP3    H121668   1.432   4.648   5.363
 7244TIP3    H221669   1.548   4.718   5.430
 7245TIP3   OH221670   1.539   4.446   5.941
 7245TIP3    H121671   1.467   4.449   6.004
 7245TIP3    H221672   1.579   4.533   5.947
 7246TIP3   OH221673   1.382   3.960   4.542
 7246TIP3    H121674   1.466   3.962   4.496
 7246TIP3    H221675   1.401   3.918   4.626
 7247TIP3   OH221676   1.488   3.811   4.751
 7247TIP3    H121677   1.423   3.771   4.809
 7247TIP3    H221678   1.557   3.843   4.809
 7248TIP3   OH221679   1.526   4.209   5.176
 7248TIP3    H121680   1.579   4.141   5.135
 7248TIP3    H221681   1.529   4.282   5.114
 7249TIP3   OH221682   1.333   4.496   5.374
 7249TIP3    H121683   1.266   4.539   5.427
 7249TIP3    H221684   1.283   4.455   5.302
 7250TIP3   OH221685   1.380   3.721   4.395
 7250TIP3    H121686   1.318   3.719   4.322
 7250TIP3    H221687   1.354   3.797   4.447
 7251TIP3   OH221688   1.250   3.369   4.336
 7251TIP3    H121689   1.177   3.415   4.294
 7251TIP3    H221690   1.236   3.277   4.315
 7252TIP3   OH221691   1.280   3.669   4.877
 7252TIP3    H121692   1.282   3.575   4.862
 7252TIP3    H221693   1.260   3.678   4.970
 7253TIP3   OH221694   1.560   4.085   5.747
 7253TIP3    H121695   1.625   4.016   5.733
 7253TIP3    H221696   1.576   4.148   5.676
 7254TIP3   OH221697   1.733   3.871   5.737
 7254TIP3    H121698   1.661   3.829   5.784
 7254TIP3    H221699   1.809   3.817   5.758
 7255TIP3   OH221700   1.206   3.097   4.301
 7255TIP3    H121701   1.266   3.078   4.373
 7255TIP3    H221702   1.121   3.063   4.331
 7256TIP3   OH221703   1.275   3.393   4.770
 7256TIP3    H121704   1.320   3.310   4.783
 7256TIP3    H221705   1.315   3.430   4.692
 7257TIP3   OH221706   1.425   3.554   5.292
 7257TIP3    H121707   1.506   3.572   5.244
 7257TIP3    H221708   1.438   3.594   5.378
 7258TIP3   OH221709   1.501   3.706   5.519
 7258TIP3    H121710   1.428   3.738   5.574
 7258TIP3    H221711   1.531   3.784   5.473
 7259TIP3   OH221712   0.044   3.418   6.345
 7259TIP3    H121713   0.099   3.342   6.328
 7259TIP3    H221714   0.059   3.438   6.438
 7260TIP3   OH221715   1.959   3.305   6.057
 7260TIP3    H121716   2.025   3.249   6.017
 7260TIP3    H221717   1.921   3.354   5.984
 7261TIP3   OH221718   1.388   3.143   4.820
 7261TIP3    H121719   1.436   3.128   4.902
 7261TIP3    H221720   1.325   3.071   4.816
 7262TIP3   OH221721   0.148   3.104   5.568
 7262TIP3    H121722   0.202   3.025   5.577
 7262TIP3    H221723   0.211   3.174   5.552
 7263TIP3   OH221724   1.810   3.415   5.856
 7263TIP3    H121725   1.724   3.455   5.867
 7263TIP3    H221726   1.793   3.335   5.806
 7264TIP3   OH221727   1.431   3.052   4.459
 7264TIP3    H121728   1.477   2.992   4.401
 7264TIP3    H221729   1.487   3.130   4.464
 7265TIP3   OH221730   8.403   2.852   5.249
 7265TIP3    H121731   8.334   2.787   5.265
 7265TIP3    H221732   8.395   2.873   5.156
 7266TIP3   OH221733   1.031   4.618   4.723
 7266TIP3    H121734   1.087   4.605   4.646
 7266TIP3    H221735   1.073   4.689   4.771
 7267TIP3   OH221736   8.472   2.998   6.152
 7267TIP3    H121737   8.382   2.978   6.177
 7267TIP3    H221738   8.481   2.963   6.064
 7268TIP3   OH221739   0.283   4.429   5.704
 7268TIP3    H121740   0.305   4.495   5.638
 7268TIP3    H221741   0.289   4.345   5.657
 7269TIP3   OH221742   0.790   4.675   5.784
 7269TIP3    H121743   0.823   4.676   5.874
 7269TIP3    H221744   0.853   4.730   5.736
 7270TIP3   OH221745   0.959   4.849   5.657
 7270TIP3    H121746   1.032   4.800   5.617
 7270TIP3    H221747   1.002   4.911   5.716
 7271TIP3   OH221748   1.725   3.168   5.754
 7271TIP3    H121749   1.638   3.160   5.715
 7271TIP3    H221750   1.762   3.080   5.749
 7272TIP3   OH221751   0.289   4.579   5.473
 7272TIP3    H121752   0.205   4.621   5.492
 7272TIP3    H221753   0.288   4.564   5.379
 7273TIP3   OH221754   0.666   4.706   5.365
 7273TIP3    H121755   0.667   4.725   5.271
 7273TIP3    H221756   0.680   4.791   5.407
 7274TIP3   OH221757   0.922   4.626   5.401
 7274TIP3    H121758   0.830   4.653   5.397
 7274TIP3    H221759   0.969   4.696   5.355
 7275TIP3   OH221760   1.102   4.810   5.296
 7275TIP3    H121761   1.099   4.898   5.258
 7275TIP3    H221762   1.132   4.754   5.225
 7276TIP3   OH221763   0.102   4.436   5.241
 7276TIP3    H121764   0.026   4.379   5.236
 7276TIP3    H221765   0.175   4.381   5.212
 7277TIP3   OH221766   0.455   4.501   5.258
 7277TIP3    H121767   0.426   4.420   5.216
 7277TIP3    H221768   0.503   4.473   5.336
 7278TIP3   OH221769   0.932   3.092   5.398
 7278TIP3    H121770   0.891   3.019   5.444
 7278TIP3    H221771   0.999   3.051   5.344
 7279TIP3   OH221772   1.434   3.007   5.268
 7279TIP3    H121773   1.475   3.056   5.197
 7279TIP3    H221774   1.346   3.044   5.276
 7280TIP3   OH221775   1.552   3.091   5.036
 7280TIP3    H121776   1.619   3.028   5.010
 7280TIP3    H221777   1.594   3.177   5.024
 7281TIP3   OH221778   0.176   2.777   5.372
 7281TIP3    H121779   0.087   2.743   5.381
 7281TIP3    H221780   0.231   2.699   5.372
 7282TIP3   OH221781   0.061   2.659   5.050
 7282TIP3    H121782   0.067   2.719   4.976
 7282TIP3    H221783   0.050   2.716   5.126
 7283TIP3   OH221784   0.650   2.840   5.280
 7283TIP3    H121785   0.700   2.890   5.216
 7283TIP3    H221786   0.690   2.862   5.364
 7284TIP3   OH221787   1.138   2.976   5.259
 7284TIP3    H121788   1.165   2.944   5.173
 7284TIP3    H221789   1.145   2.900   5.316
 7285TIP3   OH221790   1.200   2.934   4.825
 7285TIP3    H121791   1.121   2.983   4.847
 7285TIP3    H221792   1.188   2.849   4.869
 7286TIP3   OH221793   0.103   2.848   4.818
 7286TIP3    H121794   0.144   2.787   4.756
 7286TIP3    H221795   0.175   2.905   4.847
 7287TIP3   OH221796   0.592   3.025   4.902
 7287TIP3    H121797   0.652   2.975   4.958
 7287TIP3    H221798   0.610   3.117   4.924
 7288TIP3   OH221799   0.466   4.450   4.367
 7288TIP3    H121800   0.554   4.472   4.338
 7288TIP3    H221801   0.445   4.370   4.320
 7289TIP3   OH221802   1.188   4.555   4.497
 7289TIP3    H121803   1.179   4.460   4.494
 7289TIP3    H221804   1.143   4.585   4.418
 7290TIP3   OH221805   0.440   3.067   6.250
 7290TIP3    H121806   0.396   3.013   6.315
 7290TIP3    H221807   0.530   3.075   6.281
 7291TIP3   OH221808   0.671   3.080   6.402
 7291TIP3    H121809   0.747   3.053   6.350
 7291TIP3    H221810   0.663   3.012   6.470
 7292TIP3   OH221811   1.469   3.176   6.183
 7292TIP3    H121812   1.486   3.146   6.272
 7292TIP3    H221813   1.554   3.170   6.139
 7293TIP3   OH221814   1.388   4.710   5.697
 7293TIP3    H121815   1.315   4.682   5.642
 7293TIP3    H221816   1.378   4.805   5.703
 7294TIP3   OH221817   1.948   3.956   5.205
 7294TIP3    H121818   1.989   3.895   5.266
 7294TIP3    H221819   2.017   3.981   5.144
 7295TIP3   OH221820   1.936   4.334   4.898
 7295TIP3    H121821   1.949   4.250   4.854
 7295TIP3    H221822   1.976   4.323   4.984
 7296TIP3   OH221823   1.623   3.572   4.669
 7296TIP3    H121824   1.591   3.659   4.694
 7296TIP3    H221825   1.549   3.530   4.626
 7297TIP3   OH221826   1.736   3.892   4.875
 7297TIP3    H121827   1.778   3.813   4.909
 7297TIP3    H221828   1.807   3.942   4.835
 7298TIP3   OH221829   2.595   4.803   4.548
 7298TIP3    H121830   2.623   4.739   4.481
 7298TIP3    H221831   2.604   4.756   4.631
 7299TIP3   OH221832   3.459   3.626   4.890
 7299TIP3    H121833   3.500   3.700   4.934
 7299TIP3    H221834   3.417   3.663   4.813
 7300TIP3   OH221835   2.228   3.447   4.853
 7300TIP3    H121836   2.208   3.523   4.799
 7300TIP3    H221837   2.171   3.378   4.820
 7301TIP3   OH221838   2.931   3.551   4.472
 7301TIP3    H121839   2.982   3.567   4.552
 7301TIP3    H221840   2.984   3.590   4.402
 7302TIP3   OH221841   1.850   3.665   4.986
 7302TIP3    H121842   1.937   3.652   5.025
 7302TIP3    H221843   1.851   3.611   4.907
 7303TIP3   OH221844   3.550   3.839   5.037
 7303TIP3    H121845   3.467   3.888   5.029
 7303TIP3    H221846   3.597   3.884   5.107
 7304TIP3   OH221847   2.201   3.450   5.304
 7304TIP3    H121848   2.160   3.491   5.227
 7304TIP3    H221849   2.141   3.470   5.376
 7305TIP3   OH221850   2.584   4.341   4.263
 7305TIP3    H121851   2.534   4.287   4.202
 7305TIP3    H221852   2.521   4.406   4.294
 7306TIP3   OH221853   2.327   4.236   5.089
 7306TIP3    H121854   2.259   4.297   5.117
 7306TIP3    H221855   2.393   4.291   5.047
 7307TIP3   OH221856   3.082   3.605   4.698
 7307TIP3    H121857   3.053   3.584   4.787
 7307TIP3    H221858   3.152   3.669   4.710
 7308TIP3   OH221859   2.099   3.561   5.072
 7308TIP3    H121860   2.152   3.639   5.087
 7308TIP3    H221861   2.143   3.516   4.999
 7309TIP3   OH221862   2.141   4.434   5.166
 7309TIP3    H121863   2.134   4.526   5.140
 7309TIP3    H221864   2.064   4.419   5.221
 7310TIP3   OH221865   1.469   4.223   4.414
 7310TIP3    H121866   1.478   4.177   4.330
 7310TIP3    H221867   1.403   4.172   4.461
 7311TIP3   OH221868   3.263   3.505   5.048
 7311TIP3    H121869   3.177   3.523   5.011
 7311TIP3    H221870   3.325   3.538   4.983
 7312TIP3   OH221871   2.551   3.148   5.033
 7312TIP3    H121872   2.542   3.056   5.059
 7312TIP3    H221873   2.474   3.191   5.072
 7313TIP3   OH221874   2.677   4.673   4.305
 7313TIP3    H121875   2.733   4.599   4.280
 7313TIP3    H221876   2.729   4.750   4.284
 7314TIP3   OH221877   2.840   4.450   4.216
 7314TIP3    H121878   2.766   4.406   4.258
 7314TIP3    H221879   2.902   4.466   4.286
 7315TIP3   OH221880   3.201   4.587   5.015
 7315TIP3    H121881   3.217   4.515   4.954
 7315TIP3    H221882   3.178   4.662   4.959
 7316TIP3   OH221883   2.459   3.755   3.970
 7316TIP3    H121884   2.524   3.800   4.025
 7316TIP3    H221885   2.510   3.688   3.925
 7317TIP3   OH221886   3.391   4.187   4.843
 7317TIP3    H121887   3.329   4.259   4.835
 7317TIP3    H221888   3.417   4.167   4.753
 7318TIP3   OH221889   3.076   4.050   5.161
 7318TIP3    H121890   3.065   4.133   5.208
 7318TIP3    H221891   3.003   4.049   5.098
 7319TIP3   OH221892   2.152   4.016   5.028
 7319TIP3    H121893   2.111   4.028   4.942
 7319TIP3    H221894   2.221   4.082   5.031
 7320TIP3   OH221895   2.649   4.656   4.780
 7320TIP3    H121896   2.687   4.724   4.835
 7320TIP3    H221897   2.674   4.574   4.822
 7321TIP3   OH221898   2.344   4.530   5.338
 7321TIP3    H121899   2.286   4.590   5.385
 7321TIP3    H221900   2.286   4.479   5.281
 7322TIP3   OH221901   2.697   3.870   4.078
 7322TIP3    H121902   2.726   3.956   4.109
 7322TIP3    H221903   2.717   3.870   3.984
 7323TIP3   OH221904   2.091   4.102   5.504
 7323TIP3    H121905   2.085   4.198   5.508
 7323TIP3    H221906   2.003   4.073   5.484
 7324TIP3   OH221907   2.424   4.564   4.315
 7324TIP3    H121908   2.506   4.612   4.325
 7324TIP3    H221909   2.366   4.626   4.271
 7325TIP3   OH221910   2.144   4.696   5.430
 7325TIP3    H121911   2.121   4.712   5.338
 7325TIP3    H221912   2.060   4.688   5.475
 7326TIP3   OH221913   3.184   3.110   4.118
 7326TIP3    H121914   3.110   3.140   4.172
 7326TIP3    H221915   3.213   3.189   4.072
 7327TIP3   OH221916   1.981   3.892   4.425
 7327TIP3    H121917   1.920   3.837   4.474
 7327TIP3    H221918   2.011   3.956   4.489
 7328TIP3   OH221919   3.012   4.482   3.695
 7328TIP3    H121920   3.006   4.575   3.673
 7328TIP3    H221921   3.102   4.458   3.672
 7329TIP3   OH221922   1.727   4.254   5.371
 7329TIP3    H121923   1.658   4.232   5.308
 7329TIP3    H221924   1.761   4.170   5.400
 7330TIP3   OH221925   1.570   4.445   5.023
 7330TIP3    H121926   1.663   4.462   5.035
 7330TIP3    H221927   1.527   4.523   5.056
 7331TIP3   OH221928   3.411   4.900   5.056
 7331TIP3    H121929   3.441   4.813   5.081
 7331TIP3    H221930   3.336   4.917   5.112
 7332TIP3   OH221931   2.532   4.677   5.197
 7332TIP3    H121932   2.525   4.769   5.225
 7332TIP3    H221933   2.467   4.631   5.250
 7333TIP3   OH221934   2.306   4.777   4.153
 7333TIP3    H121935   2.266   4.762   4.068
 7333TIP3    H221936   2.273   4.863   4.180
 7334TIP3   OH221937   2.517   4.710   3.780
 7334TIP3    H121938   2.567   4.636   3.747
 7334TIP3    H221939   2.551   4.724   3.869
 7335TIP3   OH221940   2.562   4.756   4.051
 7335TIP3    H121941   2.475   4.758   4.091
 7335TIP3    H221942   2.618   4.718   4.118
 7336TIP3   OH221943   3.315   4.010   5.348
 7336TIP3    H121944   3.236   4.014   5.294
 7336TIP3    H221945   3.337   3.917   5.352
 7337TIP3   OH221946   1.919   4.446   5.331
 7337TIP3    H121947   1.967   4.440   5.413
 7337TIP3    H221948   1.849   4.382   5.339
 7338TIP3   OH221949   2.312   3.238   5.158
 7338TIP3    H121950   2.227   3.208   5.125
 7338TIP3    H221951   2.293   3.321   5.201
 7339TIP3   OH221952   2.854   3.378   5.350
 7339TIP3    H121953   2.925   3.351   5.408
 7339TIP3    H221954   2.774   3.353   5.397
 7340TIP3   OH221955   3.078   3.793   5.271
 7340TIP3    H121956   3.039   3.794   5.359
 7340TIP3    H221957   3.060   3.880   5.236
 7341TIP3   OH221958   2.748   3.872   3.808
 7341TIP3    H121959   2.711   3.862   3.720
 7341TIP3    H221960   2.831   3.916   3.794
 7342TIP3   OH221961   2.464   3.289   4.129
 7342TIP3    H121962   2.434   3.295   4.219
 7342TIP3    H221963   2.430   3.206   4.097
 7343TIP3   OH221964   2.247   3.782   5.139
 7343TIP3    H121965   2.200   3.794   5.222
 7343TIP3    H221966   2.225   3.861   5.088
 7344TIP3   OH221967   2.120   3.630   4.687
 7344TIP3    H121968   2.028   3.616   4.711
 7344TIP3    H221969   2.126   3.602   4.596
 7345TIP3   OH221970   2.620   3.718   4.376
 7345TIP3    H121971   2.608   3.783   4.307
 7345TIP3    H221972   2.695   3.667   4.348
 7346TIP3   OH221973   2.804   4.004   5.489
 7346TIP3    H121974   2.775   3.930   5.543
 7346TIP3    H221975   2.897   4.013   5.509
 7347TIP3   OH221976   2.083   3.777   5.369
 7347TIP3    H121977   2.153   3.822   5.416
 7347TIP3    H221978   2.066   3.698   5.421
 7348TIP3   OH221979   2.116   3.259   4.098
 7348TIP3    H121980   2.115   3.262   4.193
 7348TIP3    H221981   2.041   3.313   4.071
 7349TIP3   OH221982   1.689   3.316   4.976
 7349TIP3    H121983   1.752   3.351   5.039
 7349TIP3    H221984   1.727   3.336   4.890
 7350TIP3   OH221985   1.586   3.286   4.469
 7350TIP3    H121986   1.629   3.320   4.391
 7350TIP3    H221987   1.525   3.355   4.496
 7351TIP3   OH221988   2.492   3.441   4.730
 7351TIP3    H121989   2.415   3.446   4.786
 7351TIP3    H221990   2.566   3.440   4.791
 7352TIP3   OH221991   1.877   3.513   4.762
 7352TIP3    H121992   1.794   3.519   4.714
 7352TIP3    H221993   1.915   3.430   4.735
 7353TIP3   OH221994   2.143   3.518   4.436
 7353TIP3    H121995   2.236   3.540   4.431
 7353TIP3    H221996   2.108   3.542   4.351
 7354TIP3   OH221997   2.982   3.537   4.952
 7354TIP3    H121998   2.942   3.573   5.032
 7354TIP3    H221999   2.915   3.479   4.916
 7355TIP3   OH222000   2.036   3.550   4.186
 7355TIP3    H122001   1.968   3.509   4.132
 7355TIP3    H222002   2.092   3.597   4.124
 7356TIP3   OH222003   3.146   5.235   5.170
 7356TIP3    H122004   3.146   5.250   5.075
 7356TIP3    H222005   3.226   5.279   5.200
 7357TIP3   OH222006   2.058   4.373   5.567
 7357TIP3    H122007   2.141   4.394   5.610
 7357TIP3    H222008   1.994   4.376   5.637
 7358TIP3   OH222009   2.031   3.278   4.732
 7358TIP3    H122010   2.005   3.201   4.782
 7358TIP3    H222011   2.063   3.243   4.649
 7359TIP3   OH222012   2.502   3.676   5.172
 7359TIP3    H122013   2.422   3.719   5.141
 7359TIP3    H222014   2.566   3.747   5.179
 7360TIP3   OH222015   2.177   4.114   4.247
 7360TIP3    H122016   2.134   4.038   4.208
 7360TIP3    H222017   2.162   4.103   4.341
 7361TIP3   OH222018   3.202   4.396   4.820
 7361TIP3    H122019   3.206   4.438   4.734
 7361TIP3    H222020   3.109   4.390   4.840
 7362TIP3   OH222021   2.686   3.415   4.025
 7362TIP3    H122022   2.610   3.379   4.071
 7362TIP3    H222023   2.721   3.481   4.085
 7363TIP3   OH222024   2.653   4.413   5.190
 7363TIP3    H122025   2.704   4.398   5.270
 7363TIP3    H222026   2.617   4.501   5.201
 7364TIP3   OH222027   2.794   3.619   4.176
 7364TIP3    H122028   2.888   3.618   4.194
 7364TIP3    H222029   2.777   3.705   4.138
 7365TIP3   OH222030   2.383   4.222   4.088
 7365TIP3    H122031   2.345   4.309   4.076
 7365TIP3    H222032   2.321   4.176   4.145
 7366TIP3   OH222033   1.815   4.029   5.511
 7366TIP3    H122034   1.823   3.997   5.601
 7366TIP3    H222035   1.748   3.973   5.472
 7367TIP3   OH222036   2.584   4.169   5.502
 7367TIP3    H122037   2.532   4.139   5.427
 7367TIP3    H222038   2.667   4.123   5.493
 7368TIP3   OH222039   2.807   4.702   5.121
 7368TIP3    H122040   2.712   4.690   5.126
 7368TIP3    H222041   2.831   4.737   5.207
 7369TIP3   OH222042   3.180   3.742   4.005
 7369TIP3    H122043   3.125   3.701   3.938
 7369TIP3    H222044   3.192   3.832   3.974
 7370TIP3   OH222045   3.455   4.598   5.106
 7370TIP3    H122046   3.361   4.606   5.097
 7370TIP3    H222047   3.486   4.575   5.018
 7371TIP3   OH222048   2.925   4.569   3.963
 7371TIP3    H122049   2.897   4.513   4.035
 7371TIP3    H222050   2.942   4.509   3.890
 7372TIP3   OH222051   1.620   3.718   4.258
 7372TIP3    H122052   1.661   3.800   4.284
 7372TIP3    H222053   1.538   3.714   4.307
 7373TIP3   OH222054   2.351   4.733   4.977
 7373TIP3    H122055   2.385   4.810   4.931
 7373TIP3    H222056   2.425   4.702   5.029
 7374TIP3   OH222057   2.715   4.420   4.916
 7374TIP3    H122058   2.703   4.409   5.010
 7374TIP3    H222059   2.703   4.333   4.879
 7375TIP3   OH222060   2.692   4.282   3.832
 7375TIP3    H122061   2.738   4.251   3.910
 7375TIP3    H222062   2.605   4.242   3.837
 7376TIP3   OH222063   2.962   4.918   5.005
 7376TIP3    H122064   2.890   4.857   5.019
 7376TIP3    H222065   2.927   4.982   4.943
 7377TIP3   OH222066   3.004   4.755   3.640
 7377TIP3    H122067   3.012   4.806   3.559
 7377TIP3    H222068   2.935   4.798   3.689
 7378TIP3   OH222069   2.033   3.533   5.509
 7378TIP3    H122070   1.938   3.543   5.516
 7378TIP3    H222071   2.057   3.477   5.583
 7379TIP3   OH222072   2.846   4.203   4.046
 7379TIP3    H122073   2.835   4.267   4.116
 7379TIP3    H222074   2.941   4.196   4.035
 7380TIP3   OH222075   1.779   4.646   5.161
 7380TIP3    H122076   1.828   4.586   5.216
 7380TIP3    H222077   1.796   4.733   5.199
 7381TIP3   OH222078   2.043   4.263   3.855
 7381TIP3    H122079   2.056   4.172   3.831
 7381TIP3    H222080   2.032   4.262   3.950
 7382TIP3   OH222081   1.988   4.285   4.128
 7382TIP3    H122082   2.059   4.244   4.176
 7382TIP3    H222083   1.998   4.379   4.145
 7383TIP3   OH222084   1.693   3.980   4.347
 7383TIP3    H122085   1.759   4.005   4.411
 7383TIP3    H222086   1.717   4.028   4.268
 7384TIP3   OH222087   2.876   3.617   5.200
 7384TIP3    H122088   2.957   3.656   5.233
 7384TIP3    H222089   2.865   3.537   5.252
 7385TIP3   OH222090   2.775   3.344   4.391
 7385TIP3    H122091   2.744   3.383   4.310
 7385TIP3    H222092   2.828   3.413   4.432
 7386TIP3   OH222093   2.256   4.459   4.054
 7386TIP3    H122094   2.179   4.489   4.102
 7386TIP3    H222095   2.280   4.534   3.999
 7387TIP3   OH222096   2.424   3.543   4.474
 7387TIP3    H122097   2.488   3.608   4.445
 7387TIP3    H222098   2.446   3.528   4.566
 7388TIP3   OH222099   2.706   3.855   5.245
 7388TIP3    H122100   2.746   3.898   5.321
 7388TIP3    H222101   2.762   3.779   5.229
 7389TIP3   OH222102   2.593   3.234   4.572
 7389TIP3    H122103   2.568   3.310   4.625
 7389TIP3    H222104   2.663   3.266   4.515
 7390TIP3   OH222105   2.018   4.563   4.154
 7390TIP3    H122106   1.995   4.622   4.082
 7390TIP3    H222107   2.024   4.620   4.230
 7391TIP3   OH222108   2.106   3.249   4.377
 7391TIP3    H122109   2.096   3.340   4.405
 7391TIP3    H222110   2.200   3.232   4.385
 7392TIP3   OH222111   3.343   3.734   5.260
 7392TIP3    H122112   3.248   3.741   5.270
 7392TIP3    H222113   3.356   3.684   5.180
 7393TIP3   OH222114   1.749   4.144   4.125
 7393TIP3    H122115   1.821   4.206   4.132
 7393TIP3    H222116   1.777   4.081   4.058
 7394TIP3   OH222117   1.637   3.435   4.243
 7394TIP3    H122118   1.659   3.528   4.255
 7394TIP3    H222119   1.555   3.436   4.193
 7395TIP3   OH222120   3.013   4.965   4.601
 7395TIP3    H122121   2.956   4.994   4.529
 7395TIP3    H222122   3.099   4.953   4.560
 7396TIP3   OH222123   2.046   3.158   5.118
 7396TIP3    H122124   2.018   3.126   5.032
 7396TIP3    H222125   2.039   3.081   5.175
 7397TIP3   OH222126   1.774   4.960   5.579
 7397TIP3    H122127   1.850   4.971   5.637
 7397TIP3    H222128   1.768   4.866   5.565
 7398TIP3   OH222129   2.227   4.867   5.642
 7398TIP3    H122130   2.317   4.898   5.638
 7398TIP3    H222131   2.218   4.806   5.569
 7399TIP3   OH222132   2.199   4.461   3.740
 7399TIP3    H122133   2.152   4.393   3.787
 7399TIP3    H222134   2.274   4.415   3.701
 7400TIP3   OH222135   2.863   4.799   5.373
 7400TIP3    H122136   2.877   4.728   5.435
 7400TIP3    H222137   2.936   4.859   5.388
 7401TIP3   OH222138   2.643   4.496   3.664
 7401TIP3    H122139   2.678   4.430   3.724
 7401TIP3    H222140   2.700   4.492   3.587
 7402TIP3   OH222141   1.872   4.352   5.774
 7402TIP3    H122142   1.893   4.259   5.782
 7402TIP3    H222143   1.786   4.353   5.731
 7403TIP3   OH222144   1.859   3.956   3.958
 7403TIP3    H122145   1.910   3.925   4.033
 7403TIP3    H222146   1.925   3.974   3.891
 7404TIP3   OH222147   2.495   4.431   5.547
 7404TIP3    H122148   2.455   4.457   5.464
 7404TIP3    H222149   2.539   4.348   5.528
 7405TIP3   OH222150   2.435   4.176   3.817
 7405TIP3    H122151   2.410   4.183   3.910
 7405TIP3    H222152   2.417   4.085   3.794
 7406TIP3   OH222153   2.986   4.480   5.155
 7406TIP3    H122154   3.064   4.522   5.118
 7406TIP3    H222155   2.914   4.540   5.134
 7407TIP3   OH222156   1.983   4.096   5.772
 7407TIP3    H122157   2.049   4.082   5.704
 7407TIP3    H222158   2.033   4.111   5.852
 7408TIP3   OH222159   2.037   3.891   4.157
 7408TIP3    H122160   2.018   3.871   4.249
 7408TIP3    H222161   2.090   3.817   4.128
 7409TIP3   OH222162   2.299   3.935   5.434
 7409TIP3    H122163   2.236   4.002   5.461
 7409TIP3    H222164   2.359   3.980   5.374
 7410TIP3   OH222165   2.189   3.702   4.018
 7410TIP3    H122166   2.159   3.715   3.928
 7410TIP3    H222167   2.284   3.717   4.013
 7411TIP3   OH222168   2.872   4.345   5.519
 7411TIP3    H122169   2.935   4.307   5.458
 7411TIP3    H222170   2.876   4.288   5.596
 7412TIP3   OH222171   2.971   4.002   3.704
 7412TIP3    H122172   2.963   3.956   3.621
 7412TIP3    H222173   2.947   4.092   3.684
 7413TIP3   OH222174   2.457   3.743   5.554
 7413TIP3    H122175   2.458   3.662   5.503
 7413TIP3    H222176   2.408   3.805   5.500
 7414TIP3   OH222177   2.452   3.521   5.385
 7414TIP3    H122178   2.483   3.568   5.308
 7414TIP3    H222179   2.363   3.493   5.362
 7415TIP3   OH222180   2.473   4.068   5.268
 7415TIP3    H122181   2.541   4.017   5.222
 7415TIP3    H222182   2.431   4.118   5.198
 7416TIP3   OH222183   3.070   4.030   5.591
 7416TIP3    H122184   3.092   3.937   5.587
 7416TIP3    H222185   3.152   4.075   5.571
 7417TIP3   OH222186   3.099   4.295   5.320
 7417TIP3    H122187   3.050   4.359   5.270
 7417TIP3    H222188   3.190   4.306   5.291
 7418TIP3   OH222189   2.348   3.837   5.795
 7418TIP3    H122190   2.278   3.774   5.813
 7418TIP3    H222191   2.376   3.816   5.706
 7419TIP3   OH222192   2.598   3.297   5.440
 7419TIP3    H122193   2.551   3.377   5.420
 7419TIP3    H222194   2.535   3.227   5.425
 7420TIP3   OH222195   2.719   3.788   5.638
 7420TIP3    H122196   2.709   3.772   5.732
 7420TIP3    H222197   2.633   3.768   5.601
 7421TIP3   OH222198   2.975   3.762   5.519
 7421TIP3    H122199   2.894   3.748   5.568
 7421TIP3    H222200   3.042   3.721   5.574
 7422TIP3   OH222201   3.200   3.695   5.667
 7422TIP3    H122202   3.214   3.601   5.674
 7422TIP3    H222203   3.197   3.726   5.758
 7423TIP3   OH222204   2.177   3.614   5.849
 7423TIP3    H122205   2.184   3.528   5.808
 7423TIP3    H222206   2.218   3.602   5.935
 7424TIP3   OH222207   2.659   3.290   5.708
 7424TIP3    H122208   2.729   3.224   5.705
 7424TIP3    H222209   2.631   3.298   5.616
 7425TIP3   OH222210   2.755   3.507   5.849
 7425TIP3    H122211   2.726   3.435   5.794
 7425TIP3    H222212   2.682   3.570   5.847
 7426TIP3   OH222213   2.004   4.749   3.950
 7426TIP3    H122214   2.093   4.730   3.922
 7426TIP3    H222215   1.965   4.796   3.876
 7427TIP3   OH222216   1.475   4.127   4.147
 7427TIP3    H122217   1.569   4.141   4.137
 7427TIP3    H222218   1.458   4.044   4.104
 7428TIP3   OH222219   1.385   4.719   4.590
 7428TIP3    H122220   1.318   4.665   4.549
 7428TIP3    H222221   1.426   4.663   4.655
 7429TIP3   OH222222   1.528   4.558   4.759
 7429TIP3    H122223   1.516   4.492   4.827
 7429TIP3    H222224   1.587   4.623   4.798
 7430TIP3   OH222225   3.300   4.996   4.522
 7430TIP3    H122226   3.304   5.019   4.614
 7430TIP3    H222227   3.309   4.900   4.521
 7431TIP3   OH222228   3.288   4.995   4.823
 7431TIP3    H122229   3.233   4.917   4.818
 7431TIP3    H222230   3.351   4.976   4.892
 7432TIP3   OH222231   3.330   4.690   5.429
 7432TIP3    H122232   3.259   4.701   5.493
 7432TIP3    H222233   3.374   4.775   5.428
 7433TIP3   OH222234   3.131   4.219   4.033
 7433TIP3    H122235   3.185   4.284   3.989
 7433TIP3    H222236   3.161   4.219   4.124
 7434TIP3   OH222237   3.123   4.773   4.829
 7434TIP3    H122238   3.055   4.817   4.880
 7434TIP3    H222239   3.080   4.750   4.746
 7435TIP3   OH222240   3.181   3.991   3.881
 7435TIP3    H122241   3.108   3.987   3.819
 7435TIP3    H222242   3.162   4.068   3.935
 7436TIP3   OH222243   3.030   3.624   3.808
 7436TIP3    H122244   2.971   3.635   3.733
 7436TIP3    H222245   3.045   3.530   3.813
 7437TIP3   OH222246   1.691   3.993   5.128
 7437TIP3    H122247   1.691   3.960   5.038
 7437TIP3    H222248   1.783   3.988   5.156
 7438TIP3   OH222249   3.361   4.347   5.230
 7438TIP3    H122250   3.424   4.277   5.213
 7438TIP3    H222251   3.394   4.422   5.180
 7439TIP3   OH222252   3.528   4.128   5.219
 7439TIP3    H122253   3.456   4.087   5.266
 7439TIP3    H222254   3.604   4.073   5.238
 7440TIP3   OH222255   3.053   3.348   3.809
 7440TIP3    H122256   3.129   3.330   3.865
 7440TIP3    H222257   2.981   3.299   3.850
 7441TIP3   OH222258   3.065   3.618   4.230
 7441TIP3    H122259   3.120   3.542   4.250
 7441TIP3    H222260   3.115   3.667   4.164
 7442TIP3   OH222261   3.271   3.807   4.752
 7442TIP3    H122262   3.278   3.871   4.681
 7442TIP3    H222263   3.278   3.860   4.832
 7443TIP3   OH222264   3.299   3.967   4.985
 7443TIP3    H122265   3.228   3.994   5.043
 7443TIP3    H222266   3.331   4.048   4.946
 7444TIP3   OH222267   1.911   3.665   5.786
 7444TIP3    H122268   2.005   3.663   5.802
 7444TIP3    H222269   1.879   3.583   5.823
 7445TIP3   OH222270   3.750   3.565   5.542
 7445TIP3    H122271   3.815   3.505   5.507
 7445TIP3    H222272   3.716   3.611   5.466
 7446TIP3   OH222273   3.193   3.385   4.311
 7446TIP3    H122274   3.237   3.377   4.395
 7446TIP3    H222275   3.127   3.315   4.311
 7447TIP3   OH222276   1.889   3.384   5.157
 7447TIP3    H122277   1.942   3.305   5.153
 7447TIP3    H222278   1.949   3.455   5.131
 7448TIP3   OH222279   1.668   3.647   5.199
 7448TIP3    H122280   1.720   3.640   5.119
 7448TIP3    H222281   1.707   3.720   5.246
 7449TIP3   OH222282   3.604   3.670   5.335
 7449TIP3    H122283   3.518   3.711   5.346
 7449TIP3    H222284   3.587   3.589   5.287
 7450TIP3   OH222285   3.281   3.318   3.961
 7450TIP3    H122286   3.360   3.265   3.946
 7450TIP3    H222287   3.314   3.408   3.964
 7451TIP3   OH222288   1.651   3.131   4.685
 7451TIP3    H122289   1.569   3.133   4.735
 7451TIP3    H222290   1.638   3.195   4.615
 7452TIP3   OH222291   2.807   4.887   4.210
 7452TIP3    H122292   2.864   4.875   4.134
 7452TIP3    H222293   2.855   4.946   4.268
 7453TIP3   OH222294   1.887   3.213   5.525
 7453TIP3    H122295   1.834   3.204   5.604
 7453TIP3    H222296   1.831   3.261   5.464
 7454TIP3   OH222297   1.907   4.679   5.581
 7454TIP3    H122298   1.815   4.654   5.578
 7454TIP3    H222299   1.929   4.679   5.674
 7455TIP3   OH222300   2.131   4.713   5.143
 7455TIP3    H122301   2.079   4.788   5.113
 7455TIP3    H222302   2.212   4.719   5.092
 7456TIP3   OH222303   2.517   4.945   5.281
 7456TIP3    H122304   2.556   4.936   5.368
 7456TIP3    H222305   2.578   5.000   5.233
 7457TIP3   OH222306   2.706   5.102   5.155
 7457TIP3    H122307   2.765   5.049   5.102
 7457TIP3    H222308   2.764   5.155   5.210
 7458TIP3   OH222309   3.516   3.423   5.237
 7458TIP3    H122310   3.427   3.411   5.204
 7458TIP3    H222311   3.555   3.335   5.233
 7459TIP3   OH222312   1.785   4.950   5.192
 7459TIP3    H122313   1.694   4.967   5.168
 7459TIP3    H222314   1.805   5.018   5.256
 7460TIP3   OH222315   2.016   4.944   5.042
 7460TIP3    H122316   1.933   4.947   5.089
 7460TIP3    H222317   1.995   4.968   4.952
 7461TIP3   OH222318   2.428   4.960   4.835
 7461TIP3    H122319   2.362   4.977   4.768
 7461TIP3    H222320   2.439   5.044   4.879
 7462TIP3   OH222321   2.701   4.916   4.882
 7462TIP3    H122322   2.608   4.922   4.861
 7462TIP3    H222323   2.742   4.986   4.832
 7463TIP3   OH222324   2.909   5.110   4.804
 7463TIP3    H122325   2.893   5.195   4.762
 7463TIP3    H222326   2.945   5.056   4.735
 7464TIP3   OH222327   1.705   4.730   4.904
 7464TIP3    H122328   1.725   4.709   4.995
 7464TIP3    H222329   1.777   4.691   4.854
 7465TIP3   OH222330   1.908   4.596   4.787
 7465TIP3    H122331   1.919   4.506   4.816
 7465TIP3    H222332   1.997   4.628   4.772
 7466TIP3   OH222333   2.176   4.705   4.757
 7466TIP3    H122334   2.225   4.648   4.698
 7466TIP3    H222335   2.228   4.709   4.837
 7467TIP3   OH222336   2.721   3.356   4.872
 7467TIP3    H122337   2.685   3.286   4.925
 7467TIP3    H222338   2.793   3.316   4.824
 7468TIP3   OH222339   3.232   3.263   4.757
 7468TIP3    H122340   3.273   3.316   4.689
 7468TIP3    H222341   3.143   3.298   4.764
 7469TIP3   OH222342   3.356   3.361   4.535
 7469TIP3    H122343   3.420   3.295   4.506
 7469TIP3    H222344   3.405   3.444   4.533
 7470TIP3   OH222345   1.964   3.050   4.876
 7470TIP3    H122346   1.875   3.016   4.885
 7470TIP3    H222347   2.018   2.971   4.869
 7471TIP3   OH222348   1.772   2.945   4.516
 7471TIP3    H122349   1.805   2.998   4.444
 7471TIP3    H222350   1.736   3.008   4.578
 7472TIP3   OH222351   2.446   3.091   4.771
 7472TIP3    H122352   2.492   3.141   4.704
 7472TIP3    H222353   2.484   3.121   4.854
 7473TIP3   OH222354   2.939   3.234   4.752
 7473TIP3    H122355   2.963   3.200   4.665
 7473TIP3    H222356   2.945   3.159   4.810
 7474TIP3   OH222357   2.994   3.188   4.307
 7474TIP3    H122358   2.916   3.236   4.334
 7474TIP3    H222359   2.984   3.102   4.346
 7475TIP3   OH222360   1.476   4.524   4.315
 7475TIP3    H122361   1.398   4.499   4.265
 7475TIP3    H222362   1.496   4.613   4.284
 7476TIP3   OH222363   1.891   3.087   4.293
 7476TIP3    H122364   1.938   3.028   4.234
 7476TIP3    H222365   1.960   3.143   4.329
 7477TIP3   OH222366   2.382   3.284   4.392
 7477TIP3    H122367   2.443   3.238   4.449
 7477TIP3    H222368   2.390   3.376   4.417
 7478TIP3   OH222369   2.262   4.685   3.882
 7478TIP3    H122370   2.346   4.712   3.845
 7478TIP3    H222371   2.232   4.613   3.825
 7479TIP3   OH222372   2.958   4.837   3.982
 7479TIP3    H122373   2.954   4.742   3.978
 7479TIP3    H222374   2.916   4.866   3.901
 7480TIP3   OH222375   2.193   3.342   5.758
 7480TIP3    H122376   2.159   3.275   5.818
 7480TIP3    H222377   2.285   3.349   5.780
 7481TIP3   OH222378   2.441   3.345   5.881
 7481TIP3    H122379   2.518   3.323   5.828
 7481TIP3    H222380   2.437   3.275   5.946
 7482TIP3   OH222381   1.571   4.534   3.932
 7482TIP3    H122382   1.584   4.568   4.021
 7482TIP3    H222383   1.649   4.482   3.914
 7483TIP3   OH222384   3.262   3.425   5.668
 7483TIP3    H122385   3.279   3.396   5.757
 7483TIP3    H222386   3.347   3.422   5.624
 7484TIP3   OH222387   3.172   4.960   5.182
 7484TIP3    H122388   3.101   4.932   5.125
 7484TIP3    H222389   3.164   5.055   5.187
 7485TIP3   OH222390   4.457   4.378   3.905
 7485TIP3    H122391   4.420   4.459   3.869
 7485TIP3    H222392   4.390   4.312   3.891
 7486TIP3   OH222393   3.763   4.679   4.490
 7486TIP3    H122394   3.731   4.589   4.477
 7486TIP3    H222395   3.846   4.668   4.534
 7487TIP3   OH222396   4.381   5.082   4.026
 7487TIP3    H122397   4.407   5.017   3.961
 7487TIP3    H222398   4.388   5.037   4.110
 7488TIP3   OH222399   4.221   4.548   4.374
 7488TIP3    H122400   4.197   4.516   4.461
 7488TIP3    H222401   4.313   4.570   4.381
 7489TIP3   OH222402   5.304   3.885   4.355
 7489TIP3    H122403   5.320   3.970   4.395
 7489TIP3    H222404   5.341   3.891   4.267
 7490TIP3   OH222405   3.998   3.725   4.317
 7490TIP3    H122406   3.955   3.810   4.325
 7490TIP3    H222407   3.929   3.666   4.286
 7491TIP3   OH222408   5.364   4.104   4.523
 7491TIP3    H122409   5.276   4.141   4.514
 7491TIP3    H222410   5.394   4.133   4.609
 7492TIP3   OH222411   4.006   3.649   4.821
 7492TIP3    H122412   3.938   3.600   4.775
 7492TIP3    H222413   3.963   3.683   4.899
 7493TIP3   OH222414   4.355   4.589   3.757
 7493TIP3    H122415   4.313   4.551   3.680
 7493TIP3    H222416   4.296   4.659   3.784
 7494TIP3   OH222417   3.310   4.399   3.916
 7494TIP3    H122418   3.285   4.412   3.824
 7494TIP3    H222419   3.340   4.485   3.945
 7495TIP3   OH222420   4.789   4.911   4.157
 7495TIP3    H122421   4.702   4.884   4.187
 7495TIP3    H222422   4.774   4.993   4.111
 7496TIP3   OH222423   5.120   3.779   4.540
 7496TIP3    H122424   5.033   3.805   4.512
 7496TIP3    H222425   5.178   3.803   4.467
 7497TIP3   OH222426   4.353   3.372   4.521
 7497TIP3    H122427   4.338   3.283   4.552
 7497TIP3    H222428   4.279   3.423   4.555
 7498TIP3   OH222429   4.467   4.933   3.807
 7498TIP3    H122430   4.519   4.854   3.796
 7498TIP3    H222431   4.525   5.004   3.778
 7499TIP3   OH222432   4.607   4.706   3.746
 7499TIP3    H122433   4.529   4.651   3.745
 7499TIP3    H222434   4.680   4.644   3.739
 7500TIP3   OH222435   5.015   4.764   4.490
 7500TIP3    H122436   4.981   4.694   4.435
 7500TIP3    H222437   4.990   4.844   4.445
 7501TIP3   OH222438   4.285   4.192   3.793
 7501TIP3    H122439   4.204   4.231   3.759
 7501TIP3    H222440   4.332   4.164   3.715
 7502TIP3   OH222441   4.250   3.998   3.452
 7502TIP3    H122442   4.313   4.042   3.508
 7502TIP3    H222443   4.301   3.929   3.408
 7503TIP3   OH222444   5.201   4.428   4.319
 7503TIP3    H122445   5.122   4.482   4.307
 7503TIP3    H222446   5.219   4.394   4.231
 7504TIP3   OH222447   4.642   4.254   3.747
 7504TIP3    H122448   4.586   4.294   3.814
 7504TIP3    H222449   4.707   4.205   3.796
 7505TIP3   OH222450   4.877   4.298   4.652
 7505TIP3    H122451   4.860   4.379   4.700
 7505TIP3    H222452   4.799   4.284   4.598
 7506TIP3   OH222453   4.035   4.719   4.236
 7506TIP3    H122454   4.012   4.667   4.159
 7506TIP3    H222455   4.096   4.663   4.286
 7507TIP3   OH222456   4.544   4.877   4.275
 7507TIP3    H122457   4.528   4.954   4.329
 7507TIP3    H222458   4.518   4.803   4.330
 7508TIP3   OH222459   4.126   4.750   4.778
 7508TIP3    H122460   4.054   4.794   4.822
 7508TIP3    H222461   4.084   4.687   4.720
 7509TIP3   OH222462   4.467   4.123   3.577
 7509TIP3    H122463   4.530   4.174   3.628
 7509TIP3    H222464   4.497   4.131   3.487
 7510TIP3   OH222465   3.907   4.346   4.970
 7510TIP3    H122466   3.905   4.441   4.985
 7510TIP3    H222467   3.816   4.321   4.962
 7511TIP3   OH222468   4.213   4.823   3.807
 7511TIP3    H122469   4.297   4.868   3.818
 7511TIP3    H222470   4.159   4.885   3.759
 7512TIP3   OH222471   3.947   4.929   4.914
 7512TIP3    H122472   3.923   4.955   4.825
 7512TIP3    H222473   3.865   4.931   4.963
 7513TIP3   OH222474   4.977   3.360   3.620
 7513TIP3    H122475   4.902   3.384   3.676
 7513TIP3    H222476   4.990   3.437   3.564
 7514TIP3   OH222477   3.759   4.118   3.905
 7514TIP3    H122478   3.667   4.143   3.892
 7514TIP3    H222479   3.756   4.049   3.971
 7515TIP3   OH222480   4.810   4.742   3.174
 7515TIP3    H122481   4.807   4.834   3.148
 7515TIP3    H222482   4.900   4.714   3.153
 7516TIP3   OH222483   3.534   4.502   4.858
 7516TIP3    H122484   3.485   4.467   4.783
 7516TIP3    H222485   3.576   4.425   4.896
 7517TIP3   OH222486   3.327   4.723   4.506
 7517TIP3    H122487   3.406   4.695   4.552
 7517TIP3    H222488   3.265   4.651   4.520
 7518TIP3   OH222489   5.231   5.163   4.563
 7518TIP3    H122490   5.236   5.068   4.566
 7518TIP3    H222491   5.151   5.184   4.612
 7519TIP3   OH222492   4.317   4.927   4.683
 7519TIP3    H122493   4.302   5.013   4.720
 7519TIP3    H222494   4.246   4.873   4.719
 7520TIP3   OH222495   4.109   5.035   3.639
 7520TIP3    H122496   4.065   5.013   3.557
 7520TIP3    H222497   4.072   5.119   3.665
 7521TIP3   OH222498   3.547   4.902   4.058
 7521TIP3    H122499   3.603   4.872   4.130
 7521TIP3    H222500   3.498   4.825   4.031
 7522TIP3   OH222501   4.313   4.964   3.269
 7522TIP3    H122502   4.362   4.889   3.235
 7522TIP3    H222503   4.348   4.978   3.357
 7523TIP3   OH222504   4.365   5.009   3.539
 7523TIP3    H122505   4.278   5.013   3.579
 7523TIP3    H222506   4.420   4.969   3.606
 7524TIP3   OH222507   5.119   4.268   4.828
 7524TIP3    H122508   5.038   4.278   4.777
 7524TIP3    H222509   5.138   4.174   4.822
 7525TIP3   OH222510   3.686   4.731   4.897
 7525TIP3    H122511   3.769   4.693   4.926
 7525TIP3    H222512   3.633   4.656   4.869
 7526TIP3   OH222513   4.133   3.489   4.632
 7526TIP3    H122514   4.046   3.461   4.603
 7526TIP3    H222515   4.118   3.572   4.677
 7527TIP3   OH222516   4.646   3.617   4.831
 7527TIP3    H122517   4.714   3.594   4.895
 7527TIP3    H222518   4.564   3.604   4.877
 7528TIP3   OH222519   4.880   4.035   4.760
 7528TIP3    H122520   4.839   4.038   4.847
 7528TIP3    H222521   4.859   4.120   4.721
 7529TIP3   OH222522   4.545   4.128   3.310
 7529TIP3    H122523   4.505   4.129   3.223
 7529TIP3    H222524   4.631   4.169   3.297
 7530TIP3   OH222525   4.249   3.540   3.599
 7530TIP3    H122526   4.221   3.549   3.689
 7530TIP3    H222527   4.213   3.455   3.571
 7531TIP3   OH222528   4.582   4.259   4.968
 7531TIP3    H122529   4.559   4.187   5.026
 7531TIP3    H222530   4.673   4.280   4.991
 7532TIP3   OH222531   3.921   3.514   3.588
 7532TIP3    H122532   3.914   3.508   3.683
 7532TIP3    H222533   3.845   3.566   3.561
 7533TIP3   OH222534   3.514   3.575   4.471
 7533TIP3    H122535   3.571   3.649   4.452
 7533TIP3    H222536   3.492   3.538   4.386
 7534TIP3   OH222537   3.391   3.569   3.966
 7534TIP3    H122538   3.431   3.598   3.884
 7534TIP3    H222539   3.325   3.635   3.986
 7535TIP3   OH222540   4.643   4.232   4.517
 7535TIP3    H122541   4.587   4.220   4.441
 7535TIP3    H222542   4.592   4.197   4.590
 7536TIP3   OH222543   4.246   3.684   4.219
 7536TIP3    H122544   4.153   3.686   4.242
 7536TIP3    H222545   4.290   3.710   4.299
 7537TIP3   OH222546   3.613   3.741   4.260
 7537TIP3    H122547   3.543   3.689   4.222
 7537TIP3    H222548   3.693   3.693   4.240
 7538TIP3   OH222549   3.932   3.777   3.927
 7538TIP3    H122550   4.021   3.812   3.925
 7538TIP3    H222551   3.893   3.805   3.844
 7539TIP3   OH222552   3.819   3.822   3.678
 7539TIP3    H122553   3.760   3.768   3.626
 7539TIP3    H222554   3.878   3.861   3.613
 7540TIP3   OH222555   4.940   5.498   4.657
 7540TIP3    H122556   4.937   5.513   4.562
 7540TIP3    H222557   5.017   5.546   4.686
 7541TIP3   OH222558   3.883   4.609   5.065
 7541TIP3    H122559   3.965   4.629   5.109
 7541TIP3    H222560   3.817   4.615   5.134
 7542TIP3   OH222561   3.811   3.548   4.216
 7542TIP3    H122562   3.793   3.471   4.269
 7542TIP3    H222563   3.829   3.514   4.128
 7543TIP3   OH222564   4.277   3.977   4.629
 7543TIP3    H122565   4.248   4.005   4.542
 7543TIP3    H222566   4.351   4.034   4.649
 7544TIP3   OH222567   4.050   4.328   3.706
 7544TIP3    H122568   3.977   4.271   3.680
 7544TIP3    H222569   4.026   4.357   3.794
 7545TIP3   OH222570   4.956   4.563   4.283
 7545TIP3    H122571   4.976   4.632   4.219
 7545TIP3    H222572   4.863   4.546   4.273
 7546TIP3   OH222573   4.506   3.624   3.601
 7546TIP3    H122574   4.412   3.607   3.598
 7546TIP3    H222575   4.513   3.717   3.621
 7547TIP3   OH222576   4.482   4.701   4.704
 7547TIP3    H122577   4.455   4.645   4.777
 7547TIP3    H222578   4.420   4.773   4.705
 7548TIP3   OH222579   4.556   3.876   3.695
 7548TIP3    H122580   4.652   3.880   3.699
 7548TIP3    H222581   4.531   3.961   3.659
 7549TIP3   OH222582   4.199   4.489   3.546
 7549TIP3    H122583   4.148   4.570   3.545
 7549TIP3    H222584   4.148   4.429   3.600
 7550TIP3   OH222585   3.629   4.281   4.991
 7550TIP3    H122586   3.638   4.259   5.084
 7550TIP3    H222587   3.563   4.221   4.958
 7551TIP3   OH222588   4.356   4.418   5.000
 7551TIP3    H122589   4.286   4.373   4.952
 7551TIP3    H222590   4.435   4.370   4.976
 7552TIP3   OH222591   4.599   4.978   4.610
 7552TIP3    H122592   4.506   4.952   4.613
 7552TIP3    H222593   4.621   4.998   4.701
 7553TIP3   OH222594   4.953   3.999   3.500
 7553TIP3    H122595   4.914   3.959   3.423
 7553TIP3    H222596   4.987   4.083   3.470
 7554TIP3   OH222597   5.251   4.886   4.565
 7554TIP3    H122598   5.160   4.857   4.572
 7554TIP3    H222599   5.282   4.846   4.484
 7555TIP3   OH222600   4.731   4.813   3.434
 7555TIP3    H122601   4.690   4.743   3.484
 7555TIP3    H222602   4.753   4.774   3.350
 7556TIP3   OH222603   4.696   4.476   4.234
 7556TIP3    H122604   4.606   4.505   4.251
 7556TIP3    H222605   4.685   4.393   4.188
 7557TIP3   OH222606   3.852   4.660   4.000
 7557TIP3    H122607   3.859   4.742   3.950
 7557TIP3    H222608   3.766   4.664   4.041
 7558TIP3   OH222609   3.408   3.968   3.726
 7558TIP3    H122610   3.460   4.043   3.753
 7558TIP3    H222611   3.332   3.970   3.783
 7559TIP3   OH222612   3.961   4.411   3.948
 7559TIP3    H122613   3.930   4.500   3.968
 7559TIP3    H222614   3.907   4.354   4.003
 7560TIP3   OH222615   4.132   5.017   4.484
 7560TIP3    H122616   4.179   5.085   4.437
 7560TIP3    H222617   4.200   4.970   4.533
 7561TIP3   OH222618   3.767   4.912   3.880
 7561TIP3    H122619   3.686   4.922   3.930
 7561TIP3    H222620   3.808   4.999   3.884
 7562TIP3   OH222621   4.511   4.639   4.435
 7562TIP3    H122622   4.483   4.656   4.525
 7562TIP3    H222623   4.595   4.595   4.443
 7563TIP3   OH222624   4.497   4.547   3.338
 7563TIP3    H122625   4.541   4.516   3.416
 7563TIP3    H222626   4.412   4.503   3.339
 7564TIP3   OH222627   4.763   5.170   4.498
 7564TIP3    H122628   4.695   5.106   4.522
 7564TIP3    H222629   4.724   5.220   4.427
 7565TIP3   OH222630   4.806   5.015   3.128
 7565TIP3    H122631   4.823   5.074   3.055
 7565TIP3    H222632   4.736   5.057   3.177
 7566TIP3   OH222633   3.861   3.727   5.038
 7566TIP3    H122634   3.768   3.746   5.051
 7566TIP3    H222635   3.887   3.681   5.118
 7567TIP3   OH222636   4.659   4.457   3.548
 7567TIP3    H122637   4.647   4.387   3.612
 7567TIP3    H222638   4.754   4.460   3.534
 7568TIP3   OH222639   3.608   4.870   4.629
 7568TIP3    H122640   3.672   4.809   4.592
 7568TIP3    H222641   3.629   4.873   4.722
 7569TIP3   OH222642   3.839   4.515   3.337
 7569TIP3    H122643   3.852   4.424   3.310
 7569TIP3    H222644   3.825   4.510   3.432
 7570TIP3   OH222645   3.784   4.532   3.610
 7570TIP3    H122646   3.856   4.502   3.666
 7570TIP3    H222647   3.785   4.627   3.618
 7571TIP3   OH222648   3.507   4.215   3.822
 7571TIP3    H122649   3.443   4.265   3.873
 7571TIP3    H222650   3.532   4.273   3.751
 7572TIP3   OH222651   4.650   3.875   4.726
 7572TIP3    H122652   4.743   3.899   4.730
 7572TIP3    H222653   4.647   3.784   4.755
 7573TIP3   OH222654   4.568   3.616   3.873
 7573TIP3    H122655   4.538   3.600   3.783
 7573TIP3    H222656   4.608   3.702   3.870
 7574TIP3   OH222657   4.050   4.715   3.544
 7574TIP3    H122658   3.968   4.742   3.585
 7574TIP3    H222659   4.074   4.788   3.488
 7575TIP3   OH222660   4.221   3.800   3.965
 7575TIP3    H122661   4.307   3.837   3.944
 7575TIP3    H222662   4.226   3.779   4.058
 7576TIP3   OH222663   4.512   4.112   4.727
 7576TIP3    H122664   4.530   4.154   4.811
 7576TIP3    H222665   4.553   4.026   4.735
 7577TIP3   OH222666   4.388   3.497   4.063
 7577TIP3    H122667   4.350   3.568   4.115
 7577TIP3    H222668   4.455   3.539   4.010
 7578TIP3   OH222669   3.804   4.807   3.628
 7578TIP3    H122670   3.785   4.878   3.567
 7578TIP3    H222671   3.789   4.844   3.715
 7579TIP3   OH222672   3.915   3.511   3.863
 7579TIP3    H122673   3.903   3.600   3.895
 7579TIP3    H222674   4.010   3.496   3.869
 7580TIP3   OH222675   5.146   3.991   4.747
 7580TIP3    H122676   5.052   3.998   4.759
 7580TIP3    H222677   5.157   3.932   4.673
 7581TIP3   OH222678   3.542   4.395   3.607
 7581TIP3    H122679   3.614   4.457   3.617
 7581TIP3    H222680   3.572   4.333   3.542
 7582TIP3   OH222681   3.441   3.688   3.725
 7582TIP3    H122682   3.451   3.783   3.727
 7582TIP3    H222683   3.380   3.671   3.653
 7583TIP3   OH222684   4.782   5.176   4.067
 7583TIP3    H122685   4.739   5.226   3.999
 7583TIP3    H222686   4.876   5.190   4.052
 7584TIP3   OH222687   3.867   3.424   4.618
 7584TIP3    H122688   3.825   3.410   4.534
 7584TIP3    H222689   3.842   3.348   4.671
 7585TIP3   OH222690   3.375   4.681   3.994
 7585TIP3    H122691   3.317   4.699   4.067
 7585TIP3    H222692   3.331   4.719   3.918
 7586TIP3   OH222693   3.576   5.197   5.063
 7586TIP3    H122694   3.659   5.203   5.109
 7586TIP3    H222695   3.563   5.104   5.048
 7587TIP3   OH222696   4.042   5.110   5.101
 7587TIP3    H122697   4.134   5.086   5.114
 7587TIP3    H222698   4.011   5.049   5.033
 7588TIP3   OH222699   3.997   4.715   3.228
 7588TIP3    H122700   3.949   4.645   3.272
 7588TIP3    H222701   4.071   4.671   3.187
 7589TIP3   OH222702   4.659   5.051   4.868
 7589TIP3    H122703   4.674   4.981   4.932
 7589TIP3    H222704   4.733   5.111   4.880
 7590TIP3   OH222705   4.441   4.750   3.156
 7590TIP3    H122706   4.475   4.686   3.219
 7590TIP3    H222707   4.499   4.742   3.080
 7591TIP3   OH222708   3.682   4.606   5.259
 7591TIP3    H122709   3.705   4.514   5.267
 7591TIP3    H222710   3.597   4.606   5.215
 7592TIP3   OH222711   3.662   4.212   3.444
 7592TIP3    H122712   3.714   4.186   3.520
 7592TIP3    H222713   3.727   4.226   3.375
 7593TIP3   OH222714   4.272   4.686   5.007
 7593TIP3    H122715   4.224   4.698   4.925
 7593TIP3    H222716   4.308   4.598   5.002
 7594TIP3   OH222717   4.239   4.430   3.282
 7594TIP3    H122718   4.215   4.440   3.374
 7594TIP3    H222719   4.222   4.337   3.264
 7595TIP3   OH222720   4.755   4.684   4.646
 7595TIP3    H122721   4.788   4.766   4.609
 7595TIP3    H222722   4.663   4.703   4.666
 7596TIP3   OH222723   3.790   4.350   5.249
 7596TIP3    H122724   3.863   4.334   5.189
 7596TIP3    H222725   3.830   4.363   5.334
 7597TIP3   OH222726   3.842   4.155   3.647
 7597TIP3    H122727   3.818   4.131   3.736
 7597TIP3    H222728   3.887   4.079   3.612
 7598TIP3   OH222729   4.158   4.290   4.850
 7598TIP3    H122730   4.070   4.305   4.886
 7598TIP3    H222731   4.159   4.336   4.767
 7599TIP3   OH222732   3.978   3.961   3.501
 7599TIP3    H122733   3.950   3.966   3.410
 7599TIP3    H222734   4.074   3.968   3.498
 7600TIP3   OH222735   4.669   4.610   5.023
 7600TIP3    H122736   4.719   4.559   4.959
 7600TIP3    H222737   4.659   4.551   5.097
 7601TIP3   OH222738   4.769   4.261   3.205
 7601TIP3    H122739   4.763   4.213   3.122
 7601TIP3    H222740   4.743   4.350   3.182
 7602TIP3   OH222741   4.250   4.046   4.999
 7602TIP3    H122742   4.245   3.965   4.949
 7602TIP3    H222743   4.224   4.115   4.938
 7603TIP3   OH222744   4.241   3.804   4.843
 7603TIP3    H122745   4.256   3.854   4.763
 7603TIP3    H222746   4.157   3.761   4.829
 7604TIP3   OH222747   4.848   4.293   5.065
 7604TIP3    H122748   4.849   4.198   5.054
 7604TIP3    H222749   4.935   4.321   5.038
 7605TIP3   OH222750   4.900   4.536   4.821
 7605TIP3    H122751   4.844   4.590   4.765
 7605TIP3    H222752   4.989   4.554   4.791
 7606TIP3   OH222753   4.145   4.087   5.261
 7606TIP3    H122754   4.077   4.021   5.273
 7606TIP3    H222755   4.167   4.082   5.168
 7607TIP3   OH222756   4.384   3.574   4.924
 7607TIP3    H122757   4.340   3.654   4.898
 7607TIP3    H222758   4.319   3.505   4.910
 7608TIP3   OH222759   4.508   4.040   5.115
 7608TIP3    H122760   4.490   4.021   5.207
 7608TIP3    H222761   4.423   4.033   5.072
 7609TIP3   OH222762   4.782   4.030   5.016
 7609TIP3    H122763   4.697   4.009   5.055
 7609TIP3    H222764   4.845   3.982   5.070
 7610TIP3   OH222765   5.012   3.951   5.156
 7610TIP3    H122766   5.018   3.856   5.164
 7610TIP3    H222767   5.002   3.982   5.246
 7611TIP3   OH222768   3.972   3.874   5.336
 7611TIP3    H122769   3.979   3.787   5.296
 7611TIP3    H222770   4.010   3.865   5.423
 7612TIP3   OH222771   4.451   3.546   5.190
 7612TIP3    H122772   4.518   3.478   5.183
 7612TIP3    H222773   4.421   3.560   5.100
 7613TIP3   OH222774   4.548   3.759   5.336
 7613TIP3    H122775   4.518   3.687   5.281
 7613TIP3    H222776   4.477   3.823   5.333
 7614TIP3   OH222777   3.805   5.018   3.444
 7614TIP3    H122778   3.893   4.993   3.416
 7614TIP3    H222779   3.766   5.061   3.368
 7615TIP3   OH222780   3.268   4.390   3.632
 7615TIP3    H122781   3.363   4.403   3.623
 7615TIP3    H222782   3.251   4.307   3.589
 7616TIP3   OH222783   3.161   4.975   4.096
 7616TIP3    H122784   3.099   4.936   4.035
 7616TIP3    H222785   3.194   4.902   4.148
 7617TIP3   OH222786   3.238   4.751   4.243
 7617TIP3    H122787   3.168   4.689   4.264
 7617TIP3    H222788   3.294   4.752   4.320
 7618TIP3   OH222789   5.052   5.230   4.062
 7618TIP3    H122790   5.070   5.246   4.154
 7618TIP3    H222791   5.093   5.304   4.016
 7619TIP3   OH222792   5.077   5.244   4.340
 7619TIP3    H122793   5.030   5.161   4.342
 7619TIP3    H222794   5.148   5.233   4.403
 7620TIP3   OH222795   5.133   4.954   4.909
 7620TIP3    H122796   5.062   4.962   4.973
 7620TIP3    H222797   5.174   5.040   4.908
 7621TIP3   OH222798   4.939   4.487   3.545
 7621TIP3    H122799   5.002   4.540   3.495
 7621TIP3    H222800   4.935   4.530   3.631
 7622TIP3   OH222801   5.148   4.711   4.115
 7622TIP3    H122802   5.199   4.669   4.047
 7622TIP3    H222803   5.140   4.802   4.087
 7623TIP3   OH222804   4.940   5.003   4.365
 7623TIP3    H122805   4.873   5.051   4.413
 7623TIP3    H222806   4.893   4.969   4.288
 7624TIP3   OH222807   4.984   4.255   3.382
 7624TIP3    H122808   4.908   4.253   3.324
 7624TIP3    H222809   4.965   4.328   3.442
 7625TIP3   OH222810   4.825   3.887   3.280
 7625TIP3    H122811   4.773   3.899   3.201
 7625TIP3    H222812   4.833   3.792   3.288
 7626TIP3   OH222813   5.148   4.599   4.715
 7626TIP3    H122814   5.218   4.538   4.692
 7626TIP3    H222815   5.129   4.645   4.634
 7627TIP3   OH222816   5.333   4.389   4.700
 7627TIP3    H122817   5.256   4.350   4.742
 7627TIP3    H222818   5.406   4.334   4.728
 7628TIP3   OH222819   4.809   3.608   3.277
 7628TIP3    H122820   4.869   3.591   3.350
 7628TIP3    H222821   4.724   3.575   3.308
 7629TIP3   OH222822   4.829   3.868   3.709
 7629TIP3    H122823   4.890   3.801   3.738
 7629TIP3    H222824   4.878   3.920   3.645
 7630TIP3   OH222825   5.116   4.227   4.503
 7630TIP3    H122826   5.033   4.251   4.545
 7630TIP3    H222827   5.136   4.300   4.445
 7631TIP3   OH222828   3.706   3.919   5.261
 7631TIP3    H122829   3.800   3.920   5.279
 7631TIP3    H222830   3.674   3.838   5.300
 7632TIP3   OH222831   5.556   3.816   5.036
 7632TIP3    H122832   5.617   3.756   4.991
 7632TIP3    H222833   5.517   3.867   4.965
 7633TIP3   OH222834   4.988   3.650   3.786
 7633TIP3    H122835   5.040   3.638   3.866
 7633TIP3    H222836   4.923   3.580   3.789
 7634TIP3   OH222837   5.411   3.937   4.840
 7634TIP3    H122838   5.329   3.977   4.871
 7634TIP3    H222839   5.382   3.863   4.786
 7635TIP3   OH222840   5.030   3.565   3.443
 7635TIP3    H122841   5.086   3.512   3.386
 7635TIP3    H222842   5.089   3.626   3.486
 7636TIP3   OH222843   3.439   3.490   4.224
 7636TIP3    H122844   3.359   3.440   4.239
 7636TIP3    H222845   3.444   3.500   4.129
 7637TIP3   OH222846   4.611   5.135   3.701
 7637TIP3    H122847   4.666   5.120   3.623
 7637TIP3    H222848   4.657   5.204   3.750
 7638TIP3   OH222849   3.670   3.462   4.999
 7638TIP3    H122850   3.619   3.455   5.080
 7638TIP3    H222851   3.611   3.507   4.938
 7639TIP3   OH222852   3.718   4.938   5.075
 7639TIP3    H122853   3.684   4.868   5.019
 7639TIP3    H222854   3.703   4.906   5.164
 7640TIP3   OH222855   3.908   4.999   4.654
 7640TIP3    H122856   3.866   5.075   4.612
 7640TIP3    H222857   3.985   4.982   4.600
 7641TIP3   OH222858   4.310   5.198   4.769
 7641TIP3    H122859   4.348   5.189   4.856
 7641TIP3    H222860   4.374   5.249   4.720
 7642TIP3   OH222861   4.504   5.352   4.641
 7642TIP3    H122862   4.565   5.293   4.596
 7642TIP3    H222863   4.560   5.409   4.694
 7643TIP3   OH222864   5.319   3.691   4.732
 7643TIP3    H122865   5.235   3.696   4.685
 7643TIP3    H222866   5.345   3.599   4.724
 7644TIP3   OH222867   3.576   5.271   4.644
 7644TIP3    H122868   3.481   5.276   4.638
 7644TIP3    H222869   3.598   5.312   4.727
 7645TIP3   OH222870   3.803   5.209   4.500
 7645TIP3    H122871   3.727   5.240   4.550
 7645TIP3    H222872   3.766   5.155   4.430
 7646TIP3   OH222873   4.241   5.215   4.320
 7646TIP3    H122874   4.181   5.227   4.247
 7646TIP3    H222875   4.246   5.302   4.361
 7647TIP3   OH222876   4.504   5.148   4.356
 7647TIP3    H122877   4.411   5.165   4.344
 7647TIP3    H222878   4.548   5.220   4.312
 7648TIP3   OH222879   4.700   5.339   4.273
 7648TIP3    H122880   4.692   5.424   4.230
 7648TIP3    H222881   4.727   5.280   4.203
 7649TIP3   OH222882   3.570   5.026   4.410
 7649TIP3    H122883   3.582   4.989   4.497
 7649TIP3    H222884   3.619   4.968   4.352
 7650TIP3   OH222885   3.718   4.845   4.269
 7650TIP3    H122886   3.732   4.780   4.338
 7650TIP3    H222887   3.803   4.887   4.257
 7651TIP3   OH222888   3.966   4.978   4.269
 7651TIP3    H122889   3.995   4.891   4.244
 7651TIP3    H222890   4.010   4.996   4.352
 7652TIP3   OH222891   5.053   3.520   4.242
 7652TIP3    H122892   5.085   3.569   4.166
 7652TIP3    H222893   4.958   3.524   4.235
 7653TIP3   OH222894   5.157   3.608   4.004
 7653TIP3    H122895   5.219   3.540   3.978
 7653TIP3    H222896   5.201   3.690   3.983
 7654TIP3   OH222897   3.761   3.322   4.375
 7654TIP3    H122898   3.672   3.288   4.382
 7654TIP3    H222899   3.815   3.244   4.364
 7655TIP3   OH222900   4.257   3.333   4.260
 7655TIP3    H122901   4.296   3.393   4.196
 7655TIP3    H222902   4.297   3.357   4.343
 7656TIP3   OH222903   4.783   3.490   4.218
 7656TIP3    H122904   4.743   3.455   4.139
 7656TIP3    H222905   4.763   3.426   4.286
 7657TIP3   OH222906   4.792   3.448   3.808
 7657TIP3    H122907   4.714   3.498   3.829
 7657TIP3    H222908   4.776   3.362   3.845
 7658TIP3   OH222909   3.251   4.791   3.771
 7658TIP3    H122910   3.167   4.759   3.737
 7658TIP3    H222911   3.255   4.882   3.743
 7659TIP3   OH222912   4.190   3.545   3.866
 7659TIP3    H122913   4.245   3.500   3.930
 7659TIP3    H222914   4.189   3.636   3.896
 7660TIP3   OH222915   4.057   4.938   3.371
 7660TIP3    H122916   4.141   4.965   3.333
 7660TIP3    H222917   4.027   4.867   3.314
 7661TIP3   OH222918   4.763   5.082   3.473
 7661TIP3    H122919   4.757   4.987   3.465
 7661TIP3    H222920   4.720   5.116   3.394
 7662TIP3   OH222921   3.979   3.591   5.253
 7662TIP3    H122922   3.948   3.523   5.313
 7662TIP3    H222923   4.072   3.600   5.274
 7663TIP3   OH222924   4.232   3.599   5.367
 7663TIP3    H122925   4.309   3.577   5.314
 7663TIP3    H222926   4.227   3.530   5.432
 7664TIP3   OH222927   3.370   4.781   3.435
 7664TIP3    H122928   3.372   4.783   3.530
 7664TIP3    H222929   3.450   4.734   3.410
 7665TIP3   OH222930   5.057   3.677   5.155
 7665TIP3    H122931   5.075   3.649   5.244
 7665TIP3    H222932   5.143   3.675   5.112
 7666TIP3   OH222933   4.981   5.225   4.664
 7666TIP3    H122934   4.906   5.195   4.611
 7666TIP3    H222935   4.967   5.320   4.672
 7667TIP3   OH222936   6.550   4.917   3.476
 7667TIP3    H122937   6.463   4.877   3.480
 7667TIP3    H222938   6.544   4.992   3.535
 7668TIP3   OH222939   6.177   5.329   3.491
 7668TIP3    H122940   6.230   5.272   3.436
 7668TIP3    H222941   6.089   5.291   3.487
 7669TIP3   OH222942   7.083   4.143   3.846
 7669TIP3    H122943   7.102   4.227   3.888
 7669TIP3    H222944   7.111   4.154   3.755
 7670TIP3   OH222945   6.488   4.296   3.860
 7670TIP3    H122946   6.513   4.207   3.886
 7670TIP3    H222947   6.439   4.284   3.778
 7671TIP3   OH222948   5.822   3.979   3.820
 7671TIP3    H122949   5.779   4.043   3.764
 7671TIP3    H222950   5.789   3.894   3.790
 7672TIP3   OH222951   6.518   4.072   3.463
 7672TIP3    H122952   6.583   4.066   3.533
 7672TIP3    H222953   6.566   4.107   3.388
 7673TIP3   OH222954   7.144   4.356   4.019
 7673TIP3    H122955   7.060   4.401   4.005
 7673TIP3    H222956   7.181   4.399   4.096
 7674TIP3   OH222957   5.858   3.998   4.309
 7674TIP3    H122958   5.808   4.014   4.229
 7674TIP3    H222959   5.792   3.993   4.378
 7675TIP3   OH222960   6.681   4.088   3.681
 7675TIP3    H122961   6.643   4.063   3.766
 7675TIP3    H222962   6.734   4.165   3.700
 7676TIP3   OH222963   5.732   4.047   4.072
 7676TIP3    H122964   5.776   4.132   4.075
 7676TIP3    H222965   5.754   4.012   3.985
 7677TIP3   OH222966   5.116   4.650   3.402
 7677TIP3    H122967   5.088   4.659   3.311
 7677TIP3    H222968   5.144   4.738   3.428
 7678TIP3   OH222969   6.532   5.148   3.652
 7678TIP3    H122970   6.447   5.145   3.694
 7678TIP3    H222971   6.533   5.231   3.603
 7679TIP3   OH222972   6.886   4.025   4.013
 7679TIP3    H122973   6.800   4.052   3.980
 7679TIP3    H222974   6.948   4.058   3.947
 7680TIP3   OH222975   6.158   3.675   4.027
 7680TIP3    H122976   6.138   3.582   4.014
 7680TIP3    H222977   6.076   3.714   4.059
 7681TIP3   OH222978   6.258   5.149   3.286
 7681TIP3    H122979   6.298   5.064   3.268
 7681TIP3    H222980   6.324   5.212   3.259
 7682TIP3   OH222981   6.394   4.902   3.239
 7682TIP3    H122982   6.337   4.848   3.295
 7682TIP3    H222983   6.474   4.913   3.290
 7683TIP3   OH222984   6.781   5.051   3.983
 7683TIP3    H122985   6.770   4.977   3.924
 7683TIP3    H222986   6.766   5.128   3.928
 7684TIP3   OH222987   6.083   4.460   3.233
 7684TIP3    H122988   5.998   4.502   3.222
 7684TIP3    H222989   6.138   4.528   3.272
 7685TIP3   OH222990   6.035   4.288   2.964
 7685TIP3    H122991   6.075   4.333   3.038
 7685TIP3    H222992   6.102   4.227   2.934
 7686TIP3   OH222993   6.971   4.706   3.853
 7686TIP3    H122994   6.888   4.754   3.852
 7686TIP3    H222995   7.006   4.718   3.765
 7687TIP3   OH222996   6.686   4.561   4.164
 7687TIP3    H122997   6.679   4.645   4.209
 7687TIP3    H222998   6.609   4.557   4.108
 7688TIP3   OH222999   6.305   5.095   3.830
 7688TIP3    H123000   6.278   5.184   3.808
 7688TIP3    H223001   6.342   5.102   3.918
 7689TIP3   OH223002   5.925   5.049   4.311
 7689TIP3    H123003   5.872   5.111   4.359
 7689TIP3    H223004   5.862   4.995   4.263
 7690TIP3   OH223005   6.336   4.394   3.043
 7690TIP3    H123006   6.327   4.484   3.072
 7690TIP3    H223007   6.340   4.400   2.948
 7691TIP3   OH223008   5.702   4.586   4.460
 7691TIP3    H123009   5.705   4.680   4.476
 7691TIP3    H223010   5.609   4.565   4.456
 7692TIP3   OH223011   5.982   5.168   3.383
 7692TIP3    H123012   6.062   5.131   3.346
 7692TIP3    H223013   5.930   5.195   3.307
 7693TIP3   OH223014   5.727   5.211   4.406
 7693TIP3    H123015   5.702   5.223   4.314
 7693TIP3    H223016   5.644   5.196   4.452
 7694TIP3   OH223017   6.783   3.624   3.114
 7694TIP3    H123018   6.706   3.646   3.166
 7694TIP3    H223019   6.795   3.700   3.056
 7695TIP3   OH223020   6.603   5.000   2.659
 7695TIP3    H123021   6.598   5.093   2.634
 7695TIP3    H223022   6.691   4.973   2.635
 7696TIP3   OH223023   5.329   4.747   4.339
 7696TIP3    H123024   5.263   4.727   4.273
 7696TIP3    H223025   5.360   4.661   4.369
 7697TIP3   OH223026   5.162   4.975   4.023
 7697TIP3    H123027   5.246   5.010   4.053
 7697TIP3    H223028   5.100   5.047   4.036
 7698TIP3   OH223029   7.017   5.401   4.051
 7698TIP3    H123030   7.022   5.307   4.066
 7698TIP3    H223031   6.936   5.428   4.094
 7699TIP3   OH223032   6.108   5.192   4.162
 7699TIP3    H123033   6.107   5.282   4.194
 7699TIP3    H223034   6.046   5.146   4.218
 7700TIP3   OH223035   5.900   5.301   3.134
 7700TIP3    H123036   5.854   5.272   3.055
 7700TIP3    H223037   5.863   5.387   3.153
 7701TIP3   OH223038   5.344   5.148   3.513
 7701TIP3    H123039   5.393   5.132   3.594
 7701TIP3    H223040   5.293   5.068   3.500
 7702TIP3   OH223041   6.109   5.223   2.756
 7702TIP3    H123042   6.159   5.149   2.722
 7702TIP3    H223043   6.143   5.236   2.845
 7703TIP3   OH223044   6.154   5.268   3.031
 7703TIP3    H123045   6.067   5.273   3.070
 7703TIP3    H223046   6.206   5.221   3.096
 7704TIP3   OH223047   6.916   4.526   4.330
 7704TIP3    H123048   6.836   4.540   4.280
 7704TIP3    H223049   6.932   4.431   4.323
 7705TIP3   OH223050   5.511   4.954   4.299
 7705TIP3    H123051   5.568   4.945   4.376
 7705TIP3    H223052   5.447   4.883   4.310
 7706TIP3   OH223053   5.912   3.762   4.142
 7706TIP3    H123054   5.828   3.732   4.107
 7706TIP3    H223055   5.891   3.842   4.189
 7707TIP3   OH223056   6.642   4.290   4.225
 7707TIP3    H123057   6.622   4.289   4.318
 7707TIP3    H223058   6.654   4.383   4.204
 7708TIP3   OH223059   6.354   4.364   2.766
 7708TIP3    H123060   6.309   4.370   2.682
 7708TIP3    H223061   6.435   4.414   2.754
 7709TIP3   OH223062   6.064   3.788   3.099
 7709TIP3    H123063   6.023   3.800   3.184
 7709TIP3    H223064   6.023   3.710   3.063
 7710TIP3   OH223065   5.882   4.270   4.146
 7710TIP3    H123066   5.829   4.285   4.223
 7710TIP3    H223067   5.897   4.357   4.109
 7711TIP3   OH223068   5.691   4.140   3.649
 7711TIP3    H123069   5.596   4.137   3.638
 7711TIP3    H223070   5.726   4.114   3.563
 7712TIP3   OH223071   6.211   4.259   3.377
 7712TIP3    H123072   6.164   4.331   3.335
 7712TIP3    H223073   6.269   4.224   3.309
 7713TIP3   OH223074   6.394   4.520   4.464
 7713TIP3    H123075   6.367   4.450   4.522
 7713TIP3    H223076   6.486   4.536   4.485
 7714TIP3   OH223077   6.373   4.267   3.605
 7714TIP3    H123078   6.308   4.290   3.539
 7714TIP3    H223079   6.418   4.191   3.569
 7715TIP3   OH223080   5.722   4.283   4.367
 7715TIP3    H123081   5.666   4.354   4.400
 7715TIP3    H223082   5.688   4.204   4.408
 7716TIP3   OH223083   5.732   3.779   3.072
 7716TIP3    H123084   5.721   3.783   3.167
 7716TIP3    H223085   5.654   3.822   3.037
 7717TIP3   OH223086   5.314   3.809   3.922
 7717TIP3    H123087   5.368   3.864   3.979
 7717TIP3    H223088   5.327   3.846   3.835
 7718TIP3   OH223089   6.458   4.513   4.017
 7718TIP3    H123090   6.470   4.436   3.961
 7718TIP3    H223091   6.385   4.490   4.074
 7719TIP3   OH223092   6.086   3.973   3.720
 7719TIP3    H123093   6.000   3.976   3.761
 7719TIP3    H223094   6.145   3.948   3.791
 7720TIP3   OH223095   5.765   4.040   3.404
 7720TIP3    H123096   5.855   4.063   3.382
 7720TIP3    H223097   5.715   4.060   3.325
 7721TIP3   OH223098   6.547   4.032   3.924
 7721TIP3    H123099   6.543   4.030   4.020
 7721TIP3    H223100   6.473   3.978   3.896
 7722TIP3   OH223101   5.630   4.069   3.167
 7722TIP3    H123102   5.563   4.020   3.120
 7722TIP3    H223103   5.678   4.116   3.099
 7723TIP3   OH223104   6.734   5.749   4.138
 7723TIP3    H123105   6.730   5.770   4.045
 7723TIP3    H223106   6.813   5.794   4.169
 7724TIP3   OH223107   5.685   4.853   4.544
 7724TIP3    H123108   5.762   4.879   4.595
 7724TIP3    H223109   5.611   4.870   4.602
 7725TIP3   OH223110   6.169   4.302   3.854
 7725TIP3    H123111   6.209   4.330   3.772
 7725TIP3    H223112   6.159   4.207   3.845
 7726TIP3   OH223113   5.725   3.746   3.710
 7726TIP3    H123114   5.671   3.686   3.761
 7726TIP3    H223115   5.668   3.778   3.640
 7727TIP3   OH223116   6.136   4.168   4.194
 7727TIP3    H123117   6.076   4.206   4.130
 7727TIP3    H223118   6.211   4.226   4.195
 7728TIP3   OH223119   5.826   4.598   3.215
 7728TIP3    H123120   5.756   4.534   3.197
 7728TIP3    H223121   5.813   4.622   3.307
 7729TIP3   OH223122   6.736   4.845   3.806
 7729TIP3    H123123   6.769   4.889   3.728
 7729TIP3    H223124   6.656   4.802   3.776
 7730TIP3   OH223125   6.314   3.898   3.105
 7730TIP3    H123126   6.221   3.876   3.101
 7730TIP3    H223127   6.316   3.993   3.116
 7731TIP3   OH223128   6.191   4.864   4.227
 7731TIP3    H123129   6.272   4.869   4.278
 7731TIP3    H223130   6.174   4.954   4.200
 7732TIP3   OH223131   6.378   4.161   3.173
 7732TIP3    H123132   6.472   4.160   3.188
 7732TIP3    H223133   6.362   4.242   3.124
 7733TIP3   OH223134   5.965   4.733   3.015
 7733TIP3    H123135   5.943   4.824   3.035
 7733TIP3    H223136   5.929   4.683   3.087
 7734TIP3   OH223137   5.430   4.506   4.462
 7734TIP3    H123138   5.414   4.482   4.554
 7734TIP3    H223139   5.359   4.463   4.414
 7735TIP3   OH223140   6.162   4.673   4.508
 7735TIP3    H123141   6.096   4.611   4.476
 7735TIP3    H223142   6.246   4.636   4.479
 7736TIP3   OH223143   6.374   5.171   4.091
 7736TIP3    H123144   6.280   5.177   4.109
 7736TIP3    H223145   6.415   5.220   4.162
 7737TIP3   OH223146   6.785   4.252   2.989
 7737TIP3    H123147   6.730   4.206   2.925
 7737TIP3    H223148   6.787   4.343   2.957
 7738TIP3   OH223149   7.030   5.116   4.075
 7738TIP3    H123150   6.936   5.106   4.065
 7738TIP3    H223151   7.066   5.092   3.990
 7739TIP3   OH223152   6.522   5.066   2.919
 7739TIP3    H123153   6.487   4.990   2.966
 7739TIP3    H223154   6.545   5.032   2.833
 7740TIP3   OH223155   6.492   4.670   3.781
 7740TIP3    H123156   6.490   4.619   3.862
 7740TIP3    H223157   6.526   4.609   3.715
 7741TIP3   OH223158   5.639   4.925   3.480
 7741TIP3    H123159   5.645   5.008   3.432
 7741TIP3    H223160   5.545   4.910   3.490
 7742TIP3   OH223161   5.201   4.236   3.212
 7742TIP3    H123162   5.255   4.311   3.235
 7742TIP3    H223163   5.131   4.235   3.277
 7743TIP3   OH223164   5.773   4.681   3.475
 7743TIP3    H123165   5.727   4.765   3.479
 7743TIP3    H223166   5.745   4.635   3.554
 7744TIP3   OH223167   5.938   5.237   3.941
 7744TIP3    H123168   5.969   5.318   3.902
 7744TIP3    H223169   6.004   5.215   4.006
 7745TIP3   OH223170   5.573   5.173   3.360
 7745TIP3    H123171   5.488   5.178   3.402
 7745TIP3    H223172   5.608   5.261   3.365
 7746TIP3   OH223173   6.277   4.797   2.812
 7746TIP3    H123174   6.325   4.772   2.890
 7746TIP3    H223175   6.190   4.757   2.824
 7747TIP3   OH223176   6.523   5.432   3.977
 7747TIP3    H123177   6.446   5.375   3.970
 7747TIP3    H223178   6.514   5.493   3.904
 7748TIP3   OH223179   6.601   5.273   2.614
 7748TIP3    H123180   6.614   5.330   2.539
 7748TIP3    H223181   6.532   5.316   2.665
 7749TIP3   OH223182   5.640   4.039   4.487
 7749TIP3    H123183   5.546   4.056   4.482
 7749TIP3    H223184   5.648   3.974   4.557
 7750TIP3   OH223185   6.445   4.735   3.019
 7750TIP3    H123186   6.423   4.778   3.102
 7750TIP3    H223187   6.540   4.721   3.024
 7751TIP3   OH223188   5.375   5.135   4.126
 7751TIP3    H123189   5.430   5.075   4.178
 7751TIP3    H223190   5.391   5.221   4.165
 7752TIP3   OH223191   5.635   4.770   2.821
 7752TIP3    H123192   5.648   4.679   2.794
 7752TIP3    H223193   5.623   4.766   2.916
 7753TIP3   OH223194   5.591   4.788   3.093
 7753TIP3    H123195   5.666   4.754   3.143
 7753TIP3    H223196   5.596   4.883   3.104
 7754TIP3   OH223197   5.313   4.478   3.280
 7754TIP3    H123198   5.259   4.520   3.347
 7754TIP3    H223199   5.333   4.548   3.218
 7755TIP3   OH223200   6.534   4.038   4.199
 7755TIP3    H123201   6.573   4.126   4.201
 7755TIP3    H223202   6.534   4.010   4.290
 7756TIP3   OH223203   6.373   3.851   3.375
 7756TIP3    H123204   6.348   3.868   3.284
 7756TIP3    H223205   6.413   3.933   3.405
 7757TIP3   OH223206   5.870   4.987   3.056
 7757TIP3    H123207   5.781   5.007   3.087
 7757TIP3    H223208   5.888   5.053   2.990
 7758TIP3   OH223209   6.051   4.045   3.447
 7758TIP3    H123210   6.103   4.121   3.422
 7758TIP3    H223211   6.057   4.041   3.542
 7759TIP3   OH223212   6.336   4.358   4.241
 7759TIP3    H123213   6.341   4.424   4.310
 7759TIP3    H223214   6.418   4.310   4.248
 7760TIP3   OH223215   6.174   3.766   3.552
 7760TIP3    H123216   6.149   3.843   3.603
 7760TIP3    H223217   6.241   3.797   3.491
 7761TIP3   OH223218   5.610   5.063   3.111
 7761TIP3    H123219   5.588   5.131   3.048
 7761TIP3    H223220   5.594   5.102   3.197
 7762TIP3   OH223221   5.692   3.770   3.345
 7762TIP3    H123222   5.671   3.858   3.377
 7762TIP3    H223223   5.786   3.762   3.358
 7763TIP3   OH223224   6.920   4.264   4.231
 7763TIP3    H123225   6.826   4.249   4.226
 7763TIP3    H223226   6.954   4.232   4.147
 7764TIP3   OH223227   6.592   4.456   3.621
 7764TIP3    H123228   6.518   4.395   3.617
 7764TIP3    H223229   6.661   4.407   3.667
 7765TIP3   OH223230   5.336   4.674   3.079
 7765TIP3    H123231   5.412   4.731   3.091
 7765TIP3    H223232   5.366   4.607   3.018
 7766TIP3   OH223233   5.261   3.967   3.164
 7766TIP3    H123234   5.255   4.059   3.187
 7766TIP3    H223235   5.263   3.921   3.248
 7767TIP3   OH223236   6.574   5.407   3.553
 7767TIP3    H123237   6.534   5.456   3.481
 7767TIP3    H223238   6.668   5.418   3.539
 7768TIP3   OH223239   5.649   3.680   4.100
 7768TIP3    H123240   5.622   3.651   4.013
 7768TIP3    H223241   5.638   3.603   4.155
 7769TIP3   OH223242   5.172   4.927   3.475
 7769TIP3    H123243   5.118   4.956   3.548
 7769TIP3    H223244   5.131   4.966   3.398
 7770TIP3   OH223245   5.363   5.463   4.553
 7770TIP3    H123246   5.445   5.465   4.602
 7770TIP3    H223247   5.339   5.370   4.550
 7771TIP3   OH223248   5.834   5.376   4.598
 7771TIP3    H123249   5.925   5.346   4.607
 7771TIP3    H223250   5.798   5.322   4.528
 7772TIP3   OH223251   5.795   4.969   2.718
 7772TIP3    H123252   5.745   4.898   2.759
 7772TIP3    H223253   5.868   4.926   2.675
 7773TIP3   OH223254   6.465   5.296   4.318
 7773TIP3    H123255   6.470   5.232   4.389
 7773TIP3    H223256   6.533   5.360   4.339
 7774TIP3   OH223257   6.236   5.010   2.642
 7774TIP3    H123258   6.265   4.941   2.702
 7774TIP3    H223259   6.294   5.002   2.567
 7775TIP3   OH223260   5.474   4.869   4.728
 7775TIP3    H123261   5.488   4.775   4.743
 7775TIP3    H223262   5.388   4.873   4.685
 7776TIP3   OH223263   5.458   4.476   2.937
 7776TIP3    H123264   5.505   4.448   3.015
 7776TIP3    H223265   5.526   4.484   2.870
 7777TIP3   OH223266   6.087   4.949   4.516
 7777TIP3    H123267   6.044   4.969   4.433
 7777TIP3    H223268   6.126   4.863   4.503
 7778TIP3   OH223269   6.010   4.686   2.753
 7778TIP3    H123270   5.985   4.698   2.845
 7778TIP3    H223271   5.998   4.592   2.737
 7779TIP3   OH223272   6.566   4.974   4.141
 7779TIP3    H123273   6.642   5.006   4.092
 7779TIP3    H223274   6.497   5.037   4.123
 7780TIP3   OH223275   5.581   4.613   4.750
 7780TIP3    H123276   5.658   4.599   4.696
 7780TIP3    H223277   5.616   4.630   4.838
 7781TIP3   OH223278   5.628   4.405   3.152
 7781TIP3    H123279   5.581   4.356   3.219
 7781TIP3    H223280   5.678   4.338   3.104
 7782TIP3   OH223281   5.971   4.491   4.400
 7782TIP3    H123282   5.881   4.519   4.413
 7782TIP3    H223283   5.996   4.531   4.316
 7783TIP3   OH223284   5.766   4.227   2.989
 7783TIP3    H123285   5.738   4.228   2.898
 7783TIP3    H223286   5.860   4.246   2.986
 7784TIP3   OH223287   6.452   4.868   4.499
 7784TIP3    H123288   6.524   4.832   4.446
 7784TIP3    H223289   6.451   4.812   4.577
 7785TIP3   OH223290   6.571   4.509   2.674
 7785TIP3    H123291   6.558   4.472   2.587
 7785TIP3    H223292   6.545   4.601   2.665
 7786TIP3   OH223293   6.015   4.221   4.471
 7786TIP3    H123294   5.968   4.220   4.554
 7786TIP3    H223295   6.013   4.313   4.443
 7787TIP3   OH223296   6.050   4.628   4.170
 7787TIP3    H123297   6.069   4.623   4.076
 7787TIP3    H223298   6.097   4.705   4.200
 7788TIP3   OH223299   6.662   4.547   4.563
 7788TIP3    H123300   6.710   4.464   4.571
 7788TIP3    H223301   6.730   4.613   4.551
 7789TIP3   OH223302   6.700   4.805   4.303
 7789TIP3    H123303   6.643   4.864   4.253
 7789TIP3    H223304   6.788   4.823   4.271
 7790TIP3   OH223305   5.928   4.349   4.744
 7790TIP3    H123306   5.863   4.288   4.779
 7790TIP3    H223307   5.877   4.409   4.690
 7791TIP3   OH223308   6.320   4.304   4.616
 7791TIP3    H123309   6.342   4.295   4.709
 7791TIP3    H223310   6.232   4.269   4.608
 7792TIP3   OH223311   6.557   4.249   4.476
 7792TIP3    H123312   6.479   4.255   4.531
 7792TIP3    H223313   6.628   4.232   4.537
 7793TIP3   OH223314   6.786   4.223   4.634
 7793TIP3    H123315   6.805   4.129   4.641
 7793TIP3    H223316   6.779   4.253   4.725
 7794TIP3   OH223317   5.778   4.122   4.814
 7794TIP3    H123318   5.777   4.032   4.782
 7794TIP3    H223319   5.813   4.115   4.903
 7795TIP3   OH223320   6.265   3.843   4.578
 7795TIP3    H123321   6.344   3.789   4.576
 7795TIP3    H223322   6.194   3.783   4.558
 7796TIP3   OH223323   6.329   4.006   4.799
 7796TIP3    H123324   6.310   3.955   4.720
 7796TIP3    H223325   6.257   4.068   4.805
 7797TIP3   OH223326   5.603   5.275   2.930
 7797TIP3    H123327   5.691   5.250   2.901
 7797TIP3    H223328   5.564   5.318   2.854
 7798TIP3   OH223329   5.065   4.647   3.119
 7798TIP3    H123330   5.158   4.665   3.105
 7798TIP3    H223331   5.051   4.562   3.077
 7799TIP3   OH223332   4.968   5.237   3.569
 7799TIP3    H123333   4.904   5.181   3.524
 7799TIP3    H223334   5.013   5.177   3.629
 7800TIP3   OH223335   5.112   5.073   3.741
 7800TIP3    H123336   5.103   5.007   3.810
 7800TIP3    H223337   5.171   5.138   3.777
 7801TIP3   OH223338   6.846   5.465   3.545
 7801TIP3    H123339   6.865   5.499   3.632
 7801TIP3    H223340   6.898   5.520   3.486
 7802TIP3   OH223341   6.860   5.508   3.826
 7802TIP3    H123342   6.813   5.425   3.822
 7802TIP3    H223343   6.932   5.492   3.888
 7803TIP3   OH223344   6.917   5.204   4.398
 7803TIP3    H123345   6.845   5.213   4.461
 7803TIP3    H223346   6.964   5.287   4.403
 7804TIP3   OH223347   6.731   4.717   3.014
 7804TIP3    H123348   6.788   4.787   2.981
 7804TIP3    H223349   6.781   4.678   3.086
 7805TIP3   OH223350   6.881   4.579   3.204
 7805TIP3    H123351   6.820   4.535   3.262
 7805TIP3    H223352   6.946   4.619   3.262
 7806TIP3   OH223353   6.921   4.980   3.641
 7806TIP3    H123354   6.967   4.908   3.597
 7806TIP3    H223355   6.921   5.051   3.577
 7807TIP3   OH223356   6.712   5.272   3.834
 7807TIP3    H123357   6.643   5.317   3.883
 7807TIP3    H223358   6.666   5.229   3.762
 7808TIP3   OH223359   6.777   4.495   2.855
 7808TIP3    H123360   6.707   4.493   2.790
 7808TIP3    H223361   6.758   4.570   2.910
 7809TIP3   OH223362   6.644   4.136   2.784
 7809TIP3    H123363   6.587   4.178   2.720
 7809TIP3    H223364   6.632   4.042   2.769
 7810TIP3   OH223365   6.712   4.432   3.360
 7810TIP3    H123366   6.676   4.346   3.335
 7810TIP3    H223367   6.665   4.455   3.441
 7811TIP3   OH223368   6.954   4.859   4.206
 7811TIP3    H123369   7.018   4.791   4.188
 7811TIP3    H223370   6.978   4.932   4.149
 7812TIP3   OH223371   7.125   4.644   4.196
 7812TIP3    H123372   7.052   4.605   4.246
 7812TIP3    H223373   7.200   4.590   4.218
 7813TIP3   OH223374   6.599   3.862   2.759
 7813TIP3    H123375   6.657   3.842   2.832
 7813TIP3    H223376   6.513   3.834   2.788
 7814TIP3   OH223377   6.659   4.157   3.231
 7814TIP3    H123378   6.708   4.075   3.243
 7814TIP3    H223379   6.700   4.199   3.156
 7815TIP3   OH223380   6.812   4.325   3.750
 7815TIP3    H123381   6.892   4.344   3.700
 7815TIP3    H223382   6.827   4.365   3.835
 7816TIP3   OH223383   6.892   4.474   3.979
 7816TIP3    H123384   6.824   4.503   4.040
 7816TIP3    H223385   6.921   4.554   3.935
 7817TIP3   OH223386   5.511   4.187   4.768
 7817TIP3    H123387   5.605   4.181   4.783
 7817TIP3    H223388   5.476   4.106   4.805
 7818TIP3   OH223389   7.347   4.078   4.517
 7818TIP3    H123390   7.409   4.018   4.477
 7818TIP3    H223391   7.312   4.128   4.444
 7819TIP3   OH223392   6.780   3.908   3.284
 7819TIP3    H123393   6.823   3.895   3.368
 7819TIP3    H223394   6.714   3.838   3.280
 7820TIP3   OH223395   5.486   3.907   4.133
 7820TIP3    H123396   5.533   3.823   4.125
 7820TIP3    H223397   5.552   3.973   4.112
 7821TIP3   OH223398   7.194   4.200   4.326
 7821TIP3    H123399   7.121   4.237   4.375
 7821TIP3    H223400   7.155   4.129   4.275
 7822TIP3   OH223401   6.823   3.820   2.924
 7822TIP3    H123402   6.872   3.762   2.865
 7822TIP3    H223403   6.875   3.901   2.926
 7823TIP3   OH223404   5.220   3.706   3.598
 7823TIP3    H123405   5.153   3.706   3.667
 7823TIP3    H223406   5.272   3.785   3.615
 7824TIP3   OH223407   6.417   5.352   3.202
 7824TIP3    H123408   6.467   5.352   3.121
 7824TIP3    H223409   6.446   5.430   3.250
 7825TIP3   OH223410   5.481   3.734   4.505
 7825TIP3    H123411   5.427   3.724   4.583
 7825TIP3    H223412   5.423   3.778   4.441
 7826TIP3   OH223413   5.507   5.174   4.572
 7826TIP3    H123414   5.413   5.162   4.559
 7826TIP3    H223415   5.520   5.164   4.666
 7827TIP3   OH223416   5.721   5.235   4.127
 7827TIP3    H123417   5.674   5.311   4.093
 7827TIP3    H223418   5.794   5.224   4.065
 7828TIP3   OH223419   6.121   5.454   4.252
 7828TIP3    H123420   6.159   5.442   4.339
 7828TIP3    H223421   6.185   5.507   4.205
 7829TIP3   OH223422   6.316   5.607   4.127
 7829TIP3    H123423   6.385   5.556   4.086
 7829TIP3    H223424   6.362   5.670   4.183
 7830TIP3   OH223425   7.101   3.953   4.216
 7830TIP3    H123426   7.019   3.953   4.167
 7830TIP3    H223427   7.133   3.863   4.208
 7831TIP3   OH223428   5.375   5.468   4.159
 7831TIP3    H123429   5.283   5.482   4.137
 7831TIP3    H223430   5.393   5.534   4.226
 7832TIP3   OH223431   5.609   5.461   4.014
 7832TIP3    H123432   5.525   5.463   4.060
 7832TIP3    H223433   5.587   5.485   3.924
 7833TIP3   OH223434   6.020   5.466   3.807
 7833TIP3    H123435   5.949   5.490   3.746
 7833TIP3    H223436   6.041   5.548   3.852
 7834TIP3   OH223437   6.285   5.372   3.812
 7834TIP3    H123438   6.193   5.397   3.802
 7834TIP3    H223439   6.334   5.443   3.770
 7835TIP3   OH223440   6.485   5.578   3.748
 7835TIP3    H123441   6.485   5.667   3.711
 7835TIP3    H223442   6.517   5.523   3.677
 7836TIP3   OH223443   5.304   5.236   3.870
 7836TIP3    H123444   5.319   5.210   3.961
 7836TIP3    H223445   5.377   5.198   3.822
 7837TIP3   OH223446   5.509   5.114   3.735
 7837TIP3    H123447   5.538   5.026   3.759
 7837TIP3    H223448   5.589   5.165   3.728
 7838TIP3   OH223449   5.764   5.231   3.720
 7838TIP3    H123450   5.809   5.176   3.656
 7838TIP3    H223451   5.816   5.223   3.800
 7839TIP3   OH223452   6.311   3.866   3.875
 7839TIP3    H123453   6.262   3.797   3.919
 7839TIP3    H223454   6.372   3.820   3.818
 7840TIP3   OH223455   6.801   3.742   3.736
 7840TIP3    H123456   6.844   3.796   3.669
 7840TIP3    H223457   6.711   3.774   3.739
 7841TIP3   OH223458   6.930   3.844   3.511
 7841TIP3    H123459   7.000   3.786   3.480
 7841TIP3    H223460   6.966   3.932   3.502
 7842TIP3   OH223461   5.576   3.566   3.860
 7842TIP3    H123462   5.483   3.546   3.862
 7842TIP3    H223463   5.619   3.481   3.847
 7843TIP3   OH223464   5.372   3.492   3.494
 7843TIP3    H123465   5.404   3.530   3.412
 7843TIP3    H223466   5.326   3.564   3.537
 7844TIP3   OH223467   5.982   3.621   3.717
 7844TIP3    H123468   6.042   3.675   3.666
 7844TIP3    H223469   5.898   3.668   3.713
 7845TIP3   OH223470   6.509   3.743   3.723
 7845TIP3    H123471   6.492   3.726   3.630
 7845TIP3    H223472   6.515   3.656   3.762
 7846TIP3   OH223473   6.592   3.695   3.300
 7846TIP3    H123474   6.513   3.745   3.319
 7846TIP3    H223475   6.575   3.608   3.337
 7847TIP3   OH223476   5.053   5.046   3.258
 7847TIP3    H123477   4.970   5.012   3.226
 7847TIP3    H223478   5.055   5.137   3.228
 7848TIP3   OH223479   5.483   3.604   3.255
 7848TIP3    H123480   5.531   3.545   3.197
 7848TIP3    H223481   5.551   3.661   3.292
 7849TIP3   OH223482   5.968   3.797   3.358
 7849TIP3    H123483   6.023   3.746   3.418
 7849TIP3    H223484   5.985   3.888   3.383
 7850TIP3   OH223485   5.856   5.192   2.862
 7850TIP3    H123486   5.938   5.220   2.822
 7850TIP3    H223487   5.826   5.119   2.807
 7851TIP3   OH223488   6.556   5.334   2.962
 7851TIP3    H123489   6.549   5.240   2.951
 7851TIP3    H223490   6.514   5.370   2.884
 7852TIP3   OH223491   5.788   3.844   4.741
 7852TIP3    H123492   5.747   3.777   4.795
 7852TIP3    H223493   5.878   3.850   4.774
 7853TIP3   OH223494   6.023   3.844   4.891
 7853TIP3    H123495   6.113   3.818   4.873
 7853TIP3    H223496   5.992   3.781   4.955
 7854TIP3   OH223497   5.167   5.040   2.918
 7854TIP3    H123498   5.167   5.040   3.014
 7854TIP3    H223499   5.246   4.992   2.894
 7855TIP3   OH223500   6.865   3.958   4.648
 7855TIP3    H123501   6.879   3.925   4.737
 7855TIP3    H223502   6.950   3.950   4.606
 7856TIP3   OH223503   6.762   5.474   4.138
 7856TIP3    H123504   6.683   5.446   4.092
 7856TIP3    H223505   6.753   5.569   4.147
 7857TIP3   OH223506   7.999   4.867   2.914
 7857TIP3    H123507   7.985   4.959   2.891
 7857TIP3    H223508   7.926   4.820   2.874
 7858TIP3   OH223509   8.020   4.853   3.280
 7858TIP3    H123510   8.057   4.849   3.368
 7858TIP3    H223511   7.968   4.773   3.272
 7859TIP3   OH223512   7.342   4.722   3.660
 7859TIP3    H123513   7.380   4.671   3.731
 7859TIP3    H223514   7.417   4.748   3.606
 7860TIP3   OH223515   8.286   5.126   2.992
 7860TIP3    H123516   8.279   5.085   3.078
 7860TIP3    H223517   8.299   5.219   3.011
 7861TIP3   OH223518   7.335   5.149   3.346
 7861TIP3    H123519   7.317   5.056   3.351
 7861TIP3    H223520   7.430   5.154   3.335
 7862TIP3   OH223521   7.019   4.347   3.124
 7862TIP3    H123522   6.984   4.432   3.150
 7862TIP3    H223523   6.945   4.301   3.085
 7863TIP3   OH223524   7.105   4.668   3.348
 7863TIP3    H123525   7.154   4.589   3.371
 7863TIP3    H223526   7.173   4.732   3.326
 7864TIP3   OH223527   7.978   5.592   2.993
 7864TIP3    H123528   8.009   5.526   2.932
 7864TIP3    H223529   7.970   5.546   3.077
 7865TIP3   OH223530   7.851   5.085   3.304
 7865TIP3    H123531   7.891   5.005   3.270
 7865TIP3    H223532   7.924   5.135   3.342
 7866TIP3   OH223533   8.218   4.583   3.329
 7866TIP3    H123534   8.226   4.506   3.385
 7866TIP3    H223535   8.156   4.556   3.261
 7867TIP3   OH223536   7.584   4.228   3.319
 7867TIP3    H123537   7.565   4.299   3.258
 7867TIP3    H223538   7.536   4.152   3.285
 7868TIP3   OH223539   8.211   4.336   2.940
 7868TIP3    H123540   8.267   4.299   3.008
 7868TIP3    H223541   8.272   4.370   2.875
 7869TIP3   OH223542   7.234   4.439   3.435
 7869TIP3    H123543   7.315   4.417   3.483
 7869TIP3    H223544   7.238   4.386   3.356
 7870TIP3   OH223545   7.639   4.641   3.257
 7870TIP3    H123546   7.733   4.625   3.269
 7870TIP3    H223547   7.605   4.558   3.222
 7871TIP3   OH223548   7.586   4.242   3.774
 7871TIP3    H123549   7.534   4.277   3.701
 7871TIP3    H223550   7.532   4.258   3.852
 7872TIP3   OH223551   7.927   5.079   2.757
 7872TIP3    H123552   7.887   5.048   2.676
 7872TIP3    H223553   7.877   5.158   2.780
 7873TIP3   OH223554   7.683   5.013   3.514
 7873TIP3    H123555   7.629   5.084   3.549
 7873TIP3    H223556   7.730   5.053   3.440
 7874TIP3   OH223557   7.471   4.336   3.542
 7874TIP3    H123558   7.526   4.413   3.561
 7874TIP3    H223559   7.514   4.293   3.469
 7875TIP3   OH223560   7.530   5.211   3.629
 7875TIP3    H123561   7.516   5.301   3.601
 7875TIP3    H223562   7.453   5.190   3.682
 7876TIP3   OH223563   6.906   4.906   2.889
 7876TIP3    H123564   6.871   4.923   2.801
 7876TIP3    H223565   6.930   4.992   2.922
 7877TIP3   OH223566   8.297   5.390   3.059
 7877TIP3    H123567   8.216   5.397   3.110
 7877TIP3    H223568   8.310   5.477   3.023
 7878TIP3   OH223569   7.845   3.909   3.454
 7878TIP3    H123570   7.862   3.828   3.502
 7878TIP3    H223571   7.789   3.961   3.512
 7879TIP3   OH223572   8.076   5.445   2.778
 7879TIP3    H123573   8.125   5.362   2.773
 7879TIP3    H223574   8.139   5.512   2.753
 7880TIP3   OH223575   8.177   5.185   2.753
 7880TIP3    H123576   8.090   5.144   2.752
 7880TIP3    H223577   8.214   5.162   2.837
 7881TIP3   OH223578   0.174   5.295   3.452
 7881TIP3    H123579   0.106   5.278   3.387
 7881TIP3    H223580   0.135   5.359   3.512
 7882TIP3   OH223581   7.849   4.717   2.730
 7882TIP3    H123582   7.766   4.764   2.725
 7882TIP3    H223583   7.863   4.685   2.641
 7883TIP3   OH223584   7.817   4.481   2.441
 7883TIP3    H123585   7.890   4.509   2.496
 7883TIP3    H223586   7.854   4.415   2.382
 7884TIP3   OH223587   8.218   4.804   2.720
 7884TIP3    H123588   8.167   4.847   2.652
 7884TIP3    H223589   8.308   4.805   2.687
 7885TIP3   OH223590   8.356   4.819   3.699
 7885TIP3    H123591   8.426   4.879   3.676
 7885TIP3    H223592   8.281   4.848   3.646
 7886TIP3   OH223593   7.451   4.775   3.104
 7886TIP3    H123594   7.414   4.715   3.039
 7886TIP3    H223595   7.521   4.725   3.147
 7887TIP3   OH223596   7.596   5.198   3.244
 7887TIP3    H123597   7.569   5.184   3.153
 7887TIP3    H223598   7.685   5.162   3.248
 7888TIP3   OH223599   7.553   4.774   3.483
 7888TIP3    H123600   7.588   4.735   3.403
 7888TIP3    H223601   7.602   4.855   3.494
 7889TIP3   OH223602   8.097   5.391   3.240
 7889TIP3    H123603   8.083   5.474   3.285
 7889TIP3    H223604   8.085   5.324   3.308
 7890TIP3   OH223605   7.727   5.299   3.802
 7890TIP3    H123606   7.668   5.358   3.849
 7890TIP3    H223607   7.670   5.251   3.742
 7891TIP3   OH223608   8.045   4.594   2.549
 7891TIP3    H123609   8.061   4.686   2.569
 7891TIP3    H223610   8.081   4.583   2.461
 7892TIP3   OH223611   7.486   4.852   3.946
 7892TIP3    H123612   7.491   4.946   3.965
 7892TIP3    H223613   7.392   4.834   3.939
 7893TIP3   OH223614   7.819   5.327   2.793
 7893TIP3    H123615   7.898   5.381   2.793
 7893TIP3    H223616   7.756   5.376   2.740
 7894TIP3   OH223617   7.521   5.462   3.887
 7894TIP3    H123618   7.497   5.476   3.796
 7894TIP3    H223619   7.438   5.449   3.932
 7895TIP3   OH223620   7.330   4.614   2.905
 7895TIP3    H123621   7.252   4.662   2.876
 7895TIP3    H223622   7.298   4.526   2.923
 7896TIP3   OH223623   8.481   5.241   2.049
 7896TIP3    H123624   8.434   5.324   2.037
 7896TIP3    H223625   8.568   5.258   2.014
 7897TIP3   OH223626   7.118   5.021   3.836
 7897TIP3    H123627   7.050   5.004   3.771
 7897TIP3    H223628   7.152   4.935   3.858
 7898TIP3   OH223629   6.965   5.212   3.485
 7898TIP3    H123630   7.058   5.232   3.494
 7898TIP3    H223631   6.921   5.290   3.517
 7899TIP3   OH223632   7.910   5.447   3.657
 7899TIP3    H123633   7.912   5.538   3.688
 7899TIP3    H223634   7.842   5.405   3.709
 7900TIP3   OH223635   7.713   5.555   2.608
 7900TIP3    H123636   7.663   5.529   2.531
 7900TIP3    H223637   7.669   5.634   2.639
 7901TIP3   OH223638   7.137   5.402   2.993
 7901TIP3    H123639   7.179   5.395   3.078
 7901TIP3    H223640   7.086   5.321   2.983
 7902TIP3   OH223641   7.888   5.497   2.252
 7902TIP3    H123642   7.919   5.424   2.200
 7902TIP3    H223643   7.934   5.489   2.336
 7903TIP3   OH223644   7.971   5.511   2.525
 7903TIP3    H123645   7.878   5.520   2.545
 7903TIP3    H223646   8.012   5.495   2.610
 7904TIP3   OH223647   7.319   5.207   3.805
 7904TIP3    H123648   7.369   5.193   3.886
 7904TIP3    H223649   7.246   5.145   3.812
 7905TIP3   OH223650   7.666   4.023   3.629
 7905TIP3    H123651   7.580   3.994   3.598
 7905TIP3    H223652   7.648   4.103   3.678
 7906TIP3   OH223653   8.122   4.184   3.856
 7906TIP3    H123654   8.159   4.129   3.925
 7906TIP3    H223655   8.029   4.190   3.878
 7907TIP3   OH223656   0.040   4.681   3.859
 7907TIP3    H123657  -0.011   4.601   3.873
 7907TIP3    H223658  -0.009   4.730   3.793
 7908TIP3   OH223659   8.175   4.643   2.316
 7908TIP3    H123660   8.140   4.702   2.250
 7908TIP3    H223661   8.263   4.677   2.334
 7909TIP3   OH223662   7.849   4.043   2.593
 7909TIP3    H123663   7.816   4.057   2.681
 7909TIP3    H223664   7.800   3.967   2.560
 7910TIP3   OH223665   7.622   4.549   3.629
 7910TIP3    H123666   7.580   4.557   3.715
 7910TIP3    H223667   7.602   4.632   3.585
 7911TIP3   OH223668   7.505   4.427   3.147
 7911TIP3    H123669   7.416   4.399   3.170
 7911TIP3    H223670   7.518   4.394   3.058
 7912TIP3   OH223671   8.056   4.585   2.864
 7912TIP3    H123672   7.976   4.603   2.815
 7912TIP3    H223673   8.091   4.505   2.825
 7913TIP3   OH223674   8.142   4.776   3.954
 7913TIP3    H123675   8.127   4.702   4.013
 7913TIP3    H223676   8.233   4.800   3.968
 7914TIP3   OH223677   8.066   4.484   3.125
 7914TIP3    H123678   8.050   4.536   3.047
 7914TIP3    H223679   8.116   4.408   3.094
 7915TIP3   OH223680   7.471   4.563   3.858
 7915TIP3    H123681   7.487   4.629   3.926
 7915TIP3    H223682   7.453   4.483   3.905
 7916TIP3   OH223683   7.507   4.032   2.560
 7916TIP3    H123684   7.497   4.040   2.655
 7916TIP3    H223685   7.430   4.077   2.524
 7917TIP3   OH223686   7.060   4.068   3.437
 7917TIP3    H123687   7.127   4.112   3.490
 7917TIP3    H223688   7.098   4.064   3.349
 7918TIP3   OH223689   6.973   4.056   2.929
 7918TIP3    H123690   7.017   4.092   2.852
 7918TIP3    H223691   6.910   4.124   2.954
 7919TIP3   OH223692   8.148   4.786   3.510
 7919TIP3    H123693   8.184   4.719   3.452
 7919TIP3    H223694   8.113   4.737   3.584
 7920TIP3   OH223695   7.829   4.290   3.203
 7920TIP3    H123696   7.759   4.262   3.261
 7920TIP3    H223697   7.908   4.249   3.238
 7921TIP3   OH223698   7.275   4.292   3.208
 7921TIP3    H123699   7.187   4.298   3.169
 7921TIP3    H223700   7.302   4.202   3.189
 7922TIP3   OH223701   7.524   4.308   2.902
 7922TIP3    H123702   7.618   4.321   2.888
 7922TIP3    H223703   7.485   4.320   2.816
 7923TIP3   OH223704   8.216   4.323   3.421
 7923TIP3    H123705   8.197   4.339   3.513
 7923TIP3    H223706   8.310   4.305   3.419
 7924TIP3   OH223707   7.405   4.317   2.657
 7924TIP3    H123708   7.341   4.268   2.605
 7924TIP3    H223709   7.455   4.368   2.593
 7925TIP3   OH223710  -0.020   6.051   3.644
 7925TIP3    H123711  -0.043   6.041   3.552
 7925TIP3    H223712   0.063   6.098   3.644
 7926TIP3   OH223713   7.473   5.118   4.039
 7926TIP3    H123714   7.553   5.139   4.087
 7926TIP3    H223715   7.403   5.128   4.104
 7927TIP3   OH223716   7.902   4.595   3.315
 7927TIP3    H123717   7.944   4.534   3.255
 7927TIP3    H223718   7.903   4.549   3.400
 7928TIP3   OH223719   7.418   4.044   3.190
 7928TIP3    H123720   7.390   3.968   3.242
 7928TIP3    H223721   7.452   4.005   3.109
 7929TIP3   OH223722   7.883   4.495   3.574
 7929TIP3    H123723   7.792   4.517   3.594
 7929TIP3    H223724   7.935   4.556   3.626
 7930TIP3   OH223725   7.616   4.857   2.683
 7930TIP3    H123726   7.543   4.798   2.664
 7930TIP3    H223727   7.596   4.892   2.770
 7931TIP3   OH223728   0.020   5.046   3.350
 7931TIP3    H123729   0.090   5.053   3.285
 7931TIP3    H223730  -0.060   5.039   3.299
 7932TIP3   OH223731   8.043   4.235   2.540
 7932TIP3    H123732   7.968   4.179   2.557
 7932TIP3    H223733   8.072   4.265   2.626
 7933TIP3   OH223734   8.041   5.203   3.707
 7933TIP3    H123735   8.003   5.166   3.786
 7933TIP3    H223736   7.996   5.287   3.695
 7934TIP3   OH223737   8.236   4.446   2.677
 7934TIP3    H123738   8.293   4.513   2.716
 7934TIP3    H223739   8.173   4.496   2.626
 7935TIP3   OH223740   7.326   4.861   3.334
 7935TIP3    H123741   7.363   4.842   3.248
 7935TIP3    H223742   7.393   4.831   3.396
 7936TIP3   OH223743   7.786   5.001   2.528
 7936TIP3    H123744   7.746   5.088   2.525
 7936TIP3    H223745   7.724   4.948   2.579
 7937TIP3   OH223746   7.214   4.789   3.969
 7937TIP3    H123747   7.218   4.763   4.061
 7937TIP3    H223748   7.138   4.742   3.934
 7938TIP3   OH223749   7.925   4.938   3.986
 7938TIP3    H123750   7.857   4.876   3.962
 7938TIP3    H223751   8.007   4.893   3.964
 7939TIP3   OH223752   8.181   5.479   3.557
 7939TIP3    H123753   8.088   5.457   3.558
 7939TIP3    H223754   8.203   5.494   3.649
 7940TIP3   OH223755   8.458   5.273   2.374
 7940TIP3    H123756   8.375   5.299   2.414
 7940TIP3    H223757   8.442   5.184   2.342
 7941TIP3   OH223758   8.272   4.989   3.233
 7941TIP3    H123759   8.184   4.952   3.239
 7941TIP3    H223760   8.324   4.921   3.190
 7942TIP3   OH223761   7.451   5.198   3.003
 7942TIP3    H123762   7.448   5.274   2.945
 7942TIP3    H223763   7.360   5.185   3.030
 7943TIP3   OH223764   7.018   4.483   2.718
 7943TIP3    H123765   7.059   4.567   2.738
 7943TIP3    H223766   6.936   4.483   2.768
 7944TIP3   OH223767   7.556   4.956   2.924
 7944TIP3    H123768   7.529   5.045   2.949
 7944TIP3    H223769   7.520   4.900   2.993
 7945TIP3   OH223770   7.732   5.523   3.452
 7945TIP3    H123771   7.765   5.599   3.405
 7945TIP3    H223772   7.806   5.493   3.504
 7946TIP3   OH223773   7.372   5.419   2.851
 7946TIP3    H123774   7.285   5.426   2.888
 7946TIP3    H223775   7.408   5.508   2.855
 7947TIP3   OH223776   8.082   5.179   3.429
 7947TIP3    H123777   8.071   5.184   3.524
 7947TIP3    H223778   8.174   5.154   3.417
 7948TIP3   OH223779   7.979   5.169   2.319
 7948TIP3    H123780   8.066   5.150   2.352
 7948TIP3    H223781   7.931   5.087   2.326
 7949TIP3   OH223782   8.287   5.724   3.466
 7949TIP3    H123783   8.228   5.649   3.467
 7949TIP3    H223784   8.263   5.772   3.387
 7950TIP3   OH223785   7.421   4.309   3.983
 7950TIP3    H123786   7.326   4.313   3.987
 7950TIP3    H223787   7.446   4.255   4.058
 7951TIP3   OH223788   8.225   5.094   2.440
 7951TIP3    H123789   8.183   5.016   2.477
 7951TIP3    H223790   8.271   5.062   2.362
 7952TIP3   OH223791   7.166   5.421   3.617
 7952TIP3    H123792   7.217   5.362   3.672
 7952TIP3    H223793   7.181   5.508   3.655
 7953TIP3   OH223794   7.435   5.031   2.315
 7953TIP3    H123795   7.443   4.941   2.284
 7953TIP3    H223796   7.412   5.023   2.407
 7954TIP3   OH223797   7.375   5.044   2.584
 7954TIP3    H123798   7.447   5.019   2.641
 7954TIP3    H223799   7.373   5.139   2.588
 7955TIP3   OH223800   7.108   4.737   2.795
 7955TIP3    H123801   7.041   4.782   2.846
 7955TIP3    H223802   7.125   4.795   2.722
 7956TIP3   OH223803   8.174   4.400   3.688
 7956TIP3    H123804   8.263   4.427   3.707
 7956TIP3    H223805   8.153   4.335   3.755
 7957TIP3   OH223806   8.064   4.142   2.828
 7957TIP3    H123807   8.121   4.100   2.763
 7957TIP3    H223808   8.119   4.210   2.867
 7958TIP3   OH223809   7.653   5.236   2.531
 7958TIP3    H123810   7.566   5.258   2.563
 7958TIP3    H223811   7.671   5.303   2.465
 7959TIP3   OH223812   7.804   4.317   2.931
 7959TIP3    H123813   7.896   4.326   2.905
 7959TIP3    H223814   7.806   4.317   3.026
 7960TIP3   OH223815   8.062   4.646   3.724
 7960TIP3    H123816   8.088   4.688   3.805
 7960TIP3    H223817   8.104   4.560   3.727
 7961TIP3   OH223818   7.939   4.033   3.047
 7961TIP3    H123819   7.975   4.085   3.119
 7961TIP3    H223820   7.984   4.067   2.969
 7962TIP3   OH223821   7.398   5.316   2.598
 7962TIP3    H123822   7.374   5.385   2.538
 7962TIP3    H223823   7.385   5.354   2.685
 7963TIP3   OH223824   7.471   4.031   2.839
 7963TIP3    H123825   7.452   4.120   2.868
 7963TIP3    H223826   7.566   4.024   2.846
 7964TIP3   OH223827   8.240   4.723   3.066
 7964TIP3    H123828   8.330   4.690   3.074
 7964TIP3    H223829   8.206   4.722   3.155
 7965TIP3   OH223830   7.129   4.912   2.579
 7965TIP3    H123831   7.200   4.976   2.586
 7965TIP3    H223832   7.160   4.850   2.512
 7966TIP3   OH223833   7.038   4.204   2.706
 7966TIP3    H123834   7.054   4.298   2.719
 7966TIP3    H223835   6.968   4.200   2.641
 7967TIP3   OH223836   8.352   5.664   3.016
 7967TIP3    H123837   8.307   5.714   2.948
 7967TIP3    H223838   8.444   5.686   3.004
 7968TIP3   OH223839   7.414   3.928   3.580
 7968TIP3    H123840   7.393   3.893   3.493
 7968TIP3    H223841   7.409   3.852   3.638
 7969TIP3   OH223842   6.961   5.179   2.968
 7969TIP3    H123843   6.916   5.215   3.044
 7969TIP3    H223844   6.919   5.221   2.893
 7970TIP3   OH223845   7.167   5.719   4.039
 7970TIP3    H123846   7.248   5.727   4.088
 7970TIP3    H223847   7.156   5.625   4.024
 7971TIP3   OH223848   7.627   5.627   4.081
 7971TIP3    H123849   7.718   5.601   4.091
 7971TIP3    H223850   7.594   5.573   4.010
 7972TIP3   OH223851   7.586   5.232   2.212
 7972TIP3    H123852   7.536   5.161   2.252
 7972TIP3    H223853   7.653   5.188   2.161
 7973TIP3   OH223854   8.220   5.536   3.821
 7973TIP3    H123855   8.233   5.476   3.894
 7973TIP3    H223856   8.277   5.611   3.842
 7974TIP3   OH223857   7.973   5.306   2.078
 7974TIP3    H123858   8.013   5.262   2.153
 7974TIP3    H223859   8.040   5.301   2.009
 7975TIP3   OH223860   7.265   5.117   4.226
 7975TIP3    H123861   7.286   5.025   4.238
 7975TIP3    H223862   7.178   5.118   4.188
 7976TIP3   OH223863   7.255   4.725   2.423
 7976TIP3    H123864   7.305   4.702   2.501
 7976TIP3    H223865   7.320   4.741   2.355
 7977TIP3   OH223866   7.884   5.209   4.006
 7977TIP3    H123867   7.830   5.228   3.929
 7977TIP3    H223868   7.907   5.117   3.998
 7978TIP3   OH223869   7.791   4.936   2.262
 7978TIP3    H123870   7.764   4.953   2.353
 7978TIP3    H223871   7.770   4.843   2.249
 7979TIP3   OH223872   8.314   5.222   3.763
 7979TIP3    H123873   8.334   5.226   3.670
 7979TIP3    H223874   8.218   5.222   3.766
 7980TIP3   OH223875   7.381   4.862   4.234
 7980TIP3    H123876   7.457   4.844   4.179
 7980TIP3    H223877   7.418   4.881   4.321
 7981TIP3   OH223878   7.422   4.667   2.642
 7981TIP3    H123879   7.398   4.635   2.729
 7981TIP3    H223880   7.465   4.593   2.599
 7982TIP3   OH223881   7.739   4.745   3.894
 7982TIP3    H123882   7.653   4.785   3.905
 7982TIP3    H223883   7.770   4.777   3.809
 7983TIP3   OH223884   7.545   4.477   2.486
 7983TIP3    H123885   7.511   4.485   2.397
 7983TIP3    H223886   7.641   4.475   2.475
 7984TIP3   OH223887   8.237   5.124   4.047
 7984TIP3    H123888   8.310   5.089   3.997
 7984TIP3    H223889   8.224   5.062   4.119
 7985TIP3   OH223890   7.841   4.515   4.005
 7985TIP3    H123891   7.845   4.446   3.939
 7985TIP3    H223892   7.811   4.592   3.957
 7986TIP3   OH223893   7.847   4.320   3.800
 7986TIP3    H123894   7.878   4.357   3.717
 7986TIP3    H223895   7.754   4.301   3.784
 7987TIP3   OH223896   7.841   4.855   3.670
 7987TIP3    H123897   7.931   4.863   3.638
 7987TIP3    H223898   7.791   4.916   3.615
 7988TIP3   OH223899   8.400   4.822   4.046
 7988TIP3    H123900   8.447   4.746   4.013
 7988TIP3    H223901   8.433   4.895   3.995
 7989TIP3   OH223902   8.463   5.032   3.884
 7989TIP3    H123903   8.410   5.094   3.835
 7989TIP3    H223904   8.525   4.997   3.820
 7990TIP3   OH223905   7.718   4.601   4.240
 7990TIP3    H123906   7.653   4.534   4.261
 7990TIP3    H223907   7.751   4.576   4.154
 7991TIP3   OH223908   7.881   4.070   3.937
 7991TIP3    H123909   7.835   4.144   3.897
 7991TIP3    H223910   7.833   3.993   3.908
 7992TIP3   OH223911   8.105   4.550   4.098
 7992TIP3    H123912   8.119   4.538   4.192
 7992TIP3    H223913   8.014   4.526   4.084
 7993TIP3   OH223914   8.332   4.509   3.940
 7993TIP3    H123915   8.250   4.524   3.987
 7993TIP3    H223916   8.386   4.459   4.001
 7994TIP3   OH223917   8.469   4.402   4.149
 7994TIP3    H123918   8.529   4.342   4.192
 7994TIP3    H223919   8.461   4.476   4.210
 7995TIP3   OH223920   7.562   4.378   4.307
 7995TIP3    H123921   7.569   4.290   4.271
 7995TIP3    H223922   7.600   4.370   4.395
 7996TIP3   OH223923   8.027   4.052   4.166
 7996TIP3    H123924   8.076   3.969   4.167
 7996TIP3    H223925   7.974   4.048   4.087
 7997TIP3   OH223926   8.122   4.268   4.297
 7997TIP3    H123927   8.085   4.195   4.248
 7997TIP3    H223928   8.051   4.332   4.303
 7998TIP3   OH223929   7.383   5.527   2.420
 7998TIP3    H123930   7.473   5.508   2.394
 7998TIP3    H223931   7.344   5.571   2.344
 7999TIP3   OH223932   6.856   4.907   2.598
 7999TIP3    H123933   6.951   4.919   2.593
 7999TIP3    H223934   6.841   4.822   2.557
 8000TIP3   OH223935   6.763   5.490   3.053
 8000TIP3    H123936   6.698   5.437   3.007
 8000TIP3    H223937   6.808   5.429   3.111
 8001TIP3   OH223938   6.906   5.322   3.220
 8001TIP3    H123939   6.898   5.253   3.286
 8001TIP3    H223940   6.957   5.391   3.263
 8002TIP3   OH223941   0.297   5.802   3.318
 8002TIP3    H123942   0.292   5.711   3.289
 8002TIP3    H223943   0.269   5.800   3.410
 8003TIP3   OH223944   0.116   5.565   3.838
 8003TIP3    H123945   0.061   5.492   3.867
 8003TIP3    H223946   0.205   5.538   3.859
 8004TIP3   OH223947   8.471   5.615   3.280
 8004TIP3    H123948   8.428   5.660   3.353
 8004TIP3    H223949   8.412   5.629   3.206
 8005TIP3   OH223950   8.413   4.600   2.816
 8005TIP3    H123951   8.491   4.546   2.805
 8005TIP3    H223952   8.447   4.689   2.825
 8006TIP3   OH223953   7.078   4.749   3.607
 8006TIP3    H123954   7.070   4.723   3.515
 8006TIP3    H223955   7.173   4.749   3.624
 8007TIP3   OH223956   7.301   4.440   4.247
 8007TIP3    H123957   7.395   4.435   4.264
 8007TIP3    H223958   7.265   4.360   4.284
 8008TIP3   OH223959   7.262   4.155   3.609
 8008TIP3    H123960   7.312   4.074   3.608
 8008TIP3    H223961   7.326   4.224   3.591
 8009TIP3   OH223962   7.056   4.421   3.656
 8009TIP3    H123963   7.105   4.406   3.575
 8009TIP3    H223964   7.072   4.513   3.678
 8010TIP3   OH223965   7.044   3.923   3.157
 8010TIP3    H123966   6.959   3.914   3.200
 8010TIP3    H223967   7.027   3.978   3.081
 8011TIP3   OH223968   8.215   5.652   2.669
 8011TIP3    H123969   8.263   5.653   2.586
 8011TIP3    H223970   8.245   5.730   2.715
 8012TIP3   OH223971   7.262   3.985   3.985
 8012TIP3    H123972   7.214   3.984   4.067
 8012TIP3    H223973   7.205   4.032   3.924
 8013TIP3   OH223974   7.292   5.440   4.050
 8013TIP3    H123975   7.200   5.416   4.044
 8013TIP3    H223976   7.314   5.431   4.143
 8014TIP3   OH223977   7.508   5.487   3.605
 8014TIP3    H123978   7.457   5.561   3.574
 8014TIP3    H223979   7.591   5.494   3.559
 8015TIP3   OH223980   7.905   5.712   3.741
 8015TIP3    H123981   7.942   5.706   3.829
 8015TIP3    H223982   7.967   5.767   3.693
 8016TIP3   OH223983   8.093   5.872   3.620
 8016TIP3    H123984   8.165   5.827   3.576
 8016TIP3    H223985   8.137   5.933   3.679
 8017TIP3   OH223986   7.171   5.720   3.654
 8017TIP3    H123987   7.081   5.737   3.629
 8017TIP3    H223988   7.193   5.788   3.717
 8018TIP3   OH223989   7.401   5.717   3.500
 8018TIP3    H123990   7.318   5.721   3.548
 8018TIP3    H223991   7.378   5.741   3.410
 8019TIP3   OH223992   7.798   5.739   3.293
 8019TIP3    H123993   7.725   5.754   3.233
 8019TIP3    H223994   7.814   5.825   3.333
 8020TIP3   OH223995   8.052   5.648   3.316
 8020TIP3    H123996   7.962   5.678   3.308
 8020TIP3    H223997   8.104   5.716   3.273
 8021TIP3   OH223998   8.233   5.825   3.212
 8021TIP3    H123999   8.249   5.918   3.194
 8021TIP3    H224000   8.264   5.780   3.133
 8022TIP3   OH224001   7.076   5.502   3.366
 8022TIP3    H124002   7.103   5.481   3.456
 8022TIP3    H224003   7.148   5.470   3.312
 8023TIP3   OH224004   7.281   5.390   3.228
 8023TIP3    H124005   7.293   5.306   3.273
 8023TIP3    H224006   7.368   5.431   3.230
 8024TIP3   OH224007   7.549   5.475   3.248
 8024TIP3    H124008   7.568   5.382   3.234
 8024TIP3    H224009   7.603   5.499   3.323
 8025TIP3   OH224010   8.060   4.150   3.266
 8025TIP3    H124011   8.074   4.073   3.321
 8025TIP3    H224012   8.115   4.218   3.306
 8026TIP3   OH224013   7.348   3.817   3.335
 8026TIP3    H124014   7.259   3.783   3.341
 8026TIP3    H224015   7.403   3.740   3.324
 8027TIP3   OH224016   7.180   3.734   2.995
 8027TIP3    H124017   7.200   3.780   2.914
 8027TIP3    H224018   7.140   3.800   3.052
 8028TIP3   OH224019   7.765   3.871   3.196
 8028TIP3    H124020   7.807   3.943   3.147
 8028TIP3    H224021   7.791   3.887   3.287
 8029TIP3   OH224022   8.489   4.009   3.211
 8029TIP3    H124023   8.446   3.972   3.134
 8029TIP3    H224024   8.491   3.936   3.274
 8030TIP3   OH224025   6.844   5.302   2.752
 8030TIP3    H124026   6.761   5.271   2.716
 8030TIP3    H224027   6.851   5.393   2.721
 8031TIP3   OH224028   7.273   3.855   2.749
 8031TIP3    H124029   7.322   3.796   2.692
 8031TIP3    H224030   7.338   3.915   2.784
 8032TIP3   OH224031   7.742   4.060   2.851
 8032TIP3    H124032   7.797   4.012   2.912
 8032TIP3    H224033   7.757   4.152   2.871
 8033TIP3   OH224034   7.639   5.457   2.353
 8033TIP3    H124035   7.718   5.490   2.311
 8033TIP3    H224036   7.610   5.386   2.296
 8034TIP3   OH224037   8.353   5.637   2.422
 8034TIP3    H124038   8.372   5.543   2.423
 8034TIP3    H224039   8.296   5.649   2.345
 8035TIP3   OH224040   7.574   4.109   4.216
 8035TIP3    H124041   7.538   4.043   4.275
 8035TIP3    H224042   7.666   4.116   4.241
 8036TIP3   OH224043   7.818   4.110   4.347
 8036TIP3    H124044   7.895   4.088   4.295
 8036TIP3    H224045   7.812   4.041   4.413
 8037TIP3   OH224046   6.957   5.296   2.402
 8037TIP3    H124047   6.959   5.310   2.496
 8037TIP3    H224048   7.038   5.249   2.382
 8038TIP3   OH224049   8.474   5.780   3.652
 8038TIP3    H124050   8.408   5.767   3.584
 8038TIP3    H224051   8.482   5.875   3.659
 8039TIP3   OH224052   0.504   5.689   4.627
 8039TIP3    H124053   0.578   5.749   4.615
 8039TIP3    H224054   0.498   5.642   4.543
 8040TIP3   OH224055   0.579   5.664   4.948
 8040TIP3    H124056   0.582   5.706   5.034
 8040TIP3    H224057   0.538   5.579   4.964
 8041TIP3   OH224058   0.757   5.956   4.659
 8041TIP3    H124059   0.779   5.890   4.725
 8041TIP3    H224060   0.779   6.039   4.701
 8042TIP3   OH224061   0.446   6.429   4.694
 8042TIP3    H124062   0.471   6.348   4.649
 8042TIP3    H224063   0.464   6.411   4.786
 8043TIP3   OH224064   0.344   5.819   5.095
 8043TIP3    H124065   0.350   5.826   5.000
 8043TIP3    H224066   0.346   5.909   5.126
 8044TIP3   OH224067   1.344   5.185   5.024
 8044TIP3    H124068   1.362   5.268   5.069
 8044TIP3    H224069   1.371   5.201   4.934
 8045TIP3   OH224070   0.768   5.355   5.042
 8045TIP3    H124071   0.792   5.263   5.054
 8045TIP3    H224072   0.706   5.354   4.969
 8046TIP3   OH224073   0.779   5.094   4.633
 8046TIP3    H124074   0.843   5.090   4.704
 8046TIP3    H224075   0.828   5.132   4.559
 8047TIP3   OH224076   1.402   5.402   5.190
 8047TIP3    H124077   1.318   5.447   5.178
 8047TIP3    H224078   1.441   5.443   5.268
 8048TIP3   OH224079   0.326   5.854   4.482
 8048TIP3    H124080   0.273   5.873   4.405
 8048TIP3    H224081   0.408   5.902   4.467
 8049TIP3   OH224082   0.941   5.133   4.845
 8049TIP3    H124083   0.902   5.107   4.928
 8049TIP3    H224084   0.998   5.207   4.867
 8050TIP3   OH224085   0.799   6.204   4.792
 8050TIP3    H124086   0.711   6.200   4.830
 8050TIP3    H224087   0.807   6.294   4.759
 8051TIP3   OH224088   1.140   5.065   5.182
 8051TIP3    H124089   1.055   5.090   5.145
 8051TIP3    H224090   1.204   5.098   5.120
 8052TIP3   OH224091   0.423   4.753   5.175
 8052TIP3    H124092   0.444   4.664   5.202
 8052TIP3    H224093   0.435   4.806   5.255
 8053TIP3   OH224094   0.503   6.220   4.498
 8053TIP3    H124095   0.524   6.126   4.490
 8053TIP3    H224096   0.576   6.264   4.455
 8054TIP3   OH224097   0.588   5.949   4.447
 8054TIP3    H124098   0.639   5.916   4.373
 8054TIP3    H224099   0.651   5.956   4.518
 8055TIP3   OH224100   1.048   6.096   5.158
 8055TIP3    H124101   1.025   6.019   5.107
 8055TIP3    H224102   1.030   6.170   5.100
 8056TIP3   OH224103   0.411   5.537   4.424
 8056TIP3    H124104   0.317   5.520   4.427
 8056TIP3    H224105   0.428   5.563   4.334
 8057TIP3   OH224106   0.363   5.253   4.133
 8057TIP3    H124107   0.419   5.307   4.188
 8057TIP3    H224108   0.424   5.200   4.081
 8058TIP3   OH224109   1.230   5.744   5.023
 8058TIP3    H124110   1.147   5.791   5.026
 8058TIP3    H224111   1.264   5.762   4.935
 8059TIP3   OH224112   0.718   5.579   4.409
 8059TIP3    H124113   0.676   5.570   4.495
 8059TIP3    H224114   0.808   5.550   4.424
 8060TIP3   OH224115   0.957   5.612   5.342
 8060TIP3    H124116   0.946   5.696   5.386
 8060TIP3    H224117   0.874   5.596   5.298
 8061TIP3   OH224118   0.542   6.239   4.900
 8061TIP3    H124119   0.532   6.313   4.959
 8061TIP3    H224120   0.567   6.165   4.956
 8062TIP3   OH224121   0.584   5.408   4.228
 8062TIP3    H124122   0.622   5.480   4.280
 8062TIP3    H224123   0.607   5.429   4.138
 8063TIP3   OH224124   1.055   4.651   4.270
 8063TIP3    H124125   0.979   4.662   4.326
 8063TIP3    H224126   1.057   4.730   4.217
 8064TIP3   OH224127   0.857   6.053   3.816
 8064TIP3    H124128   0.857   6.146   3.795
 8064TIP3    H224129   0.946   6.024   3.797
 8065TIP3   OH224130   1.278   6.460   5.230
 8065TIP3    H124131   1.284   6.365   5.239
 8065TIP3    H224132   1.199   6.484   5.278
 8066TIP3   OH224133   0.359   6.272   3.928
 8066TIP3    H124134   0.421   6.207   3.895
 8066TIP3    H224135   0.395   6.298   4.013
 8067TIP3   OH224136   0.469   6.308   4.177
 8067TIP3    H124137   0.416   6.238   4.215
 8067TIP3    H224138   0.539   6.323   4.241
 8068TIP3   OH224139   1.169   5.574   5.517
 8068TIP3    H124140   1.097   5.583   5.455
 8068TIP3    H224141   1.191   5.481   5.514
 8069TIP3   OH224142   0.731   4.926   5.510
 8069TIP3    H124143   0.803   4.906   5.570
 8069TIP3    H224144   0.672   4.982   5.561
 8070TIP3   OH224145   0.926   5.337   5.419
 8070TIP3    H124146   0.884   5.326   5.504
 8070TIP3    H224147   0.910   5.429   5.396
 8071TIP3   OH224148   0.653   5.458   3.976
 8071TIP3    H124149   0.598   5.443   3.900
 8071TIP3    H224150   0.731   5.503   3.941
 8072TIP3   OH224151   0.325   4.878   4.229
 8072TIP3    H124152   0.323   4.882   4.325
 8072TIP3    H224153   0.296   4.789   4.209
 8073TIP3   OH224154   0.506   5.314   4.555
 8073TIP3    H124155   0.463   5.390   4.515
 8073TIP3    H224156   0.549   5.269   4.482
 8074TIP3   OH224157   0.682   5.529   5.600
 8074TIP3    H124158   0.650   5.481   5.677
 8074TIP3    H224159   0.770   5.559   5.624
 8075TIP3   OH224160   0.654   5.310   4.786
 8075TIP3    H124161   0.595   5.328   4.713
 8075TIP3    H224162   0.705   5.234   4.757
 8076TIP3   OH224163   0.720   5.527   5.246
 8076TIP3    H124164   0.739   5.473   5.169
 8076TIP3    H224165   0.645   5.482   5.288
 8077TIP3   OH224166   0.355   4.952   4.891
 8077TIP3    H124167   0.295   4.978   4.961
 8077TIP3    H224168   0.442   4.964   4.929
 8078TIP3   OH224169   0.807   5.082   5.079
 8078TIP3    H124170   0.790   5.100   5.172
 8078TIP3    H224171   0.735   5.025   5.052
 8079TIP3   OH224172   0.989   6.791   5.316
 8079TIP3    H124173   0.986   6.807   5.222
 8079TIP3    H224174   1.064   6.842   5.347
 8080TIP3   OH224175   0.474   5.409   4.993
 8080TIP3    H124176   0.496   5.362   4.912
 8080TIP3    H224177   0.450   5.340   5.054
 8081TIP3   OH224178   0.387   5.267   5.211
 8081TIP3    H124179   0.307   5.317   5.226
 8081TIP3    H224180   0.446   5.295   5.280
 8082TIP3   OH224181   1.002   5.890   4.983
 8082TIP3    H124182   1.041   5.944   4.914
 8082TIP3    H224183   0.926   5.850   4.942
 8083TIP3   OH224184   0.585   4.943   4.263
 8083TIP3    H124185   0.491   4.938   4.248
 8083TIP3    H224186   0.600   5.034   4.288
 8084TIP3   OH224187   0.574   5.961   5.390
 8084TIP3    H124188   0.535   5.964   5.478
 8084TIP3    H224189   0.514   6.010   5.335
 8085TIP3   OH224190   0.656   5.188   4.358
 8085TIP3    H124191   0.751   5.192   4.368
 8085TIP3    H224192   0.635   5.262   4.301
 8086TIP3   OH224193   0.137   5.808   4.248
 8086TIP3    H124194   0.065   5.870   4.262
 8086TIP3    H224195   0.098   5.723   4.265
 8087TIP3   OH224196   0.443   5.737   5.774
 8087TIP3    H124197   0.416   5.684   5.699
 8087TIP3    H224198   0.503   5.802   5.738
 8088TIP3   OH224199   0.639   6.297   5.253
 8088TIP3    H124200   0.558   6.247   5.241
 8088TIP3    H224201   0.654   6.296   5.348
 8089TIP3   OH224202   1.038   5.299   4.169
 8089TIP3    H124203   0.981   5.254   4.107
 8089TIP3    H224204   1.043   5.389   4.136
 8090TIP3   OH224205   1.292   6.183   5.247
 8090TIP3    H124206   1.198   6.165   5.245
 8090TIP3    H224207   1.325   6.148   5.163
 8091TIP3   OH224208   0.773   6.110   4.074
 8091TIP3    H124209   0.707   6.044   4.097
 8091TIP3    H224210   0.804   6.083   3.988
 8092TIP3   OH224211   0.810   5.751   4.837
 8092TIP3    H124212   0.724   5.734   4.876
 8092TIP3    H224213   0.844   5.665   4.814
 8093TIP3   OH224214   0.632   6.019   5.040
 8093TIP3    H124215   0.556   6.042   5.093
 8093TIP3    H224216   0.659   5.933   5.072
 8094TIP3   OH224217   0.576   5.891   4.028
 8094TIP3    H124218   0.620   5.847   4.101
 8094TIP3    H224219   0.529   5.820   3.983
 8095TIP3   OH224220   0.824   6.463   5.141
 8095TIP3    H124221   0.756   6.407   5.177
 8095TIP3    H224222   0.777   6.533   5.096
 8096TIP3   OH224223   0.865   6.325   3.786
 8096TIP3    H124224   0.908   6.397   3.740
 8096TIP3    H224225   0.789   6.365   3.827
 8097TIP3   OH224226   0.723   5.800   4.242
 8097TIP3    H124227   0.715   5.721   4.296
 8097TIP3    H224228   0.815   5.802   4.216
 8098TIP3   OH224229   0.757   5.138   5.338
 8098TIP3    H124230   0.828   5.193   5.370
 8098TIP3    H224231   0.752   5.066   5.401
 8099TIP3   OH224232   0.665   4.862   4.515
 8099TIP3    H124233   0.628   4.881   4.428
 8099TIP3    H224234   0.702   4.946   4.544
 8100TIP3   OH224235   0.228   5.095   4.668
 8100TIP3    H124236   0.203   5.169   4.723
 8100TIP3    H224237   0.308   5.061   4.708
 8101TIP3   OH224238   0.580   5.343   5.406
 8101TIP3    H124239   0.625   5.393   5.475
 8101TIP3    H224240   0.638   5.269   5.388
 8102TIP3   OH224241   0.507   4.764   4.726
 8102TIP3    H124242   0.466   4.839   4.768
 8102TIP3    H224243   0.561   4.802   4.656
 8103TIP3   OH224244   1.194   5.309   5.411
 8103TIP3    H124245   1.099   5.306   5.418
 8103TIP3    H224246   1.213   5.282   5.321
 8104TIP3   OH224247   0.877   5.484   4.779
 8104TIP3    H124248   0.795   5.439   4.799
 8104TIP3    H224249   0.940   5.447   4.840
 8105TIP3   OH224250   0.830   6.472   4.734
 8105TIP3    H124251   0.790   6.511   4.656
 8105TIP3    H224252   0.924   6.485   4.722
 8106TIP3   OH224253   0.706   6.340   5.517
 8106TIP3    H124254   0.713   6.277   5.588
 8106TIP3    H224255   0.772   6.407   5.537
 8107TIP3   OH224256   0.519   6.077   3.828
 8107TIP3    H124257   0.557   6.020   3.895
 8107TIP3    H224258   0.571   6.061   3.750
 8108TIP3   OH224259   0.208   5.788   3.975
 8108TIP3    H124260   0.159   5.807   4.055
 8108TIP3    H224261   0.158   5.719   3.933
 8109TIP3   OH224262   0.847   6.029   5.343
 8109TIP3    H124263   0.898   6.074   5.275
 8109TIP3    H224264   0.756   6.047   5.321
 8110TIP3   OH224265   0.021   5.349   4.187
 8110TIP3    H124266  -0.004   5.343   4.095
 8110TIP3    H224267   0.064   5.265   4.205
 8111TIP3   OH224268   0.678   5.893   5.700
 8111TIP3    H124269   0.730   5.876   5.622
 8111TIP3    H224270   0.715   5.835   5.767
 8112TIP3   OH224271   0.857   5.572   3.834
 8112TIP3    H124272   0.835   5.526   3.753
 8112TIP3    H224273   0.826   5.662   3.820
 8113TIP3   OH224274   0.359   5.014   5.346
 8113TIP3    H124275   0.377   5.068   5.269
 8113TIP3    H224276   0.334   5.077   5.414
 8114TIP3   OH224277   0.357   5.757   5.420
 8114TIP3    H124278   0.402   5.710   5.350
 8114TIP3    H224279   0.323   5.836   5.378
 8115TIP3   OH224280   0.945   5.561   5.721
 8115TIP3    H124281   0.987   5.478   5.744
 8115TIP3    H224282   1.014   5.611   5.677
 8116TIP3   OH224283   0.958   5.843   5.496
 8116TIP3    H124284   0.905   5.908   5.450
 8116TIP3    H224285   1.047   5.858   5.466
 8117TIP3   OH224286   0.377   4.853   5.595
 8117TIP3    H124287   0.430   4.898   5.529
 8117TIP3    H224288   0.414   4.764   5.597
 8118TIP3   OH224289   0.589   5.366   5.803
 8118TIP3    H124290   0.625   5.342   5.888
 8118TIP3    H224291   0.499   5.394   5.822
 8119TIP3   OH224292   0.810   5.264   5.651
 8119TIP3    H124293   0.730   5.279   5.701
 8119TIP3    H224294   0.879   5.260   5.717
 8120TIP3   OH224295   1.026   5.269   5.825
 8120TIP3    H124296   1.051   5.177   5.830
 8120TIP3    H224297   1.028   5.299   5.916
 8121TIP3   OH224298   0.604   4.878   5.794
 8121TIP3    H124299   0.664   4.803   5.793
 8121TIP3    H224300   0.532   4.851   5.736
 8122TIP3   OH224301   0.557   5.037   6.005
 8122TIP3    H124302   0.596   5.000   5.925
 8122TIP3    H224303   0.593   5.125   6.011
 8123TIP3   OH224304   1.100   6.521   4.726
 8123TIP3    H124305   1.117   6.542   4.817
 8123TIP3    H224306   1.144   6.590   4.676
 8124TIP3   OH224307   1.122   6.542   5.004
 8124TIP3    H124308   1.074   6.459   4.997
 8124TIP3    H224309   1.188   6.526   5.071
 8125TIP3   OH224310   1.184   6.250   5.572
 8125TIP3    H124311   1.109   6.260   5.631
 8125TIP3    H224312   1.225   6.336   5.570
 8126TIP3   OH224313   0.995   5.767   4.188
 8126TIP3    H124314   1.051   5.837   4.154
 8126TIP3    H224315   1.046   5.728   4.259
 8127TIP3   OH224316   1.133   5.623   4.380
 8127TIP3    H124317   1.072   5.579   4.439
 8127TIP3    H224318   1.200   5.661   4.438
 8128TIP3   OH224319   1.172   6.029   4.816
 8128TIP3    H124320   1.223   5.963   4.771
 8128TIP3    H224321   1.172   6.105   4.757
 8129TIP3   OH224322   0.980   6.301   4.988
 8129TIP3    H124323   0.916   6.351   5.039
 8129TIP3    H224324   0.929   6.259   4.919
 8130TIP3   OH224325   1.037   5.540   4.036
 8130TIP3    H124326   0.975   5.545   3.963
 8130TIP3    H224327   1.019   5.618   4.088
 8131TIP3   OH224328   0.888   5.187   3.974
 8131TIP3    H124329   0.835   5.225   3.903
 8131TIP3    H224330   0.881   5.093   3.961
 8132TIP3   OH224331   0.946   5.466   4.515
 8132TIP3    H124332   0.951   5.372   4.501
 8132TIP3    H224333   0.931   5.476   4.609
 8133TIP3   OH224334   1.202   5.898   5.384
 8133TIP3    H124335   1.269   5.834   5.358
 8133TIP3    H224336   1.196   5.958   5.310
 8134TIP3   OH224337   1.375   5.683   5.368
 8134TIP3    H124338   1.306   5.649   5.424
 8134TIP3    H224339   1.452   5.631   5.390
 8135TIP3   OH224340   0.857   4.917   3.939
 8135TIP3    H124341   0.923   4.892   4.003
 8135TIP3    H224342   0.777   4.873   3.967
 8136TIP3   OH224343   0.930   5.193   4.409
 8136TIP3    H124344   0.975   5.109   4.418
 8136TIP3    H224345   0.969   5.233   4.331
 8137TIP3   OH224346   1.078   5.360   4.929
 8137TIP3    H124347   1.159   5.383   4.885
 8137TIP3    H224348   1.085   5.402   5.015
 8138TIP3   OH224349   1.149   5.516   5.155
 8138TIP3    H124350   1.082   5.546   5.217
 8138TIP3    H224351   1.178   5.595   5.110
 8139TIP3   OH224352   1.576   5.119   5.689
 8139TIP3    H124353   1.650   5.066   5.660
 8139TIP3    H224354   1.552   5.171   5.612
 8140TIP3   OH224355   1.034   4.939   4.454
 8140TIP3    H124356   1.079   4.930   4.538
 8140TIP3    H224357   0.980   4.860   4.447
 8141TIP3   OH224358   1.449   5.234   5.478
 8141TIP3    H124359   1.363   5.274   5.489
 8141TIP3    H224360   1.432   5.150   5.436
 8142TIP3   OH224361   1.077   4.865   4.097
 8142TIP3    H124362   1.125   4.807   4.039
 8142TIP3    H224363   1.131   4.944   4.101
 8143TIP3   OH224364   0.674   6.374   4.354
 8143TIP3    H124365   0.737   6.382   4.282
 8143TIP3    H224366   0.695   6.448   4.411
 8144TIP3   OH224367   0.585   6.602   5.272
 8144TIP3    H124368   0.597   6.522   5.323
 8144TIP3    H224369   0.625   6.670   5.326
 8145TIP3   OH224370   1.361   4.985   5.387
 8145TIP3    H124371   1.276   4.982   5.343
 8145TIP3    H224372   1.394   4.895   5.383
 8146TIP3   OH224373   0.521   6.493   5.015
 8146TIP3    H124374   0.517   6.518   5.107
 8146TIP3    H224375   0.583   6.555   4.975
 8147TIP3   OH224376   0.743   6.649   4.929
 8147TIP3    H124377   0.731   6.731   4.881
 8147TIP3    H224378   0.770   6.586   4.862
 8148TIP3   OH224379   0.597   4.911   5.018
 8148TIP3    H124380   0.542   4.845   5.061
 8148TIP3    H224381   0.659   4.860   4.966
 8149TIP3   OH224382   1.078   4.824   4.915
 8149TIP3    H124383   1.111   4.877   4.843
 8149TIP3    H224384   0.983   4.836   4.912
 8150TIP3   OH224385   1.192   4.901   4.676
 8150TIP3    H124386   1.263   4.841   4.650
 8150TIP3    H224387   1.228   4.988   4.664
 8151TIP3   OH224388   0.308   4.649   4.930
 8151TIP3    H124389   0.387   4.610   4.893
 8151TIP3    H224390   0.337   4.685   5.014
 8152TIP3   OH224391   0.799   4.773   4.895
 8152TIP3    H124392   0.799   4.729   4.810
 8152TIP3    H224393   0.801   4.701   4.959
 8153TIP3   OH224394   0.875   4.704   4.463
 8153TIP3    H124395   0.795   4.755   4.477
 8153TIP3    H224396   0.858   4.622   4.509
 8154TIP3   OH224397   0.340   4.875   4.500
 8154TIP3    H124398   0.317   4.814   4.570
 8154TIP3    H224399   0.394   4.942   4.543
 8155TIP3   OH224400   0.821   6.376   4.120
 8155TIP3    H124401   0.809   6.282   4.108
 8155TIP3    H224402   0.774   6.415   4.047
 8156TIP3   OH224403   1.111   5.006   5.827
 8156TIP3    H124404   1.131   4.971   5.914
 8156TIP3    H224405   1.193   4.999   5.779
 8157TIP3   OH224406   1.026   6.519   5.327
 8157TIP3    H124407   0.957   6.488   5.268
 8157TIP3    H224408   1.012   6.614   5.332
 8158TIP3   OH224409   2.301   5.915   4.061
 8158TIP3    H124410   2.269   6.000   4.032
 8158TIP3    H224411   2.231   5.853   4.039
 8159TIP3   OH224412   2.301   5.900   4.486
 8159TIP3    H124413   2.351   5.883   4.566
 8159TIP3    H224414   2.254   5.818   4.469
 8160TIP3   OH224415   1.595   5.760   4.832
 8160TIP3    H124416   1.633   5.710   4.905
 8160TIP3    H224417   1.671   5.788   4.781
 8161TIP3   OH224418   2.593   6.203   4.164
 8161TIP3    H124419   2.564   6.139   4.229
 8161TIP3    H224420   2.585   6.287   4.209
 8162TIP3   OH224421   1.591   6.186   4.511
 8162TIP3    H124422   1.571   6.093   4.523
 8162TIP3    H224423   1.686   6.189   4.508
 8163TIP3   OH224424   1.274   5.389   4.304
 8163TIP3    H124425   1.240   5.476   4.326
 8163TIP3    H224426   1.200   5.345   4.261
 8164TIP3   OH224427   1.358   5.709   4.521
 8164TIP3    H124428   1.407   5.632   4.549
 8164TIP3    H224429   1.424   5.775   4.502
 8165TIP3   OH224430   2.222   6.646   4.171
 8165TIP3    H124431   2.248   6.578   4.110
 8165TIP3    H224432   2.211   6.601   4.254
 8166TIP3   OH224433   2.108   6.122   4.491
 8166TIP3    H124434   2.153   6.042   4.463
 8166TIP3    H224435   2.177   6.177   4.527
 8167TIP3   OH224436   3.114   5.467   4.514
 8167TIP3    H124437   3.141   5.536   4.574
 8167TIP3    H224438   3.108   5.510   4.429
 8168TIP3   OH224439   2.513   5.612   4.525
 8168TIP3    H124440   2.544   5.526   4.555
 8168TIP3    H224441   2.474   5.594   4.440
 8169TIP3   OH224442   1.872   5.277   4.491
 8169TIP3    H124443   1.849   5.349   4.431
 8169TIP3    H224444   1.818   5.203   4.461
 8170TIP3   OH224445   2.562   5.372   4.121
 8170TIP3    H124446   2.626   5.365   4.192
 8170TIP3    H224447   2.612   5.406   4.047
 8171TIP3   OH224448   1.492   5.485   4.615
 8171TIP3    H124449   1.575   5.468   4.659
 8171TIP3    H224450   1.496   5.434   4.534
 8172TIP3   OH224451   1.911   5.685   4.431
 8172TIP3    H124452   2.005   5.670   4.439
 8172TIP3    H224453   1.876   5.603   4.397
 8173TIP3   OH224454   3.191   5.669   4.682
 8173TIP3    H124455   3.101   5.700   4.686
 8173TIP3    H224456   3.231   5.701   4.763
 8174TIP3   OH224457   1.848   5.275   4.940
 8174TIP3    H124458   1.796   5.311   4.868
 8174TIP3    H224459   1.794   5.290   5.018
 8175TIP3   OH224460   2.202   6.131   3.921
 8175TIP3    H124461   2.161   6.100   3.841
 8175TIP3    H224462   2.148   6.205   3.949
 8176TIP3   OH224463   1.941   6.049   4.701
 8176TIP3    H124464   1.888   6.121   4.736
 8176TIP3    H224465   1.990   6.089   4.629
 8177TIP3   OH224466   2.722   5.394   4.341
 8177TIP3    H124467   2.679   5.370   4.423
 8177TIP3    H224468   2.774   5.472   4.363
 8178TIP3   OH224469   1.736   5.382   4.710
 8178TIP3    H124470   1.790   5.457   4.735
 8178TIP3    H224471   1.785   5.340   4.639
 8179TIP3   OH224472   1.786   6.252   4.807
 8179TIP3    H124473   1.773   6.343   4.779
 8179TIP3    H224474   1.709   6.231   4.860
 8180TIP3   OH224475   1.163   5.954   4.063
 8180TIP3    H124476   1.128   5.976   3.977
 8180TIP3    H224477   1.186   6.038   4.102
 8181TIP3   OH224478   2.588   6.453   4.293
 8181TIP3    H124479   2.506   6.444   4.341
 8181TIP3    H224480   2.583   6.540   4.253
 8182TIP3   OH224481   2.907   5.355   4.671
 8182TIP3    H124482   2.822   5.372   4.631
 8182TIP3    H224483   2.971   5.384   4.606
 8183TIP3   OH224484   2.184   4.975   4.657
 8183TIP3    H124485   2.179   4.883   4.682
 8183TIP3    H224486   2.110   5.016   4.702
 8184TIP3   OH224487   2.309   6.490   3.957
 8184TIP3    H124488   2.362   6.410   3.949
 8184TIP3    H224489   2.368   6.559   3.926
 8185TIP3   OH224490   2.452   6.261   3.925
 8185TIP3    H124491   2.380   6.198   3.920
 8185TIP3    H224492   2.506   6.228   3.997
 8186TIP3   OH224493   2.840   6.339   4.647
 8186TIP3    H124494   2.823   6.262   4.593
 8186TIP3    H224495   2.825   6.414   4.589
 8187TIP3   OH224496   2.125   5.750   3.919
 8187TIP3    H124497   2.042   5.793   3.899
 8187TIP3    H224498   2.171   5.747   3.835
 8188TIP3   OH224499   2.099   5.555   3.603
 8188TIP3    H124500   2.164   5.603   3.654
 8188TIP3    H224501   2.150   5.487   3.557
 8189TIP3   OH224502   3.019   6.002   4.512
 8189TIP3    H124503   2.935   6.047   4.509
 8189TIP3    H224504   3.056   6.015   4.425
 8190TIP3   OH224505   2.488   5.845   3.875
 8190TIP3    H124506   2.433   5.873   3.948
 8190TIP3    H224507   2.570   5.817   3.915
 8191TIP3   OH224508   2.714   5.869   4.821
 8191TIP3    H124509   2.712   5.952   4.869
 8191TIP3    H224510   2.631   5.867   4.774
 8192TIP3   OH224511   1.713   5.818   4.280
 8192TIP3    H124512   1.677   5.757   4.215
 8192TIP3    H224513   1.786   5.771   4.320
 8193TIP3   OH224514   1.855   6.239   4.420
 8193TIP3    H124515   1.832   6.224   4.328
 8193TIP3    H224516   1.942   6.200   4.429
 8194TIP3   OH224517   1.809   5.813   4.656
 8194TIP3    H124518   1.849   5.777   4.577
 8194TIP3    H224519   1.858   5.894   4.672
 8195TIP3   OH224520   2.364   6.445   4.442
 8195TIP3    H124521   2.351   6.527   4.490
 8195TIP3    H224522   2.347   6.376   4.507
 8196TIP3   OH224523   1.988   6.346   4.975
 8196TIP3    H124524   1.929   6.404   5.024
 8196TIP3    H224525   1.929   6.296   4.918
 8197TIP3   OH224526   2.316   5.701   3.715
 8197TIP3    H124527   2.375   5.757   3.766
 8197TIP3    H224528   2.344   5.714   3.625
 8198TIP3   OH224529   1.741   5.900   5.116
 8198TIP3    H124530   1.744   5.993   5.137
 8198TIP3    H224531   1.647   5.880   5.110
 8199TIP3   OH224532   2.063   6.367   3.966
 8199TIP3    H124533   2.143   6.419   3.970
 8199TIP3    H224534   2.000   6.421   3.919
 8200TIP3   OH224535   1.782   6.506   5.066
 8200TIP3    H124536   1.755   6.520   4.975
 8200TIP3    H224537   1.701   6.491   5.114
 8201TIP3   OH224538   2.822   4.925   3.761
 8201TIP3    H124539   2.746   4.947   3.814
 8201TIP3    H224540   2.834   5.002   3.704
 8202TIP3   OH224541   1.587   5.660   4.079
 8202TIP3    H124542   1.510   5.708   4.050
 8202TIP3    H224543   1.555   5.572   4.098
 8203TIP3   OH224544   2.649   6.304   3.317
 8203TIP3    H124545   2.640   6.398   3.298
 8203TIP3    H224546   2.740   6.284   3.295
 8204TIP3   OH224547   1.370   6.065   5.013
 8204TIP3    H124548   1.299   6.048   4.951
 8204TIP3    H224549   1.403   5.979   5.037
 8205TIP3   OH224550   1.209   6.268   4.669
 8205TIP3    H124551   1.297   6.295   4.694
 8205TIP3    H224552   1.153   6.341   4.694
 8206TIP3   OH224553   3.091   6.714   4.732
 8206TIP3    H124554   3.092   6.619   4.742
 8206TIP3    H224555   3.004   6.740   4.761
 8207TIP3   OH224556   2.173   6.494   4.837
 8207TIP3    H124557   2.166   6.584   4.869
 8207TIP3    H224558   2.107   6.446   4.886
 8208TIP3   OH224559   1.954   6.596   3.790
 8208TIP3    H124560   1.903   6.575   3.712
 8208TIP3    H224561   1.915   6.678   3.823
 8209TIP3   OH224562   1.388   6.446   4.171
 8209TIP3    H124563   1.432   6.439   4.256
 8209TIP3    H224564   1.338   6.364   4.164
 8210TIP3   OH224565   2.153   6.528   3.417
 8210TIP3    H124566   2.202   6.453   3.383
 8210TIP3    H224567   2.186   6.539   3.506
 8211TIP3   OH224568   2.206   6.566   3.688
 8211TIP3    H124569   2.119   6.571   3.728
 8211TIP3    H224570   2.261   6.528   3.757
 8212TIP3   OH224571   2.963   5.819   4.980
 8212TIP3    H124572   2.876   5.824   4.940
 8212TIP3    H224573   2.979   5.725   4.991
 8213TIP3   OH224574   1.568   6.251   4.975
 8213TIP3    H124575   1.616   6.246   5.058
 8213TIP3    H224576   1.497   6.188   4.985
 8214TIP3   OH224577   1.953   5.061   4.798
 8214TIP3    H124578   1.869   5.027   4.769
 8214TIP3    H224579   1.932   5.141   4.845
 8215TIP3   OH224580   2.489   5.179   4.994
 8215TIP3    H124581   2.559   5.158   5.056
 8215TIP3    H224582   2.408   5.166   5.043
 8216TIP3   OH224583   2.716   5.607   4.913
 8216TIP3    H124584   2.672   5.600   4.998
 8216TIP3    H224585   2.698   5.697   4.885
 8217TIP3   OH224586   2.397   5.723   3.459
 8217TIP3    H124587   2.339   5.716   3.383
 8217TIP3    H224588   2.481   5.750   3.423
 8218TIP3   OH224589   2.099   5.100   3.763
 8218TIP3    H124590   2.064   5.106   3.852
 8218TIP3    H224591   2.064   5.017   3.729
 8219TIP3   OH224592   1.889   5.592   4.805
 8219TIP3    H124593   1.845   5.599   4.889
 8219TIP3    H224594   1.868   5.674   4.759
 8220TIP3   OH224595   1.771   5.470   4.323
 8220TIP3    H124596   1.682   5.446   4.350
 8220TIP3    H224597   1.780   5.436   4.234
 8221TIP3   OH224598   2.249   5.543   4.051
 8221TIP3    H124599   2.202   5.616   4.011
 8221TIP3    H224600   2.306   5.511   3.982
 8222TIP3   OH224601   2.438   5.807   5.127
 8222TIP3    H124602   2.409   5.741   5.190
 8222TIP3    H224603   2.530   5.822   5.148
 8223TIP3   OH224604   2.417   5.557   4.274
 8223TIP3    H124605   2.347   5.577   4.212
 8223TIP3    H224606   2.464   5.483   4.235
 8224TIP3   OH224607   1.728   5.603   5.027
 8224TIP3    H124608   1.747   5.666   5.097
 8224TIP3    H224609   1.711   5.521   5.073
 8225TIP3   OH224610   1.769   5.080   3.733
 8225TIP3    H124611   1.761   5.085   3.829
 8225TIP3    H224612   1.692   5.125   3.700
 8226TIP3   OH224613   1.322   5.126   4.607
 8226TIP3    H124614   1.386   5.163   4.667
 8226TIP3    H224615   1.362   5.134   4.521
 8227TIP3   OH224616   1.225   5.101   4.109
 8227TIP3    H124617   1.270   5.137   4.032
 8227TIP3    H224618   1.162   5.169   4.134
 8228TIP3   OH224619   2.462   5.812   4.701
 8228TIP3    H124620   2.487   5.745   4.638
 8228TIP3    H224621   2.420   5.764   4.772
 8229TIP3   OH224622   2.138   5.263   4.374
 8229TIP3    H124623   2.061   5.261   4.430
 8229TIP3    H224624   2.212   5.251   4.434
 8230TIP3   OH224625   1.533   5.343   4.384
 8230TIP3    H124626   1.446   5.346   4.345
 8230TIP3    H224627   1.566   5.255   4.366
 8231TIP3   OH224628   1.781   5.345   4.078
 8231TIP3    H124629   1.876   5.356   4.069
 8231TIP3    H224630   1.747   5.362   3.991
 8232TIP3   OH224631   2.584   5.347   4.580
 8232TIP3    H124632   2.568   5.363   4.673
 8232TIP3    H224633   2.516   5.285   4.554
 8233TIP3   OH224634   1.672   5.370   3.828
 8233TIP3    H124635   1.608   5.321   3.775
 8233TIP3    H224636   1.727   5.415   3.764
 8234TIP3   OH224637   2.779   7.051   4.807
 8234TIP3    H124638   2.772   7.066   4.713
 8234TIP3    H224639   2.859   7.096   4.832
 8235TIP3   OH224640   1.723   6.162   5.216
 8235TIP3    H124641   1.803   6.183   5.264
 8235TIP3    H224642   1.653   6.173   5.280
 8236TIP3   OH224643   2.183   5.632   4.483
 8236TIP3    H124644   2.247   5.579   4.436
 8236TIP3    H224645   2.179   5.594   4.571
 8237TIP3   OH224646   1.683   5.100   4.376
 8237TIP3    H124647   1.650   5.028   4.429
 8237TIP3    H224648   1.730   5.058   4.304
 8238TIP3   OH224649   2.157   5.539   4.748
 8238TIP3    H124650   2.070   5.569   4.773
 8238TIP3    H224651   2.217   5.589   4.802
 8239TIP3   OH224652   1.888   5.884   3.860
 8239TIP3    H124653   1.813   5.829   3.835
 8239TIP3    H224654   1.861   5.926   3.942
 8240TIP3   OH224655   2.783   6.140   4.460
 8240TIP3    H124656   2.791   6.199   4.386
 8240TIP3    H224657   2.702   6.091   4.443
 8241TIP3   OH224658   2.352   5.201   3.765
 8241TIP3    H124659   2.259   5.180   3.762
 8241TIP3    H224660   2.355   5.296   3.776
 8242TIP3   OH224661   2.302   6.225   4.888
 8242TIP3    H124662   2.351   6.211   4.969
 8242TIP3    H224663   2.259   6.310   4.900
 8243TIP3   OH224664   2.412   5.466   3.834
 8243TIP3    H124665   2.507   5.470   3.843
 8243TIP3    H224666   2.390   5.544   3.783
 8244TIP3   OH224667   1.577   5.892   4.509
 8244TIP3    H124668   1.617   5.878   4.423
 8244TIP3    H224669   1.645   5.865   4.571
 8245TIP3   OH224670   2.041   6.049   3.706
 8245TIP3    H124671   1.993   6.131   3.703
 8245TIP3    H224672   1.985   5.990   3.757
 8246TIP3   OH224673   1.469   5.835   5.143
 8246TIP3    H124674   1.476   5.814   5.236
 8246TIP3    H224675   1.395   5.782   5.113
 8247TIP3   OH224676   2.205   5.963   5.160
 8247TIP3    H124677   2.137   5.902   5.134
 8247TIP3    H224678   2.287   5.921   5.135
 8248TIP3   OH224679   2.446   6.515   4.763
 8248TIP3    H124680   2.351   6.500   4.768
 8248TIP3    H224681   2.468   6.551   4.849
 8249TIP3   OH224682   2.832   5.562   3.653
 8249TIP3    H124683   2.773   5.519   3.593
 8249TIP3    H224684   2.843   5.650   3.618
 8250TIP3   OH224685   3.085   6.425   4.740
 8250TIP3    H124686   2.990   6.414   4.736
 8250TIP3    H224687   3.116   6.399   4.653
 8251TIP3   OH224688   2.575   6.371   3.587
 8251TIP3    H124689   2.542   6.303   3.646
 8251TIP3    H224690   2.587   6.326   3.503
 8252TIP3   OH224691   2.551   6.004   4.366
 8252TIP3    H124692   2.462   5.984   4.395
 8252TIP3    H224693   2.583   5.923   4.327
 8253TIP3   OH224694   1.704   6.243   4.179
 8253TIP3    H124695   1.696   6.318   4.120
 8253TIP3    H224696   1.619   6.240   4.224
 8254TIP3   OH224697   1.270   5.528   3.889
 8254TIP3    H124698   1.313   5.611   3.909
 8254TIP3    H224699   1.191   5.528   3.943
 8255TIP3   OH224700   1.789   6.000   4.082
 8255TIP3    H124701   1.769   6.089   4.112
 8255TIP3    H224702   1.764   5.944   4.156
 8256TIP3   OH224703   1.989   6.566   4.632
 8256TIP3    H124704   2.027   6.638   4.582
 8256TIP3    H224705   2.062   6.533   4.686
 8257TIP3   OH224706   1.620   6.464   4.025
 8257TIP3    H124707   1.534   6.470   4.065
 8257TIP3    H224708   1.656   6.553   4.031
 8258TIP3   OH224709   2.337   6.224   4.615
 8258TIP3    H124710   2.322   6.224   4.709
 8258TIP3    H224711   2.416   6.172   4.603
 8259TIP3   OH224712   2.339   6.102   3.464
 8259TIP3    H124713   2.389   6.076   3.542
 8259TIP3    H224714   2.256   6.056   3.473
 8260TIP3   OH224715   2.612   6.705   4.638
 8260TIP3    H124716   2.547   6.641   4.669
 8260TIP3    H224717   2.564   6.757   4.573
 8261TIP3   OH224718   2.644   6.577   3.279
 8261TIP3    H124719   2.661   6.635   3.204
 8261TIP3    H224720   2.574   6.621   3.328
 8262TIP3   OH224721   1.680   5.348   5.149
 8262TIP3    H124722   1.585   5.354   5.157
 8262TIP3    H224723   1.707   5.300   5.228
 8263TIP3   OH224724   2.514   6.028   3.664
 8263TIP3    H124725   2.495   5.973   3.740
 8263TIP3    H224726   2.609   6.030   3.659
 8264TIP3   OH224727   1.420   6.439   4.789
 8264TIP3    H124728   1.473   6.378   4.840
 8264TIP3    H224729   1.429   6.523   4.835
 8265TIP3   OH224730   1.687   6.072   3.488
 8265TIP3    H124731   1.696   5.980   3.461
 8265TIP3    H224732   1.671   6.068   3.582
 8266TIP3   OH224733   1.627   6.089   3.760
 8266TIP3    H124734   1.687   6.064   3.829
 8266TIP3    H224735   1.625   6.185   3.764
 8267TIP3   OH224736   1.361   5.780   3.970
 8267TIP3    H124737   1.296   5.827   4.022
 8267TIP3    H224738   1.380   5.838   3.897
 8268TIP3   OH224739   2.532   5.406   4.841
 8268TIP3    H124740   2.605   5.454   4.880
 8268TIP3    H224741   2.518   5.332   4.900
 8269TIP3   OH224742   2.415   5.153   4.032
 8269TIP3    H124743   2.394   5.171   3.940
 8269TIP3    H224744   2.458   5.232   4.063
 8270TIP3   OH224745   1.898   6.279   3.699
 8270TIP3    H124746   1.811   6.300   3.734
 8270TIP3    H224747   1.918   6.352   3.640
 8271TIP3   OH224748   2.061   5.354   4.123
 8271TIP3    H124749   2.123   5.422   4.096
 8271TIP3    H224750   2.085   5.333   4.213
 8272TIP3   OH224751   2.367   5.648   4.901
 8272TIP3    H124752   2.390   5.692   4.983
 8272TIP3    H224753   2.416   5.565   4.903
 8273TIP3   OH224754   2.228   5.050   4.208
 8273TIP3    H124755   2.209   5.126   4.262
 8273TIP3    H224756   2.298   5.079   4.150
 8274TIP3   OH224757   1.646   6.362   3.772
 8274TIP3    H124758   1.625   6.434   3.712
 8274TIP3    H224759   1.634   6.399   3.859
 8275TIP3   OH224760   1.741   5.071   4.011
 8275TIP3    H124761   1.726   5.159   4.044
 8275TIP3    H224762   1.836   5.058   4.020
 8276TIP3   OH224763   2.974   5.532   4.885
 8276TIP3    H124764   2.883   5.553   4.904
 8276TIP3    H224765   2.970   5.468   4.814
 8277TIP3   OH224766   2.637   5.749   4.271
 8277TIP3    H124767   2.559   5.694   4.282
 8277TIP3    H224768   2.702   5.710   4.329
 8278TIP3   OH224769   1.383   5.955   3.753
 8278TIP3    H124770   1.454   6.019   3.761
 8278TIP3    H224771   1.415   5.892   3.688
 8279TIP3   OH224772   1.291   5.249   3.888
 8279TIP3    H124773   1.306   5.343   3.896
 8279TIP3    H224774   1.234   5.241   3.811
 8280TIP3   OH224775   2.619   6.720   4.208
 8280TIP3    H124776   2.569   6.774   4.147
 8280TIP3    H224777   2.705   6.711   4.168
 8281TIP3   OH224778   1.690   4.975   4.766
 8281TIP3    H124779   1.661   4.943   4.680
 8281TIP3    H224780   1.689   4.897   4.821
 8282TIP3   OH224781   1.213   6.220   4.154
 8282TIP3    H124782   1.174   6.259   4.232
 8282TIP3    H224783   1.171   6.264   4.080
 8283TIP3   OH224784   1.404   6.752   5.209
 8283TIP3    H124785   1.483   6.756   5.264
 8283TIP3    H224786   1.382   6.660   5.206
 8284TIP3   OH224787   1.859   6.692   5.261
 8284TIP3    H124788   1.954   6.695   5.273
 8284TIP3    H224789   1.845   6.626   5.193
 8285TIP3   OH224790   1.840   6.272   3.376
 8285TIP3    H124791   1.792   6.202   3.421
 8285TIP3    H224792   1.914   6.227   3.335
 8286TIP3   OH224793   2.505   6.617   5.010
 8286TIP3    H124794   2.515   6.547   5.074
 8286TIP3    H224795   2.579   6.675   5.025
 8287TIP3   OH224796   2.281   6.315   3.302
 8287TIP3    H124797   2.315   6.247   3.361
 8287TIP3    H224798   2.338   6.309   3.225
 8288TIP3   OH224799   1.518   6.160   5.406
 8288TIP3    H124800   1.533   6.066   5.415
 8288TIP3    H224801   1.432   6.167   5.364
 8289TIP3   OH224802   1.507   5.766   3.600
 8289TIP3    H124803   1.558   5.741   3.678
 8289TIP3    H224804   1.572   5.779   3.532
 8290TIP3   OH224805   2.138   6.238   5.181
 8290TIP3    H124806   2.093   6.260   5.099
 8290TIP3    H224807   2.172   6.150   5.166
 8291TIP3   OH224808   2.084   5.987   3.442
 8291TIP3    H124809   2.061   6.002   3.534
 8291TIP3    H224810   2.058   5.897   3.425
 8292TIP3   OH224811   2.611   6.285   4.794
 8292TIP3    H124812   2.690   6.316   4.750
 8292TIP3    H224813   2.547   6.355   4.781
 8293TIP3   OH224814   1.630   5.899   5.408
 8293TIP3    H124815   1.708   5.892   5.353
 8293TIP3    H224816   1.664   5.922   5.495
 8294TIP3   OH224817   1.680   5.706   3.812
 8294TIP3    H124818   1.659   5.676   3.900
 8294TIP3    H224819   1.729   5.634   3.773
 8295TIP3   OH224820   1.994   5.786   5.068
 8295TIP3    H124821   1.910   5.831   5.079
 8295TIP3    H224822   2.025   5.815   4.982
 8296TIP3   OH224823   1.825   5.523   3.657
 8296TIP3    H124824   1.795   5.528   3.566
 8296TIP3    H224825   1.920   5.530   3.651
 8297TIP3   OH224826   2.489   6.167   5.147
 8297TIP3    H124827   2.562   6.130   5.097
 8297TIP3    H224828   2.485   6.115   5.227
 8298TIP3   OH224829   2.618   5.806   3.309
 8298TIP3    H124830   2.619   5.772   3.219
 8298TIP3    H224831   2.592   5.897   3.300
 8299TIP3   OH224832   2.097   5.558   5.181
 8299TIP3    H124833   2.101   5.488   5.116
 8299TIP3    H224834   2.061   5.633   5.133
 8300TIP3   OH224835   2.107   5.361   4.975
 8300TIP3    H124836   2.134   5.398   4.891
 8300TIP3    H224837   2.016   5.335   4.961
 8301TIP3   OH224838   2.110   5.884   4.843
 8301TIP3    H124839   2.198   5.921   4.837
 8301TIP3    H224840   2.055   5.945   4.794
 8302TIP3   OH224841   2.698   5.841   5.235
 8302TIP3    H124842   2.727   5.775   5.298
 8302TIP3    H224843   2.777   5.893   5.217
 8303TIP3   OH224844   2.738   6.112   4.962
 8303TIP3    H124845   2.684   6.173   4.911
 8303TIP3    H224846   2.827   6.128   4.931
 8304TIP3   OH224847   1.989   5.642   5.428
 8304TIP3    H124848   1.919   5.579   5.447
 8304TIP3    H224849   2.020   5.617   5.341
 8305TIP3   OH224850   2.226   5.131   5.081
 8305TIP3    H124851   2.185   5.210   5.047
 8305TIP3    H224852   2.161   5.062   5.067
 8306TIP3   OH224853   2.351   5.602   5.287
 8306TIP3    H124854   2.339   5.590   5.381
 8306TIP3    H224855   2.266   5.580   5.249
 8307TIP3   OH224856   2.586   5.541   5.140
 8307TIP3    H124857   2.515   5.545   5.204
 8307TIP3    H224858   2.664   5.521   5.193
 8308TIP3   OH224859   2.837   5.505   5.268
 8308TIP3    H124860   2.849   5.414   5.293
 8308TIP3    H224861   2.820   5.551   5.351
 8309TIP3   OH224862   1.818   5.425   5.486
 8309TIP3    H124863   1.824   5.336   5.450
 8309TIP3    H224864   1.858   5.418   5.573
 8310TIP3   OH224865   2.298   5.113   5.346
 8310TIP3    H124866   2.366   5.047   5.339
 8310TIP3    H224867   2.266   5.123   5.256
 8311TIP3   OH224868   2.401   5.335   5.479
 8311TIP3    H124869   2.368   5.265   5.423
 8311TIP3    H224870   2.328   5.396   5.487
 8312TIP3   OH224871   1.644   6.573   3.590
 8312TIP3    H124872   1.732   6.550   3.561
 8312TIP3    H224873   1.605   6.619   3.516
 8313TIP3   OH224874   1.110   5.955   3.765
 8313TIP3    H124875   1.205   5.965   3.765
 8313TIP3    H224876   1.095   5.867   3.729
 8314TIP3   OH224877   1.020   6.532   4.228
 8314TIP3    H124878   0.956   6.480   4.179
 8314TIP3    H224879   1.061   6.471   4.289
 8315TIP3   OH224880   1.162   6.366   4.399
 8315TIP3    H124881   1.154   6.300   4.468
 8315TIP3    H224882   1.211   6.437   4.438
 8316TIP3   OH224883   2.964   6.506   5.058
 8316TIP3    H124884   2.892   6.514   5.121
 8316TIP3    H224885   3.011   6.589   5.063
 8317TIP3   OH224886   2.794   6.015   3.662
 8317TIP3    H124887   2.852   6.087   3.638
 8317TIP3    H224888   2.836   5.975   3.738
 8318TIP3   OH224889   2.917   5.877   3.871
 8318TIP3    H124890   2.848   5.838   3.926
 8318TIP3    H224891   2.982   5.909   3.934
 8319TIP3   OH224892   2.969   6.294   4.256
 8319TIP3    H124893   3.021   6.213   4.253
 8319TIP3    H224894   2.896   6.279   4.197
 8320TIP3   OH224895   2.777   6.543   4.480
 8320TIP3    H124896   2.727   6.606   4.532
 8320TIP3    H224897   2.716   6.514   4.412
 8321TIP3   OH224898   2.821   5.794   3.498
 8321TIP3    H124899   2.744   5.789   3.441
 8321TIP3    H224900   2.805   5.871   3.554
 8322TIP3   OH224901   2.674   5.469   3.455
 8322TIP3    H124902   2.648   5.497   3.367
 8322TIP3    H224903   2.657   5.375   3.457
 8323TIP3   OH224904   2.713   5.739   4.005
 8323TIP3    H124905   2.712   5.644   3.988
 8323TIP3    H224906   2.691   5.747   4.097
 8324TIP3   OH224907   1.333   5.803   4.777
 8324TIP3    H124908   1.325   5.773   4.687
 8324TIP3    H224909   1.427   5.798   4.795
 8325TIP3   OH224910   2.997   6.158   4.870
 8325TIP3    H124911   3.062   6.090   4.854
 8325TIP3    H224912   3.021   6.228   4.809
 8326TIP3   OH224913   3.171   5.945   4.858
 8326TIP3    H124914   3.098   5.902   4.901
 8326TIP3    H224915   3.247   5.890   4.880
 8327TIP3   OH224916   2.625   5.204   3.462
 8327TIP3    H124917   2.697   5.162   3.508
 8327TIP3    H224918   2.551   5.145   3.474
 8328TIP3   OH224919   2.705   5.465   3.892
 8328TIP3    H124920   2.748   5.380   3.904
 8328TIP3    H224921   2.747   5.502   3.814
 8329TIP3   OH224922   2.851   5.631   4.413
 8329TIP3    H124923   2.934   5.647   4.368
 8329TIP3    H224924   2.863   5.669   4.500
 8330TIP3   OH224925   2.928   5.774   4.642
 8330TIP3    H124926   2.859   5.802   4.703
 8330TIP3    H224927   2.961   5.856   4.605
 8331TIP3   OH224928   1.556   5.483   5.420
 8331TIP3    H124929   1.649   5.481   5.441
 8331TIP3    H224930   1.522   5.400   5.455
 8332TIP3   OH224931   3.399   5.369   5.180
 8332TIP3    H124932   3.462   5.311   5.139
 8332TIP3    H224933   3.360   5.419   5.108
 8333TIP3   OH224934   2.820   5.216   3.949
 8333TIP3    H124935   2.865   5.203   4.033
 8333TIP3    H224936   2.759   5.142   3.943
 8334TIP3   OH224937   1.525   5.199   4.781
 8334TIP3    H124938   1.580   5.121   4.788
 8334TIP3    H224939   1.586   5.270   4.762
 8335TIP3   OH224940   1.313   5.463   4.832
 8335TIP3    H124941   1.366   5.458   4.753
 8335TIP3    H224942   1.334   5.550   4.869
 8336TIP3   OH224943   3.245   5.489   4.986
 8336TIP3    H124944   3.167   5.529   5.025
 8336TIP3    H224945   3.211   5.419   4.931
 8337TIP3   OH224946   2.870   5.127   3.581
 8337TIP3    H124947   2.913   5.065   3.522
 8337TIP3    H224948   2.925   5.205   3.579
 8338TIP3   OH224949   1.299   4.942   4.320
 8338TIP3    H124950   1.215   4.936   4.367
 8338TIP3    H224951   1.283   5.005   4.250
 8339TIP3   OH224952   2.461   6.682   3.848
 8339TIP3    H124953   2.518   6.676   3.771
 8339TIP3    H224954   2.494   6.757   3.896
 8340TIP3   OH224955   1.521   5.014   5.153
 8340TIP3    H124956   1.473   5.012   5.236
 8340TIP3    H224957   1.466   5.067   5.095
 8341TIP3   OH224958   1.557   6.472   5.226
 8341TIP3    H124959   1.462   6.459   5.220
 8341TIP3    H224960   1.574   6.479   5.320
 8342TIP3   OH224961   1.761   6.529   4.782
 8342TIP3    H124962   1.708   6.602   4.750
 8342TIP3    H224963   1.845   6.539   4.738
 8343TIP3   OH224964   2.160   6.758   4.919
 8343TIP3    H124965   2.198   6.751   5.006
 8343TIP3    H224966   2.221   6.815   4.871
 8344TIP3   OH224967   2.348   6.914   4.790
 8344TIP3    H124968   2.410   6.853   4.750
 8344TIP3    H224969   2.402   6.970   4.846
 8345TIP3   OH224970   3.161   5.235   4.879
 8345TIP3    H124971   3.071   5.209   4.863
 8345TIP3    H224972   3.212   5.154   4.867
 8346TIP3   OH224973   1.427   6.786   4.818
 8346TIP3    H124974   1.332   6.792   4.805
 8346TIP3    H224975   1.445   6.846   4.891
 8347TIP3   OH224976   1.655   6.759   4.672
 8347TIP3    H124977   1.573   6.768   4.721
 8347TIP3    H224978   1.632   6.783   4.582
 8348TIP3   OH224979   2.070   6.774   4.466
 8348TIP3    H124980   1.995   6.785   4.408
 8348TIP3    H224981   2.078   6.859   4.511
 8349TIP3   OH224982   2.335   6.713   4.515
 8349TIP3    H124983   2.243   6.732   4.497
 8349TIP3    H224984   2.383   6.784   4.471
 8350TIP3   OH224985   2.541   6.881   4.419
 8350TIP3    H124986   2.528   6.963   4.371
 8350TIP3    H224987   2.570   6.819   4.353
 8351TIP3   OH224988   1.335   6.547   4.539
 8351TIP3    H124989   1.354   6.518   4.628
 8351TIP3    H224990   1.408   6.513   4.487
 8352TIP3   OH224991   1.539   6.429   4.401
 8352TIP3    H124992   1.549   6.345   4.446
 8352TIP3    H224993   1.625   6.470   4.408
 8353TIP3   OH224994   1.806   6.516   4.427
 8353TIP3    H124995   1.826   6.423   4.413
 8353TIP3    H224996   1.858   6.540   4.504
 8354TIP3   OH224997   2.363   5.163   4.511
 8354TIP3    H124998   2.315   5.096   4.560
 8354TIP3    H224999   2.432   5.115   4.466
 8355TIP3   OH225000   2.868   5.083   4.400
 8355TIP3    H125001   2.899   5.140   4.329
 8355TIP3    H225002   2.774   5.101   4.406
 8356TIP3   OH225003   2.987   5.178   4.168
 8356TIP3    H125004   3.045   5.106   4.145
 8356TIP3    H225005   3.039   5.257   4.155
 8357TIP3   OH225006   1.605   4.876   4.522
 8357TIP3    H125007   1.516   4.840   4.532
 8357TIP3    H225008   1.658   4.801   4.497
 8358TIP3   OH225009   1.461   4.763   4.176
 8358TIP3    H125010   1.476   4.811   4.095
 8358TIP3    H225011   1.408   4.823   4.229
 8359TIP3   OH225012   2.039   4.946   4.397
 8359TIP3    H125013   2.104   4.970   4.331
 8359TIP3    H225014   2.085   4.952   4.481
 8360TIP3   OH225015   2.580   5.030   4.397
 8360TIP3    H125016   2.602   4.992   4.312
 8360TIP3    H225017   2.585   4.957   4.458
 8361TIP3   OH225018   2.636   5.003   3.950
 8361TIP3    H125019   2.556   5.050   3.974
 8361TIP3    H225020   2.626   4.916   3.989
 8362TIP3   OH225021   1.102   6.342   3.936
 8362TIP3    H125022   1.017   6.309   3.905
 8362TIP3    H225023   1.108   6.430   3.900
 8363TIP3   OH225024   1.535   4.897   3.930
 8363TIP3    H125025   1.580   4.843   3.864
 8363TIP3    H225026   1.603   4.957   3.962
 8364TIP3   OH225027   2.016   5.102   4.028
 8364TIP3    H125028   2.076   5.052   4.082
 8364TIP3    H225029   2.028   5.193   4.055
 8365TIP3   OH225030   1.898   6.496   3.519
 8365TIP3    H125031   1.981   6.525   3.481
 8365TIP3    H225032   1.869   6.424   3.463
 8366TIP3   OH225033   2.612   6.641   3.617
 8366TIP3    H125034   2.602   6.546   3.610
 8366TIP3    H225035   2.567   6.676   3.541
 8367TIP3   OH225036   1.828   5.155   5.391
 8367TIP3    H125037   1.792   5.092   5.453
 8367TIP3    H225038   1.921   5.162   5.415
 8368TIP3   OH225039   2.074   5.156   5.518
 8368TIP3    H125040   2.155   5.138   5.470
 8368TIP3    H225041   2.071   5.089   5.586
 8369TIP3   OH225042   1.204   6.342   3.573
 8369TIP3    H125043   1.203   6.358   3.668
 8369TIP3    H225044   1.286   6.294   3.558
 8370TIP3   OH225045   2.901   5.237   5.306
 8370TIP3    H125046   2.917   5.212   5.397
 8370TIP3    H225047   2.987   5.234   5.265
 8371TIP3   OH225048   2.830   6.779   4.800
 8371TIP3    H125049   2.757   6.744   4.749
 8371TIP3    H225050   2.809   6.871   4.813
 8372TIP3   OH225051   4.094   6.164   3.547
 8372TIP3    H125052   4.058   6.251   3.529
 8372TIP3    H225053   4.024   6.103   3.523
 8373TIP3   OH225054   4.092   6.160   3.976
 8373TIP3    H125055   4.145   6.141   4.053
 8373TIP3    H225056   4.047   6.077   3.957
 8374TIP3   OH225057   3.386   6.021   4.320
 8374TIP3    H125058   3.424   5.968   4.390
 8374TIP3    H225059   3.460   6.045   4.265
 8375TIP3   OH225060   4.361   6.467   3.646
 8375TIP3    H125061   4.348   6.399   3.712
 8375TIP3    H225062   4.382   6.546   3.695
 8376TIP3   OH225063   3.354   6.454   4.018
 8376TIP3    H125064   3.346   6.358   4.015
 8376TIP3    H225065   3.448   6.470   4.009
 8377TIP3   OH225066   3.062   5.641   3.804
 8377TIP3    H125067   3.026   5.727   3.825
 8377TIP3    H225068   2.992   5.597   3.756
 8378TIP3   OH225069   3.147   5.948   4.020
 8378TIP3    H125070   3.196   5.870   4.048
 8378TIP3    H225071   3.215   6.008   3.989
 8379TIP3   OH225072   4.021   6.894   3.659
 8379TIP3    H125073   4.043   6.830   3.592
 8379TIP3    H225074   4.032   6.848   3.742
 8380TIP3   OH225075   3.892   6.385   3.981
 8380TIP3    H125076   3.935   6.306   3.949
 8380TIP3    H225077   3.964   6.442   4.009
 8381TIP3   OH225078   4.936   5.700   3.994
 8381TIP3    H125079   4.952   5.784   4.036
 8381TIP3    H225080   4.960   5.714   3.902
 8382TIP3   OH225081   4.305   5.867   4.013
 8382TIP3    H125082   4.340   5.783   4.041
 8382TIP3    H225083   4.269   5.851   3.926
 8383TIP3   OH225084   3.673   5.527   3.968
 8383TIP3    H125085   3.649   5.602   3.914
 8383TIP3    H225086   3.618   5.456   3.937
 8384TIP3   OH225087   4.358   5.629   3.608
 8384TIP3    H125088   4.422   5.623   3.679
 8384TIP3    H225089   4.409   5.662   3.534
 8385TIP3   OH225090   3.284   5.720   4.109
 8385TIP3    H125091   3.368   5.704   4.152
 8385TIP3    H225092   3.293   5.679   4.023
 8386TIP3   OH225093   3.703   5.943   3.920
 8386TIP3    H125094   3.797   5.929   3.927
 8386TIP3    H225095   3.668   5.860   3.887
 8387TIP3   OH225096   4.990   5.921   4.158
 8387TIP3    H125097   4.901   5.955   4.154
 8387TIP3    H225098   5.025   5.956   4.241
 8388TIP3   OH225099   3.625   5.518   4.416
 8388TIP3    H125100   3.575   5.546   4.340
 8388TIP3    H225101   3.567   5.533   4.490
 8389TIP3   OH225102   3.953   6.372   3.436
 8389TIP3    H125103   3.933   6.356   3.344
 8389TIP3    H225104   3.913   6.457   3.454
 8390TIP3   OH225105   3.734   6.306   4.192
 8390TIP3    H125106   3.681   6.378   4.227
 8390TIP3    H225107   3.783   6.345   4.120
 8391TIP3   OH225108   4.517   5.653   3.829
 8391TIP3    H125109   4.476   5.630   3.913
 8391TIP3    H225110   4.574   5.727   3.849
 8392TIP3   OH225111   3.540   5.648   4.185
 8392TIP3    H125112   3.599   5.716   4.216
 8392TIP3    H225113   3.591   5.600   4.120
 8393TIP3   OH225114   3.579   6.511   4.299
 8393TIP3    H125115   3.565   6.602   4.271
 8393TIP3    H225116   3.505   6.491   4.355
 8394TIP3   OH225117   2.967   6.211   3.553
 8394TIP3    H125118   2.928   6.237   3.470
 8394TIP3    H225119   2.995   6.293   3.593
 8395TIP3   OH225120   4.396   6.712   3.792
 8395TIP3    H125121   4.307   6.705   3.827
 8395TIP3    H225122   4.396   6.796   3.745
 8396TIP3   OH225123   4.728   5.600   4.160
 8396TIP3    H125124   4.643   5.619   4.118
 8396TIP3    H225125   4.793   5.625   4.094
 8397TIP3   OH225126   4.013   5.223   4.142
 8397TIP3    H125127   4.004   5.132   4.169
 8397TIP3    H225128   3.949   5.271   4.194
 8398TIP3   OH225129   4.101   6.741   3.440
 8398TIP3    H125130   4.152   6.660   3.430
 8398TIP3    H225131   4.161   6.810   3.413
 8399TIP3   OH225132   4.257   6.523   3.395
 8399TIP3    H125133   4.264   6.446   3.338
 8399TIP3    H225134   4.295   6.496   3.478
 8400TIP3   OH225135   4.630   6.604   4.131
 8400TIP3    H125136   4.613   6.529   4.074
 8400TIP3    H225137   4.616   6.680   4.076
 8401TIP3   OH225138   3.918   6.002   3.400
 8401TIP3    H125139   3.837   6.050   3.380
 8401TIP3    H225140   3.966   6.002   3.318
 8402TIP3   OH225141   3.891   5.812   3.090
 8402TIP3    H125142   3.956   5.860   3.141
 8402TIP3    H225143   3.941   5.745   3.044
 8403TIP3   OH225144   4.813   6.263   4.000
 8403TIP3    H125145   4.729   6.308   3.998
 8403TIP3    H225146   4.849   6.276   3.912
 8404TIP3   OH225147   4.280   6.098   3.359
 8404TIP3    H125148   4.225   6.123   3.433
 8404TIP3    H225149   4.363   6.069   3.400
 8405TIP3   OH225150   4.509   6.125   4.311
 8405TIP3    H125151   4.504   6.208   4.358
 8405TIP3    H225152   4.427   6.121   4.260
 8406TIP3   OH225153   3.502   6.074   3.769
 8406TIP3    H125154   3.468   6.013   3.704
 8406TIP3    H225155   3.576   6.027   3.809
 8407TIP3   OH225156   3.625   6.502   3.917
 8407TIP3    H125157   3.604   6.488   3.825
 8407TIP3    H225158   3.713   6.466   3.927
 8408TIP3   OH225159   3.599   6.072   4.144
 8408TIP3    H125160   3.639   6.034   4.066
 8408TIP3    H225161   3.650   6.151   4.161
 8409TIP3   OH225162   4.151   6.709   3.914
 8409TIP3    H125163   4.144   6.788   3.968
 8409TIP3    H225164   4.139   6.637   3.975
 8410TIP3   OH225165   3.785   6.602   4.463
 8410TIP3    H125166   3.729   6.661   4.512
 8410TIP3    H225167   3.726   6.552   4.407
 8411TIP3   OH225168   4.110   5.956   3.196
 8411TIP3    H125169   4.170   6.013   3.244
 8411TIP3    H225170   4.138   5.962   3.105
 8412TIP3   OH225171   3.537   6.158   4.603
 8412TIP3    H125172   3.540   6.251   4.627
 8412TIP3    H225173   3.443   6.139   4.595
 8413TIP3   OH225174   3.848   6.632   3.451
 8413TIP3    H125175   3.935   6.671   3.456
 8413TIP3    H225176   3.796   6.694   3.400
 8414TIP3   OH225177   3.590   6.773   4.556
 8414TIP3    H125178   3.559   6.782   4.466
 8414TIP3    H225179   3.512   6.754   4.607
 8415TIP3   OH225180   4.624   5.181   3.254
 8415TIP3    H125181   4.546   5.201   3.306
 8415TIP3    H225182   4.634   5.256   3.196
 8416TIP3   OH225183   3.377   5.914   3.564
 8416TIP3    H125184   3.295   5.952   3.530
 8416TIP3    H225185   3.357   5.822   3.579
 8417TIP3   OH225186   4.446   6.560   2.805
 8417TIP3    H125187   4.444   6.653   2.783
 8417TIP3    H225188   4.535   6.533   2.783
 8418TIP3   OH225189   3.161   6.325   4.495
 8418TIP3    H125190   3.098   6.303   4.427
 8418TIP3    H225191   3.196   6.240   4.525
 8419TIP3   OH225192   3.085   6.537   4.158
 8419TIP3    H125193   3.167   6.500   4.127
 8419TIP3    H225194   3.042   6.466   4.204
 8420TIP3   OH225195   4.862   6.964   4.201
 8420TIP3    H125196   4.867   6.869   4.213
 8420TIP3    H225197   4.783   6.990   4.248
 8421TIP3   OH225198   3.966   6.754   4.323
 8421TIP3    H125199   3.959   6.844   4.355
 8421TIP3    H225200   3.903   6.705   4.375
 8422TIP3   OH225201   3.746   6.846   3.279
 8422TIP3    H125202   3.705   6.826   3.196
 8422TIP3    H225203   3.710   6.930   3.305
 8423TIP3   OH225204   3.181   6.710   3.653
 8423TIP3    H125205   3.223   6.702   3.738
 8423TIP3    H225206   3.135   6.627   3.640
 8424TIP3   OH225207   3.949   6.778   2.906
 8424TIP3    H125208   3.999   6.705   2.871
 8424TIP3    H225209   3.985   6.793   2.993
 8425TIP3   OH225210   4.001   6.823   3.176
 8425TIP3    H125211   3.916   6.825   3.219
 8425TIP3    H225212   4.060   6.785   3.241
 8426TIP3   OH225213   4.751   6.079   4.471
 8426TIP3    H125214   4.670   6.086   4.419
 8426TIP3    H225215   4.770   5.986   4.473
 8427TIP3   OH225216   3.371   6.504   4.476
 8427TIP3    H125217   3.418   6.492   4.558
 8427TIP3    H225218   3.296   6.444   4.483
 8428TIP3   OH225219   4.287   5.437   4.482
 8428TIP3    H125220   4.354   5.410   4.543
 8428TIP3    H225221   4.204   5.421   4.527
 8429TIP3   OH225222   4.510   5.859   4.401
 8429TIP3    H125223   4.470   5.856   4.487
 8429TIP3    H225224   4.494   5.949   4.370
 8430TIP3   OH225225   4.188   5.951   2.935
 8430TIP3    H125226   4.144   5.946   2.851
 8430TIP3    H225227   4.272   5.993   2.916
 8431TIP3   OH225228   3.897   5.357   3.248
 8431TIP3    H125229   3.860   5.364   3.336
 8431TIP3    H225230   3.863   5.274   3.215
 8432TIP3   OH225231   3.690   5.854   4.294
 8432TIP3    H125232   3.641   5.856   4.376
 8432TIP3    H225233   3.665   5.935   4.249
 8433TIP3   OH225234   3.565   5.726   3.812
 8433TIP3    H125235   3.477   5.699   3.838
 8433TIP3    H225236   3.575   5.693   3.723
 8434TIP3   OH225237   4.045   5.800   3.536
 8434TIP3    H125238   3.997   5.872   3.495
 8434TIP3    H225239   4.104   5.768   3.468
 8435TIP3   OH225240   4.230   6.065   4.613
 8435TIP3    H125241   4.203   5.995   4.672
 8435TIP3    H225242   4.321   6.082   4.635
 8436TIP3   OH225243   4.212   5.814   3.761
 8436TIP3    H125244   4.144   5.835   3.697
 8436TIP3    H225245   4.260   5.741   3.722
 8437TIP3   OH225246   3.518   5.860   4.510
 8437TIP3    H125247   3.540   5.917   4.583
 8437TIP3    H225248   3.502   5.775   4.550
 8438TIP3   OH225249   3.567   5.336   3.230
 8438TIP3    H125250   3.556   5.340   3.325
 8438TIP3    H225251   3.489   5.379   3.195
 8439TIP3   OH225252   3.155   5.370   4.071
 8439TIP3    H125253   3.178   5.461   4.054
 8439TIP3    H225254   3.143   5.331   3.984
 8440TIP3   OH225255   3.020   5.364   3.591
 8440TIP3    H125256   3.064   5.399   3.513
 8440TIP3    H225257   2.954   5.430   3.613
 8441TIP3   OH225258   4.257   6.068   4.188
 8441TIP3    H125259   4.281   6.002   4.124
 8441TIP3    H225260   4.213   6.019   4.258
 8442TIP3   OH225261   3.938   5.516   3.858
 8442TIP3    H125262   3.860   5.517   3.914
 8442TIP3    H225263   4.011   5.507   3.918
 8443TIP3   OH225264   3.326   5.597   3.868
 8443TIP3    H125265   3.239   5.599   3.831
 8443TIP3    H225266   3.360   5.509   3.847
 8444TIP3   OH225267   3.578   5.605   3.565
 8444TIP3    H125268   3.672   5.615   3.556
 8444TIP3    H225269   3.544   5.623   3.477
 8445TIP3   OH225270   4.380   5.605   4.070
 8445TIP3    H125271   4.361   5.622   4.162
 8445TIP3    H225272   4.312   5.543   4.042
 8446TIP3   OH225273   3.465   5.630   3.316
 8446TIP3    H125274   3.404   5.579   3.263
 8446TIP3    H225275   3.520   5.675   3.252
 8447TIP3   OH225276   4.579   7.311   4.285
 8447TIP3    H125277   4.577   7.324   4.190
 8447TIP3    H225278   4.659   7.354   4.314
 8448TIP3   OH225279   3.519   6.420   4.706
 8448TIP3    H125280   3.599   6.443   4.753
 8448TIP3    H225281   3.449   6.430   4.771
 8449TIP3   OH225282   3.976   5.889   3.968
 8449TIP3    H125283   4.043   5.841   3.920
 8449TIP3    H225284   3.974   5.848   4.055
 8450TIP3   OH225285   3.481   5.356   3.840
 8450TIP3    H125286   3.457   5.278   3.890
 8450TIP3    H225287   3.506   5.323   3.754
 8451TIP3   OH225288   3.951   5.789   4.231
 8451TIP3    H125289   3.865   5.822   4.257
 8451TIP3    H225290   4.013   5.835   4.286
 8452TIP3   OH225291   3.680   6.143   3.341
 8452TIP3    H125292   3.606   6.087   3.318
 8452TIP3    H225293   3.656   6.182   3.425
 8453TIP3   OH225294   4.577   6.399   3.953
 8453TIP3    H125295   4.614   6.447   3.879
 8453TIP3    H225296   4.498   6.358   3.918
 8454TIP3   OH225297   4.151   5.458   3.254
 8454TIP3    H125298   4.058   5.437   3.249
 8454TIP3    H225299   4.154   5.553   3.264
 8455TIP3   OH225300   4.093   6.483   4.360
 8455TIP3    H125301   4.143   6.471   4.440
 8455TIP3    H225302   4.050   6.568   4.370
 8456TIP3   OH225303   4.210   5.724   3.321
 8456TIP3    H125304   4.305   5.726   3.331
 8456TIP3    H225305   4.189   5.801   3.269
 8457TIP3   OH225306   3.373   6.168   3.996
 8457TIP3    H125307   3.411   6.146   3.911
 8457TIP3    H225308   3.437   6.138   4.060
 8458TIP3   OH225309   3.838   6.301   3.184
 8458TIP3    H125310   3.790   6.384   3.183
 8458TIP3    H225311   3.784   6.243   3.238
 8459TIP3   OH225312   3.260   6.100   4.632
 8459TIP3    H125313   3.274   6.081   4.725
 8459TIP3    H225314   3.188   6.043   4.606
 8460TIP3   OH225315   3.996   6.212   4.654
 8460TIP3    H125316   3.927   6.152   4.625
 8460TIP3    H225317   4.078   6.172   4.624
 8461TIP3   OH225318   4.240   6.769   4.252
 8461TIP3    H125319   4.146   6.758   4.257
 8461TIP3    H225320   4.266   6.805   4.337
 8462TIP3   OH225321   4.625   5.813   3.139
 8462TIP3    H125322   4.568   5.768   3.077
 8462TIP3    H225323   4.632   5.902   3.106
 8463TIP3   OH225324   4.876   6.683   4.223
 8463TIP3    H125325   4.781   6.668   4.215
 8463TIP3    H225326   4.912   6.654   4.139
 8464TIP3   OH225327   4.362   6.627   3.066
 8464TIP3    H125328   4.338   6.553   3.120
 8464TIP3    H225329   4.385   6.589   2.981
 8465TIP3   OH225330   4.347   6.263   3.849
 8465TIP3    H125331   4.257   6.242   3.874
 8465TIP3    H225332   4.382   6.182   3.812
 8466TIP3   OH225333   3.504   6.501   3.664
 8466TIP3    H125334   3.507   6.578   3.607
 8466TIP3    H225335   3.411   6.477   3.665
 8467TIP3   OH225336   3.013   5.788   3.298
 8467TIP3    H125337   3.077   5.850   3.333
 8467TIP3    H225338   2.946   5.781   3.367
 8468TIP3   OH225339   3.582   6.252   3.568
 8468TIP3    H125340   3.578   6.342   3.601
 8468TIP3    H225341   3.558   6.197   3.643
 8469TIP3   OH225342   3.779   6.822   4.116
 8469TIP3    H125343   3.818   6.892   4.064
 8469TIP3    H225344   3.852   6.787   4.168
 8470TIP3   OH225345   3.418   6.725   3.512
 8470TIP3    H125346   3.330   6.732   3.550
 8470TIP3    H225347   3.454   6.813   3.517
 8471TIP3   OH225348   4.132   6.488   4.086
 8471TIP3    H125349   4.120   6.484   4.181
 8471TIP3    H225350   4.207   6.431   4.069
 8472TIP3   OH225351   4.133   6.366   2.972
 8472TIP3    H125352   4.178   6.349   3.055
 8472TIP3    H225353   4.049   6.322   2.982
 8473TIP3   OH225354   4.394   6.982   4.135
 8473TIP3    H125355   4.323   6.919   4.151
 8473TIP3    H225356   4.361   7.036   4.063
 8474TIP3   OH225357   4.452   6.834   2.771
 8474TIP3    H125358   4.495   6.905   2.723
 8474TIP3    H225359   4.374   6.875   2.809
 8475TIP3   OH225360   3.466   5.608   4.629
 8475TIP3    H125361   3.372   5.616   4.644
 8475TIP3    H225362   3.498   5.557   4.703
 8476TIP3   OH225363   4.305   6.317   3.192
 8476TIP3    H125364   4.287   6.241   3.247
 8476TIP3    H225365   4.398   6.311   3.171
 8477TIP3   OH225366   3.147   6.760   4.321
 8477TIP3    H125367   3.119   6.689   4.264
 8477TIP3    H225368   3.212   6.721   4.380
 8478TIP3   OH225369   3.477   6.327   2.975
 8478TIP3    H125370   3.488   6.236   2.948
 8478TIP3    H225371   3.466   6.323   3.070
 8479TIP3   OH225372   3.425   6.344   3.249
 8479TIP3    H125373   3.496   6.318   3.307
 8479TIP3    H225374   3.425   6.440   3.253
 8480TIP3   OH225375   3.143   6.018   3.441
 8480TIP3    H125376   3.085   6.066   3.500
 8480TIP3    H225377   3.172   6.083   3.377
 8481TIP3   OH225378   4.321   5.666   4.331
 8481TIP3    H125379   4.399   5.711   4.365
 8481TIP3    H225380   4.311   5.590   4.388
 8482TIP3   OH225381   4.211   5.409   3.521
 8482TIP3    H125382   4.191   5.427   3.429
 8482TIP3    H225383   4.255   5.488   3.552
 8483TIP3   OH225384   3.690   6.528   3.182
 8483TIP3    H125385   3.607   6.555   3.221
 8483TIP3    H225386   3.716   6.602   3.127
 8484TIP3   OH225387   3.857   5.612   3.610
 8484TIP3    H125388   3.919   5.679   3.582
 8484TIP3    H225389   3.884   5.589   3.699
 8485TIP3   OH225390   4.159   5.899   4.383
 8485TIP3    H125391   4.183   5.940   4.467
 8485TIP3    H225392   4.209   5.818   4.381
 8486TIP3   OH225393   4.022   5.304   3.693
 8486TIP3    H125394   4.001   5.381   3.746
 8486TIP3    H225395   4.093   5.333   3.636
 8487TIP3   OH225396   3.442   6.618   3.261
 8487TIP3    H125397   3.423   6.689   3.200
 8487TIP3    H225398   3.433   6.657   3.348
 8488TIP3   OH225399   3.537   5.330   3.512
 8488TIP3    H125400   3.526   5.423   3.536
 8488TIP3    H225401   3.632   5.316   3.514
 8489TIP3   OH225402   4.773   5.798   4.376
 8489TIP3    H125403   4.679   5.812   4.390
 8489TIP3    H225404   4.778   5.738   4.302
 8490TIP3   OH225405   4.439   6.005   3.761
 8490TIP3    H125406   4.362   5.948   3.774
 8490TIP3    H225407   4.506   5.965   3.816
 8491TIP3   OH225408   3.180   6.214   3.242
 8491TIP3    H125409   3.252   6.276   3.254
 8491TIP3    H225410   3.211   6.153   3.176
 8492TIP3   OH225411   3.069   5.509   3.364
 8492TIP3    H125412   3.065   5.600   3.333
 8492TIP3    H225413   3.012   5.461   3.304
 8493TIP3   OH225414   4.420   6.978   3.708
 8493TIP3    H125415   4.380   7.031   3.639
 8493TIP3    H225416   4.514   6.989   3.695
 8494TIP3   OH225417   3.014   6.484   3.629
 8494TIP3    H125418   2.960   6.512   3.704
 8494TIP3    H225419   2.970   6.521   3.553
 8495TIP3   OH225420   3.184   6.994   4.691
 8495TIP3    H125421   3.260   7.000   4.749
 8495TIP3    H225422   3.153   6.904   4.702
 8496TIP3   OH225423   3.638   6.987   4.750
 8496TIP3    H125424   3.726   7.020   4.768
 8496TIP3    H225425   3.653   6.914   4.689
 8497TIP3   OH225426   3.633   6.530   2.866
 8497TIP3    H125427   3.587   6.458   2.910
 8497TIP3    H225428   3.708   6.488   2.824
 8498TIP3   OH225429   4.306   6.867   4.500
 8498TIP3    H125430   4.315   6.800   4.568
 8498TIP3    H225431   4.379   6.927   4.515
 8499TIP3   OH225432   4.076   6.566   2.790
 8499TIP3    H125433   4.113   6.503   2.852
 8499TIP3    H225434   4.134   6.561   2.714
 8500TIP3   OH225435   3.314   6.419   4.895
 8500TIP3    H125436   3.334   6.326   4.906
 8500TIP3    H225437   3.228   6.421   4.855
 8501TIP3   OH225438   3.292   6.021   3.086
 8501TIP3    H125439   3.344   5.995   3.163
 8501TIP3    H225440   3.357   6.034   3.017
 8502TIP3   OH225441   3.929   6.483   4.668
 8502TIP3    H125442   3.888   6.509   4.586
 8502TIP3    H225443   3.960   6.394   4.654
 8503TIP3   OH225444   3.869   6.244   2.918
 8503TIP3    H125445   3.849   6.254   3.011
 8503TIP3    H225446   3.855   6.151   2.901
 8504TIP3   OH225447   4.410   6.544   4.290
 8504TIP3    H125448   4.487   6.570   4.240
 8504TIP3    H225449   4.345   6.612   4.273
 8505TIP3   OH225450   3.428   6.161   4.895
 8505TIP3    H125451   3.506   6.143   4.843
 8505TIP3    H225452   3.461   6.181   4.982
 8506TIP3   OH225453   3.470   5.965   3.296
 8506TIP3    H125454   3.453   5.934   3.385
 8506TIP3    H225455   3.522   5.895   3.256
 8507TIP3   OH225456   3.788   6.043   4.555
 8507TIP3    H125457   3.704   6.088   4.565
 8507TIP3    H225458   3.821   6.072   4.470
 8508TIP3   OH225459   3.618   5.783   3.146
 8508TIP3    H125460   3.589   5.785   3.055
 8508TIP3    H225461   3.714   5.789   3.141
 8509TIP3   OH225462   4.293   6.426   4.643
 8509TIP3    H125463   4.361   6.389   4.587
 8509TIP3    H225464   4.289   6.367   4.718
 8510TIP3   OH225465   4.412   6.072   2.825
 8510TIP3    H125466   4.399   6.030   2.740
 8510TIP3    H225467   4.388   6.163   2.810
 8511TIP3   OH225468   3.887   5.809   4.660
 8511TIP3    H125469   3.883   5.737   4.597
 8511TIP3    H225470   3.854   5.885   4.612
 8512TIP3   OH225471   3.879   5.609   4.458
 8512TIP3    H125472   3.903   5.646   4.373
 8512TIP3    H225473   3.792   5.572   4.445
 8513TIP3   OH225474   3.905   6.142   4.331
 8513TIP3    H125475   3.995   6.172   4.316
 8513TIP3    H225476   3.850   6.203   4.283
 8514TIP3   OH225477   4.497   6.098   4.716
 8514TIP3    H125478   4.526   6.007   4.719
 8514TIP3    H225479   4.576   6.147   4.692
 8515TIP3   OH225480   4.528   6.369   4.462
 8515TIP3    H125481   4.477   6.430   4.409
 8515TIP3    H225482   4.619   6.380   4.432
 8516TIP3   OH225483   3.780   5.897   4.906
 8516TIP3    H125484   3.710   5.836   4.928
 8516TIP3    H225485   3.806   5.872   4.817
 8517TIP3   OH225486   4.017   5.386   4.555
 8517TIP3    H125487   3.973   5.467   4.527
 8517TIP3    H225488   3.954   5.317   4.537
 8518TIP3   OH225489   4.144   5.850   4.761
 8518TIP3    H125490   4.131   5.837   4.855
 8518TIP3    H225491   4.059   5.828   4.722
 8519TIP3   OH225492   4.398   5.818   4.642
 8519TIP3    H125493   4.318   5.810   4.694
 8519TIP3    H225494   4.467   5.784   4.700
 8520TIP3   OH225495   4.631   5.770   4.789
 8520TIP3    H125496   4.646   5.676   4.794
 8520TIP3    H225497   4.629   5.800   4.880
 8521TIP3   OH225498   3.610   5.680   4.972
 8521TIP3    H125499   3.615   5.591   4.937
 8521TIP3    H225500   3.650   5.674   5.059
 8522TIP3   OH225501   4.089   5.366   4.822
 8522TIP3    H125502   4.154   5.296   4.817
 8522TIP3    H225503   4.057   5.375   4.733
 8523TIP3   OH225504   4.187   5.577   4.972
 8523TIP3    H125505   4.157   5.505   4.916
 8523TIP3    H225506   4.114   5.638   4.973
 8524TIP3   OH225507   3.440   6.828   3.079
 8524TIP3    H125508   3.529   6.807   3.053
 8524TIP3    H225509   3.402   6.873   3.004
 8525TIP3   OH225510   2.907   6.216   3.265
 8525TIP3    H125511   3.001   6.232   3.256
 8525TIP3    H225512   2.899   6.121   3.265
 8526TIP3   OH225513   2.815   6.793   3.726
 8526TIP3    H125514   2.753   6.736   3.680
 8526TIP3    H225515   2.863   6.734   3.784
 8527TIP3   OH225516   2.982   6.635   3.894
 8527TIP3    H125517   2.972   6.590   3.977
 8527TIP3    H225518   3.073   6.662   3.892
 8528TIP3   OH225519   4.691   7.026   3.695
 8528TIP3    H125520   4.715   7.059   3.782
 8528TIP3    H225521   4.747   7.075   3.635
 8529TIP3   OH225522   4.712   7.067   3.976
 8529TIP3    H125523   4.664   6.985   3.970
 8529TIP3    H225524   4.781   7.049   4.040
 8530TIP3   OH225525   4.762   6.761   4.553
 8530TIP3    H125526   4.689   6.771   4.614
 8530TIP3    H225527   4.805   6.846   4.553
 8531TIP3   OH225528   4.580   6.281   3.158
 8531TIP3    H125529   4.639   6.349   3.126
 8531TIP3    H225530   4.627   6.240   3.231
 8532TIP3   OH225531   4.711   6.135   3.356
 8532TIP3    H125532   4.644   6.097   3.413
 8532TIP3    H225533   4.776   6.171   3.417
 8533TIP3   OH225534   4.758   6.536   3.791
 8533TIP3    H125535   4.811   6.468   3.750
 8533TIP3    H225536   4.761   6.609   3.729
 8534TIP3   OH225537   4.568   6.827   3.981
 8534TIP3    H125538   4.501   6.871   4.034
 8534TIP3    H225539   4.519   6.785   3.911
 8535TIP3   OH225540   4.620   6.054   3.004
 8535TIP3    H125541   4.549   6.052   2.940
 8535TIP3    H225542   4.602   6.132   3.057
 8536TIP3   OH225543   4.470   5.705   2.942
 8536TIP3    H125544   4.429   5.739   2.862
 8536TIP3    H225545   4.461   5.610   2.935
 8537TIP3   OH225546   4.506   5.996   3.491
 8537TIP3    H125547   4.512   5.902   3.477
 8537TIP3    H225548   4.488   6.005   3.585
 8538TIP3   OH225549   3.124   6.068   4.266
 8538TIP3    H125550   3.117   6.025   4.181
 8538TIP3    H225551   3.217   6.062   4.288
 8539TIP3   OH225552   4.785   6.412   4.362
 8539TIP3    H125553   4.852   6.345   4.344
 8539TIP3    H225554   4.799   6.478   4.294
 8540TIP3   OH225555   4.964   6.201   4.348
 8540TIP3    H125556   4.890   6.159   4.392
 8540TIP3    H225557   5.039   6.146   4.369
 8541TIP3   OH225558   4.430   5.436   2.918
 8541TIP3    H125559   4.498   5.405   2.977
 8541TIP3    H225560   4.351   5.391   2.946
 8542TIP3   OH225561   4.500   5.719   3.378
 8542TIP3    H125562   4.545   5.635   3.391
 8542TIP3    H225563   4.543   5.757   3.301
 8543TIP3   OH225564   4.655   5.884   3.902
 8543TIP3    H125565   4.736   5.901   3.854
 8543TIP3    H225566   4.669   5.924   3.988
 8544TIP3   OH225567   4.729   6.034   4.130
 8544TIP3    H125568   4.656   6.063   4.185
 8544TIP3    H225569   4.760   6.113   4.088
 8545TIP3   OH225570   3.347   5.736   4.910
 8545TIP3    H125571   3.441   5.734   4.929
 8545TIP3    H225572   3.313   5.655   4.948
 8546TIP3   OH225573   5.184   5.643   4.663
 8546TIP3    H125574   5.249   5.581   4.630
 8546TIP3    H225575   5.149   5.686   4.585
 8547TIP3   OH225576   4.615   5.470   3.430
 8547TIP3    H125577   4.660   5.454   3.513
 8547TIP3    H225578   4.553   5.397   3.423
 8548TIP3   OH225579   3.110   5.687   4.327
 8548TIP3    H125580   3.161   5.693   4.246
 8548TIP3    H225581   3.146   5.757   4.383
 8549TIP3   OH225582   5.035   5.745   4.457
 8549TIP3    H125583   4.949   5.783   4.473
 8549TIP3    H225584   5.017   5.664   4.409
 8550TIP3   OH225585   4.662   5.381   3.068
 8550TIP3    H125586   4.708   5.320   3.010
 8550TIP3    H225587   4.717   5.458   3.071
 8551TIP3   OH225588   3.082   5.250   3.830
 8551TIP3    H125589   2.995   5.225   3.860
 8551TIP3    H225590   3.067   5.294   3.747
 8552TIP3   OH225591   4.246   6.944   3.337
 8552TIP3    H125592   4.299   6.930   3.259
 8552TIP3    H225593   4.296   7.006   3.390
 8553TIP3   OH225594   3.300   5.297   4.632
 8553TIP3    H125595   3.257   5.281   4.716
 8553TIP3    H225596   3.238   5.349   4.582
 8554TIP3   OH225597   3.368   6.732   4.718
 8554TIP3    H125598   3.274   6.719   4.716
 8554TIP3    H225599   3.389   6.741   4.811
 8555TIP3   OH225600   3.553   6.788   4.270
 8555TIP3    H125601   3.504   6.864   4.239
 8555TIP3    H225602   3.638   6.794   4.226
 8556TIP3   OH225603   3.953   7.020   4.409
 8556TIP3    H125604   3.992   7.009   4.495
 8556TIP3    H225605   4.016   7.073   4.361
 8557TIP3   OH225606   4.144   7.171   4.276
 8557TIP3    H125607   4.206   7.114   4.230
 8557TIP3    H225608   4.199   7.226   4.332
 8558TIP3   OH225609   4.954   5.491   4.366
 8558TIP3    H125610   4.863   5.477   4.337
 8558TIP3    H225611   4.994   5.405   4.363
 8559TIP3   OH225612   3.196   7.093   4.298
 8559TIP3    H125613   3.171   7.168   4.245
 8559TIP3    H225614   3.235   7.131   4.377
 8560TIP3   OH225615   3.443   7.020   4.166
 8560TIP3    H125616   3.359   7.043   4.207
 8560TIP3    H225617   3.431   7.041   4.073
 8561TIP3   OH225618   3.864   7.030   3.954
 8561TIP3    H125619   3.794   7.042   3.890
 8561TIP3    H225620   3.874   7.115   3.995
 8562TIP3   OH225621   4.127   6.969   4.009
 8562TIP3    H125622   4.036   6.988   3.987
 8562TIP3    H225623   4.178   7.035   3.962
 8563TIP3   OH225624   4.328   7.139   3.911
 8563TIP3    H125625   4.320   7.226   3.870
 8563TIP3    H225626   4.360   7.083   3.841
 8564TIP3   OH225627   3.291   6.701   3.905
 8564TIP3    H125628   3.304   6.617   3.949
 8564TIP3    H225629   3.377   6.744   3.910
 8565TIP3   OH225630   3.575   6.779   3.925
 8565TIP3    H125631   3.591   6.686   3.907
 8565TIP3    H225632   3.635   6.801   3.995
 8566TIP3   OH225633   4.167   5.422   3.994
 8566TIP3    H125634   4.127   5.349   4.041
 8566TIP3    H225635   4.235   5.382   3.940
 8567TIP3   OH225636   4.662   5.345   3.891
 8567TIP3    H125637   4.697   5.393   3.815
 8567TIP3    H225638   4.567   5.362   3.888
 8568TIP3   OH225639   4.774   5.417   3.651
 8568TIP3    H125640   4.843   5.356   3.624
 8568TIP3    H225641   4.812   5.503   3.639
 8569TIP3   OH225642   3.387   5.096   4.188
 8569TIP3    H125643   3.306   5.085   4.139
 8569TIP3    H225644   3.454   5.050   4.136
 8570TIP3   OH225645   3.224   5.044   3.662
 8570TIP3    H125646   3.250   5.085   3.580
 8570TIP3    H225647   3.183   5.115   3.713
 8571TIP3   OH225648   3.877   5.165   3.894
 8571TIP3    H125649   3.923   5.207   3.822
 8571TIP3    H225650   3.929   5.187   3.972
 8572TIP3   OH225651   4.379   5.301   3.864
 8572TIP3    H125652   4.398   5.262   3.779
 8572TIP3    H225653   4.381   5.228   3.925
 8573TIP3   OH225654   4.431   5.257   3.437
 8573TIP3    H125655   4.352   5.304   3.462
 8573TIP3    H225656   4.421   5.170   3.475
 8574TIP3   OH225657   2.890   6.598   3.413
 8574TIP3    H125658   2.805   6.568   3.381
 8574TIP3    H225659   2.897   6.688   3.381
 8575TIP3   OH225660   3.334   5.156   3.419
 8575TIP3    H125661   3.379   5.093   3.364
 8575TIP3    H225662   3.403   5.212   3.454
 8576TIP3   OH225663   3.810   5.360   3.512
 8576TIP3    H125664   3.871   5.307   3.563
 8576TIP3    H225665   3.827   5.450   3.541
 8577TIP3   OH225666   3.695   6.753   3.010
 8577TIP3    H125667   3.779   6.780   2.972
 8577TIP3    H225668   3.664   6.682   2.954
 8578TIP3   OH225669   4.394   6.896   3.108
 8578TIP3    H125670   4.388   6.800   3.099
 8578TIP3    H225671   4.354   6.930   3.028
 8579TIP3   OH225672   3.623   5.410   4.887
 8579TIP3    H125673   3.591   5.338   4.941
 8579TIP3    H225674   3.716   5.418   4.911
 8580TIP3   OH225675   3.874   5.419   5.005
 8580TIP3    H125676   3.950   5.395   4.952
 8580TIP3    H225677   3.866   5.349   5.070
 8581TIP3   OH225678   3.005   6.600   3.064
 8581TIP3    H125679   3.007   6.609   3.160
 8581TIP3    H225680   3.085   6.552   3.044
 8582TIP3   OH225681   4.694   5.500   4.791
 8582TIP3    H125682   4.711   5.471   4.880
 8582TIP3    H225683   4.780   5.496   4.748
 8583TIP3   OH225684   4.614   7.036   4.300
 8583TIP3    H125685   4.540   7.005   4.248
 8583TIP3    H225686   4.602   7.131   4.304
 8584TIP3   OH225687   5.892   6.423   3.036
 8584TIP3    H125688   5.862   6.510   3.010
 8584TIP3    H225689   5.822   6.364   3.008
 8585TIP3   OH225690   5.889   6.414   3.461
 8585TIP3    H125691   5.942   6.397   3.539
 8585TIP3    H225692   5.844   6.331   3.444
 8586TIP3   OH225693   5.187   6.276   3.806
 8586TIP3    H125694   5.226   6.224   3.876
 8586TIP3    H225695   5.261   6.301   3.750
 8587TIP3   OH225696   6.157   6.722   3.136
 8587TIP3    H125697   6.146   6.656   3.205
 8587TIP3    H225698   6.179   6.802   3.184
 8588TIP3   OH225699   5.179   6.705   3.491
 8588TIP3    H125700   5.162   6.612   3.498
 8588TIP3    H225701   5.274   6.711   3.482
 8589TIP3   OH225702   4.863   5.908   3.277
 8589TIP3    H125703   4.824   5.993   3.300
 8589TIP3    H225704   4.791   5.859   3.236
 8590TIP3   OH225705   4.941   6.218   3.499
 8590TIP3    H125706   4.992   6.140   3.524
 8590TIP3    H225707   5.007   6.282   3.472
 8591TIP3   OH225708   5.815   7.152   3.149
 8591TIP3    H125709   5.841   7.089   3.082
 8591TIP3    H225710   5.821   7.103   3.231
 8592TIP3   OH225711   5.696   6.636   3.466
 8592TIP3    H125712   5.741   6.557   3.437
 8592TIP3    H225713   5.766   6.694   3.496
 8593TIP3   OH225714   6.731   5.956   3.481
 8593TIP3    H125715   6.747   6.041   3.523
 8593TIP3    H225716   6.755   5.969   3.390
 8594TIP3   OH225717   6.102   6.124   3.500
 8594TIP3    H125718   6.136   6.039   3.528
 8594TIP3    H225719   6.066   6.108   3.413
 8595TIP3   OH225720   5.459   5.782   3.459
 8595TIP3    H125721   5.438   5.855   3.401
 8595TIP3    H225722   5.404   5.710   3.428
 8596TIP3   OH225723   6.156   5.886   3.096
 8596TIP3    H125724   6.221   5.880   3.167
 8596TIP3    H225725   6.206   5.920   3.022
 8597TIP3   OH225726   5.082   5.996   3.589
 8597TIP3    H125727   5.165   5.978   3.633
 8597TIP3    H225728   5.086   5.945   3.508
 8598TIP3   OH225729   5.502   6.197   3.406
 8598TIP3    H125730   5.596   6.182   3.412
 8598TIP3    H225731   5.466   6.115   3.371
 8599TIP3   OH225732   6.785   6.175   3.649
 8599TIP3    H125733   6.699   6.215   3.640
 8599TIP3    H225734   6.822   6.214   3.728
 8600TIP3   OH225735   5.439   5.789   3.913
 8600TIP3    H125736   5.388   5.824   3.840
 8600TIP3    H225737   5.384   5.805   3.990
 8601TIP3   OH225738   5.789   6.641   2.898
 8601TIP3    H125739   5.751   6.612   2.816
 8601TIP3    H225740   5.736   6.716   2.924
 8602TIP3   OH225741   5.531   6.562   3.676
 8602TIP3    H125742   5.478   6.635   3.710
 8602TIP3    H225743   5.581   6.601   3.603
 8603TIP3   OH225744   6.314   5.907   3.319
 8603TIP3    H125745   6.272   5.885   3.402
 8603TIP3    H225746   6.370   5.982   3.339
 8604TIP3   OH225747   5.330   5.892   3.680
 8604TIP3    H125748   5.385   5.968   3.703
 8604TIP3    H225749   5.377   5.850   3.608
 8605TIP3   OH225750   5.377   6.766   3.783
 8605TIP3    H125751   5.363   6.856   3.752
 8605TIP3    H225752   5.299   6.747   3.835
 8606TIP3   OH225753   4.753   6.466   3.038
 8606TIP3    H125754   4.721   6.486   2.950
 8606TIP3    H225755   4.778   6.551   3.075
 8607TIP3   OH225756   6.192   6.969   3.276
 8607TIP3    H125757   6.104   6.962   3.313
 8607TIP3    H225758   6.192   7.052   3.229
 8608TIP3   OH225759   6.532   5.840   3.647
 8608TIP3    H125760   6.446   5.868   3.614
 8608TIP3    H225761   6.594   5.871   3.580
 8609TIP3   OH225762   5.783   5.499   3.640
 8609TIP3    H125763   5.772   5.406   3.660
 8609TIP3    H225764   5.707   5.542   3.679
 8610TIP3   OH225765   5.901   7.002   2.931
 8610TIP3    H125766   5.953   6.923   2.921
 8610TIP3    H225767   5.958   7.073   2.901
 8611TIP3   OH225768   6.039   6.772   2.892
 8611TIP3    H125769   5.966   6.709   2.889
 8611TIP3    H225770   6.089   6.747   2.969
 8612TIP3   OH225771   6.424   6.859   3.618
 8612TIP3    H125772   6.408   6.785   3.560
 8612TIP3    H225773   6.409   6.936   3.562
 8613TIP3   OH225774   5.719   6.262   2.887
 8613TIP3    H125775   5.636   6.306   2.868
 8613TIP3    H225776   5.766   6.260   2.804
 8614TIP3   OH225777   5.684   6.069   2.578
 8614TIP3    H125778   5.751   6.118   2.627
 8614TIP3    H225779   5.734   6.002   2.531
 8615TIP3   OH225780   6.609   6.518   3.487
 8615TIP3    H125781   6.525   6.563   3.486
 8615TIP3    H225782   6.645   6.532   3.399
 8616TIP3   OH225783   6.077   6.349   2.847
 8616TIP3    H125784   6.023   6.379   2.920
 8616TIP3    H225785   6.160   6.325   2.886
 8617TIP3   OH225786   6.306   6.378   3.796
 8617TIP3    H125787   6.303   6.462   3.841
 8617TIP3    H225788   6.225   6.374   3.746
 8618TIP3   OH225789   5.303   6.331   3.255
 8618TIP3    H125790   5.267   6.270   3.190
 8618TIP3    H225791   5.376   6.283   3.294
 8619TIP3   OH225792   5.442   6.754   3.395
 8619TIP3    H125793   5.419   6.740   3.303
 8619TIP3    H225794   5.529   6.716   3.403
 8620TIP3   OH225795   5.400   6.326   3.630
 8620TIP3    H125796   5.439   6.290   3.550
 8620TIP3    H225797   5.449   6.407   3.645
 8621TIP3   OH225798   5.952   6.964   3.404
 8621TIP3    H125799   5.941   7.044   3.455
 8621TIP3    H225800   5.938   6.893   3.467
 8622TIP3   OH225801   5.575   6.863   3.952
 8622TIP3    H125802   5.514   6.920   3.999
 8622TIP3    H225803   5.520   6.812   3.893
 8623TIP3   OH225804   5.906   6.212   2.678
 8623TIP3    H125805   5.967   6.269   2.725
 8623TIP3    H225806   5.934   6.217   2.587
 8624TIP3   OH225807   5.330   6.408   4.096
 8624TIP3    H125808   5.335   6.502   4.114
 8624TIP3    H225809   5.237   6.389   4.088
 8625TIP3   OH225810   5.653   6.881   2.937
 8625TIP3    H125811   5.735   6.930   2.944
 8625TIP3    H225812   5.595   6.939   2.889
 8626TIP3   OH225813   5.364   7.020   4.037
 8626TIP3    H125814   5.340   7.031   3.945
 8626TIP3    H225815   5.281   7.006   4.082
 8627TIP3   OH225816   6.420   5.438   2.744
 8627TIP3    H125817   6.342   5.459   2.796
 8627TIP3    H225818   6.430   5.513   2.685
 8628TIP3   OH225819   5.178   6.172   3.054
 8628TIP3    H125820   5.101   6.220   3.024
 8628TIP3    H225821   5.148   6.083   3.069
 8629TIP3   OH225822   6.239   6.814   2.296
 8629TIP3    H125823   6.235   6.907   2.273
 8629TIP3    H225824   6.329   6.788   2.275
 8630TIP3   OH225825   4.960   6.577   3.986
 8630TIP3    H125826   4.891   6.559   3.923
 8630TIP3    H225827   4.994   6.491   4.010
 8631TIP3   OH225828   4.803   6.769   3.637
 8631TIP3    H125829   4.897   6.788   3.647
 8631TIP3    H225830   4.759   6.846   3.669
 8632TIP3   OH225831   6.658   7.217   3.687
 8632TIP3    H125832   6.661   7.123   3.702
 8632TIP3    H225833   6.579   7.246   3.734
 8633TIP3   OH225834   5.764   7.007   3.814
 8633TIP3    H125835   5.756   7.098   3.842
 8633TIP3    H225836   5.697   6.960   3.863
 8634TIP3   OH225837   5.544   7.103   2.767
 8634TIP3    H125838   5.500   7.083   2.684
 8634TIP3    H225839   5.508   7.187   2.795
 8635TIP3   OH225840   4.974   6.967   3.147
 8635TIP3    H125841   5.021   6.961   3.230
 8635TIP3    H225842   4.929   6.883   3.138
 8636TIP3   OH225843   5.745   7.037   2.395
 8636TIP3    H125844   5.795   6.964   2.359
 8636TIP3    H225845   5.781   7.050   2.482
 8637TIP3   OH225846   5.799   7.081   2.663
 8637TIP3    H125847   5.713   7.083   2.706
 8637TIP3    H225848   5.858   7.045   2.730
 8638TIP3   OH225849   6.549   6.339   3.959
 8638TIP3    H125850   6.467   6.349   3.911
 8638TIP3    H225851   6.568   6.245   3.954
 8639TIP3   OH225852   5.160   6.765   3.954
 8639TIP3    H125853   5.210   6.751   4.034
 8639TIP3    H225854   5.087   6.702   3.961
 8640TIP3   OH225855   5.544   5.575   3.770
 8640TIP3    H125856   5.461   5.539   3.738
 8640TIP3    H225857   5.519   5.654   3.817
 8641TIP3   OH225858   6.091   5.683   3.967
 8641TIP3    H125859   6.160   5.661   4.029
 8641TIP3    H225860   6.010   5.671   4.016
 8642TIP3   OH225861   6.307   6.111   3.882
 8642TIP3    H125862   6.267   6.108   3.969
 8642TIP3    H225863   6.293   6.201   3.852
 8643TIP3   OH225864   5.981   6.194   2.414
 8643TIP3    H125865   5.939   6.195   2.328
 8643TIP3    H225866   6.064   6.240   2.401
 8644TIP3   OH225867   5.694   5.613   2.734
 8644TIP3    H125868   5.656   5.621   2.822
 8644TIP3    H225869   5.659   5.531   2.700
 8645TIP3   OH225870   5.482   6.104   3.776
 8645TIP3    H125871   5.436   6.111   3.860
 8645TIP3    H225872   5.460   6.185   3.731
 8646TIP3   OH225873   5.363   5.982   3.298
 8646TIP3    H125874   5.273   5.958   3.323
 8646TIP3    H225875   5.372   5.950   3.208
 8647TIP3   OH225876   5.843   6.057   3.024
 8647TIP3    H125877   5.796   6.130   2.984
 8647TIP3    H225878   5.901   6.025   2.955
 8648TIP3   OH225879   6.028   6.324   4.097
 8648TIP3    H125880   6.002   6.256   4.159
 8648TIP3    H225881   6.120   6.340   4.117
 8649TIP3   OH225882   6.010   6.071   3.248
 8649TIP3    H125883   5.942   6.093   3.184
 8649TIP3    H225884   6.057   5.998   3.208
 8650TIP3   OH225885   5.320   6.120   3.999
 8650TIP3    H125886   5.333   6.184   4.068
 8650TIP3    H225887   5.301   6.038   4.045
 8651TIP3   OH225888   5.360   5.593   2.714
 8651TIP3    H125889   5.351   5.597   2.809
 8651TIP3    H225890   5.282   5.637   2.680
 8652TIP3   OH225891   4.907   5.639   3.579
 8652TIP3    H125892   4.982   5.672   3.629
 8652TIP3    H225893   4.943   5.619   3.493
 8653TIP3   OH225894   4.814   5.615   3.081
 8653TIP3    H125895   4.860   5.650   3.005
 8653TIP3    H225896   4.751   5.682   3.104
 8654TIP3   OH225897   6.054   6.325   3.675
 8654TIP3    H125898   6.078   6.258   3.610
 8654TIP3    H225899   6.009   6.276   3.744
 8655TIP3   OH225900   5.727   5.775   3.348
 8655TIP3    H125901   5.649   5.775   3.404
 8655TIP3    H225902   5.800   5.769   3.410
 8656TIP3   OH225903   5.123   5.857   3.357
 8656TIP3    H125904   5.035   5.862   3.319
 8656TIP3    H225905   5.151   5.767   3.341
 8657TIP3   OH225906   5.376   5.860   3.052
 8657TIP3    H125907   5.470   5.870   3.041
 8657TIP3    H225908   5.339   5.878   2.965
 8658TIP3   OH225909   6.175   5.863   3.559
 8658TIP3    H125910   6.155   5.879   3.651
 8658TIP3    H225911   6.105   5.804   3.530
 8659TIP3   OH225912   5.261   5.884   2.805
 8659TIP3    H125913   5.198   5.834   2.752
 8659TIP3    H225914   5.315   5.930   2.740
 8660TIP3   OH225915   6.369   7.564   3.777
 8660TIP3    H125916   6.365   7.580   3.682
 8660TIP3    H225917   6.448   7.608   3.805
 8661TIP3   OH225918   5.313   6.675   4.188
 8661TIP3    H125919   5.394   6.696   4.235
 8661TIP3    H225920   5.244   6.684   4.253
 8662TIP3   OH225921   5.775   6.144   3.455
 8662TIP3    H125922   5.842   6.096   3.407
 8662TIP3    H225923   5.773   6.102   3.542
 8663TIP3   OH225924   5.267   5.608   3.343
 8663TIP3    H125925   5.239   5.533   3.395
 8663TIP3    H225926   5.288   5.572   3.257
 8664TIP3   OH225927   5.748   6.045   3.720
 8664TIP3    H125928   5.661   6.078   3.743
 8664TIP3    H225929   5.808   6.098   3.773
 8665TIP3   OH225930   5.481   6.397   2.833
 8665TIP3    H125931   5.406   6.343   2.808
 8665TIP3    H225932   5.455   6.439   2.915
 8666TIP3   OH225933   6.374   6.654   3.440
 8666TIP3    H125934   6.410   6.703   3.366
 8666TIP3    H225935   6.294   6.614   3.405
 8667TIP3   OH225936   5.947   5.715   2.743
 8667TIP3    H125937   5.854   5.694   2.736
 8667TIP3    H225938   5.950   5.810   2.751
 8668TIP3   OH225939   5.888   6.739   3.852
 8668TIP3    H125940   5.942   6.731   3.931
 8668TIP3    H225941   5.850   6.826   3.858
 8669TIP3   OH225942   6.006   5.981   2.808
 8669TIP3    H125943   6.101   5.985   2.817
 8669TIP3    H225944   5.984   6.058   2.755
 8670TIP3   OH225945   5.170   6.415   3.483
 8670TIP3    H125946   5.208   6.397   3.397
 8670TIP3    H225947   5.236   6.386   3.545
 8671TIP3   OH225948   5.634   6.560   2.677
 8671TIP3    H125949   5.586   6.643   2.674
 8671TIP3    H225950   5.579   6.502   2.729
 8672TIP3   OH225951   5.056   6.346   4.119
 8672TIP3    H125952   5.060   6.322   4.211
 8672TIP3    H225953   4.980   6.297   4.085
 8673TIP3   OH225954   5.796   6.478   4.141
 8673TIP3    H125955   5.727   6.419   4.112
 8673TIP3    H225956   5.877   6.438   4.110
 8674TIP3   OH225957   6.035   7.025   3.738
 8674TIP3    H125958   5.940   7.014   3.742
 8674TIP3    H225959   6.059   7.064   3.822
 8675TIP3   OH225960   6.421   6.069   2.627
 8675TIP3    H125961   6.364   6.023   2.566
 8675TIP3    H225962   6.428   6.158   2.592
 8676TIP3   OH225963   6.669   6.934   3.710
 8676TIP3    H125964   6.575   6.922   3.701
 8676TIP3    H225965   6.705   6.908   3.625
 8677TIP3   OH225966   6.162   6.884   2.561
 8677TIP3    H125967   6.134   6.813   2.619
 8677TIP3    H225968   6.179   6.840   2.477
 8678TIP3   OH225969   6.144   6.519   3.338
 8678TIP3    H125970   6.054   6.498   3.362
 8678TIP3    H225971   6.178   6.439   3.299
 8679TIP3   OH225972   5.297   6.757   3.151
 8679TIP3    H125973   5.293   6.833   3.093
 8679TIP3    H225974   5.207   6.747   3.183
 8680TIP3   OH225975   4.859   6.040   2.865
 8680TIP3    H125976   4.901   6.123   2.887
 8680TIP3    H225977   4.777   6.041   2.916
 8681TIP3   OH225978   5.382   6.512   3.056
 8681TIP3    H125979   5.365   6.601   3.086
 8681TIP3    H225980   5.356   6.457   3.130
 8682TIP3   OH225981   5.579   7.079   3.606
 8682TIP3    H125982   5.615   7.152   3.556
 8682TIP3    H225983   5.654   7.045   3.656
 8683TIP3   OH225984   5.209   6.981   3.001
 8683TIP3    H125985   5.122   6.989   3.041
 8683TIP3    H225986   5.246   7.069   3.006
 8684TIP3   OH225987   5.930   6.743   3.578
 8684TIP3    H125988   5.916   6.738   3.673
 8684TIP3    H225989   6.009   6.692   3.562
 8685TIP3   OH225990   5.923   6.621   2.450
 8685TIP3    H125991   5.976   6.593   2.525
 8685TIP3    H225992   5.839   6.578   2.462
 8686TIP3   OH225993   6.188   7.239   3.618
 8686TIP3    H125994   6.116   7.178   3.634
 8686TIP3    H225995   6.156   7.294   3.546
 8687TIP3   OH225996   6.244   7.088   2.257
 8687TIP3    H125997   6.283   7.160   2.208
 8687TIP3    H225998   6.167   7.127   2.299
 8688TIP3   OH225999   5.266   5.866   4.119
 8688TIP3    H126000   5.171   5.875   4.123
 8688TIP3    H226001   5.289   5.815   4.197
 8689TIP3   OH226002   6.101   6.535   2.639
 8689TIP3    H126003   6.086   6.480   2.717
 8689TIP3    H226004   6.196   6.542   2.633
 8690TIP3   OH226005   5.006   6.972   3.769
 8690TIP3    H126006   5.059   6.913   3.822
 8690TIP3    H226007   5.020   7.059   3.807
 8691TIP3   OH226008   5.276   6.584   2.461
 8691TIP3    H126009   5.286   6.493   2.435
 8691TIP3    H226010   5.261   6.581   2.556
 8692TIP3   OH226011   5.217   6.603   2.734
 8692TIP3    H126012   5.283   6.577   2.798
 8692TIP3    H226013   5.216   6.698   2.738
 8693TIP3   OH226014   4.952   6.292   2.945
 8693TIP3    H126015   4.887   6.340   2.996
 8693TIP3    H226016   4.971   6.350   2.871
 8694TIP3   OH226017   6.114   5.919   3.821
 8694TIP3    H126018   6.192   5.965   3.853
 8694TIP3    H226019   6.108   5.841   3.876
 8695TIP3   OH226020   6.008   5.667   3.009
 8695TIP3    H126021   5.986   5.684   2.918
 8695TIP3    H226022   6.052   5.747   3.039
 8696TIP3   OH226023   5.487   6.787   2.673
 8696TIP3    H126024   5.402   6.812   2.710
 8696TIP3    H226025   5.511   6.860   2.616
 8697TIP3   OH226026   5.656   5.867   3.095
 8697TIP3    H126027   5.718   5.935   3.069
 8697TIP3    H226028   5.679   5.848   3.186
 8698TIP3   OH226029   5.954   6.159   3.872
 8698TIP3    H126030   5.980   6.203   3.953
 8698TIP3    H226031   6.004   6.077   3.873
 8699TIP3   OH226032   5.817   5.568   3.182
 8699TIP3    H126033   5.793   5.645   3.233
 8699TIP3    H226034   5.887   5.598   3.124
 8700TIP3   OH226035   5.237   6.875   2.749
 8700TIP3    H126036   5.218   6.947   2.688
 8700TIP3    H226037   5.225   6.914   2.836
 8701TIP3   OH226038   5.331   5.587   2.993
 8701TIP3    H126039   5.319   5.677   3.021
 8701TIP3    H226040   5.425   5.572   2.997
 8702TIP3   OH226041   6.574   6.069   3.869
 8702TIP3    H126042   6.479   6.070   3.878
 8702TIP3    H226043   6.591   6.026   3.785
 8703TIP3   OH226044   6.235   6.261   3.248
 8703TIP3    H126045   6.158   6.205   3.259
 8703TIP3    H226046   6.302   6.221   3.304
 8704TIP3   OH226047   4.973   6.469   2.728
 8704TIP3    H126048   5.044   6.532   2.736
 8704TIP3    H226049   5.005   6.406   2.663
 8705TIP3   OH226050   4.882   5.762   2.861
 8705TIP3    H126051   4.894   5.857   2.869
 8705TIP3    H226052   4.826   5.752   2.784
 8706TIP3   OH226053   6.215   7.234   3.190
 8706TIP3    H126054   6.174   7.286   3.121
 8706TIP3    H226055   6.309   7.246   3.176
 8707TIP3   OH226056   5.286   5.479   3.729
 8707TIP3    H126057   5.255   5.449   3.644
 8707TIP3    H226058   5.284   5.401   3.785
 8708TIP3   OH226059   4.808   6.734   3.128
 8708TIP3    H126060   4.767   6.771   3.205
 8708TIP3    H226061   4.765   6.777   3.054
 8709TIP3   OH226062   5.007   7.275   4.194
 8709TIP3    H126063   5.090   7.282   4.242
 8709TIP3    H226064   4.994   7.181   4.181
 8710TIP3   OH226065   5.471   7.185   4.230
 8710TIP3    H126066   5.563   7.159   4.239
 8710TIP3    H226067   5.438   7.131   4.159
 8711TIP3   OH226068   5.433   6.784   2.353
 8711TIP3    H126069   5.386   6.713   2.397
 8711TIP3    H226070   5.507   6.741   2.310
 8712TIP3   OH226071   6.090   7.127   3.987
 8712TIP3    H126072   6.103   7.057   4.051
 8712TIP3    H226073   6.165   7.185   3.999
 8713TIP3   OH226074   5.871   6.826   2.277
 8713TIP3    H126075   5.904   6.761   2.338
 8713TIP3    H226076   5.929   6.819   2.201
 8714TIP3   OH226077   5.107   6.675   4.377
 8714TIP3    H126078   5.127   6.582   4.388
 8714TIP3    H226079   5.020   6.677   4.337
 8715TIP3   OH226080   5.096   6.279   2.575
 8715TIP3    H126081   5.148   6.255   2.652
 8715TIP3    H226082   5.162   6.292   2.506
 8716TIP3   OH226083   5.729   6.757   4.156
 8716TIP3    H126084   5.686   6.778   4.074
 8716TIP3    H226085   5.765   6.669   4.142
 8717TIP3   OH226086   5.662   6.504   2.409
 8717TIP3    H126087   5.642   6.515   2.502
 8717TIP3    H226088   5.645   6.411   2.392
 8718TIP3   OH226089   6.202   6.800   3.771
 8718TIP3    H126090   6.280   6.827   3.723
 8718TIP3    H226091   6.138   6.870   3.756
 8719TIP3   OH226092   5.221   6.420   4.384
 8719TIP3    H126093   5.298   6.404   4.328
 8719TIP3    H226094   5.258   6.438   4.470
 8720TIP3   OH226095   5.271   6.222   2.787
 8720TIP3    H126096   5.251   6.191   2.875
 8720TIP3    H226097   5.320   6.149   2.747
 8721TIP3   OH226098   5.589   6.303   4.043
 8721TIP3    H126099   5.503   6.344   4.054
 8721TIP3    H226100   5.620   6.333   3.958
 8722TIP3   OH226101   5.413   6.037   2.634
 8722TIP3    H126102   5.383   6.041   2.544
 8722TIP3    H226103   5.508   6.044   2.628
 8723TIP3   OH226104   6.085   6.677   4.127
 8723TIP3    H126105   6.153   6.638   4.072
 8723TIP3    H226106   6.081   6.620   4.204
 8724TIP3   OH226107   6.205   6.324   2.314
 8724TIP3    H126108   6.194   6.284   2.228
 8724TIP3    H226109   6.181   6.416   2.301
 8725TIP3   OH226110   5.691   6.070   4.148
 8725TIP3    H126111   5.693   6.000   4.083
 8725TIP3    H226112   5.657   6.146   4.100
 8726TIP3   OH226113   5.700   5.870   3.946
 8726TIP3    H126114   5.727   5.908   3.863
 8726TIP3    H226115   5.609   5.844   3.933
 8727TIP3   OH226116   5.703   6.403   3.818
 8727TIP3    H126117   5.791   6.438   3.806
 8727TIP3    H226118   5.647   6.461   3.768
 8728TIP3   OH226119   6.296   6.362   4.195
 8728TIP3    H126120   6.344   6.279   4.198
 8728TIP3    H226121   6.365   6.428   4.184
 8729TIP3   OH226122   6.327   6.623   3.935
 8729TIP3    H126123   6.273   6.684   3.886
 8729TIP3    H226124   6.416   6.639   3.904
 8730TIP3   OH226125   5.572   6.152   4.390
 8730TIP3    H126126   5.503   6.088   4.410
 8730TIP3    H226127   5.601   6.128   4.301
 8731TIP3   OH226128   5.824   5.641   4.051
 8731TIP3    H126129   5.784   5.721   4.017
 8731TIP3    H226130   5.756   5.574   4.038
 8732TIP3   OH226131   5.947   6.110   4.249
 8732TIP3    H126132   5.933   6.099   4.344
 8732TIP3    H226133   5.862   6.090   4.210
 8733TIP3   OH226134   6.193   6.067   4.122
 8733TIP3    H126135   6.114   6.068   4.176
 8733TIP3    H226136   6.264   6.045   4.183
 8734TIP3   OH226137   6.428   6.032   4.272
 8734TIP3    H126138   6.442   5.938   4.280
 8734TIP3    H226139   6.423   6.063   4.363
 8735TIP3   OH226140   5.404   5.934   4.456
 8735TIP3    H126141   5.410   5.845   4.420
 8735TIP3    H226142   5.442   5.927   4.544
 8736TIP3   OH226143   5.894   5.617   4.316
 8736TIP3    H126144   5.962   5.550   4.308
 8736TIP3    H226145   5.862   5.629   4.226
 8737TIP3   OH226146   5.982   5.834   4.464
 8737TIP3    H126147   5.954   5.761   4.408
 8737TIP3    H226148   5.910   5.897   4.459
 8738TIP3   OH226149   5.236   7.084   2.566
 8738TIP3    H126150   5.325   7.062   2.539
 8738TIP3    H226151   5.198   7.129   2.490
 8739TIP3   OH226152   4.700   6.465   2.746
 8739TIP3    H126153   4.795   6.476   2.741
 8739TIP3    H226154   4.684   6.379   2.706
 8740TIP3   OH226155   4.599   7.048   3.210
 8740TIP3    H126156   4.537   6.994   3.161
 8740TIP3    H226157   4.647   6.986   3.265
 8741TIP3   OH226158   4.747   6.877   3.371
 8741TIP3    H126159   4.739   6.809   3.439
 8741TIP3    H226160   4.800   6.945   3.412
 8742TIP3   OH226161   6.487   7.282   3.182
 8742TIP3    H126162   6.507   7.312   3.271
 8742TIP3    H226163   6.542   7.337   3.126
 8743TIP3   OH226164   6.503   7.319   3.462
 8743TIP3    H126165   6.457   7.235   3.458
 8743TIP3    H226166   6.573   7.304   3.526
 8744TIP3   OH226167   6.551   7.010   4.033
 8744TIP3    H126168   6.479   7.021   4.094
 8744TIP3    H226169   6.596   7.095   4.033
 8745TIP3   OH226170   6.381   6.533   2.641
 8745TIP3    H126171   6.438   6.604   2.612
 8745TIP3    H226172   6.427   6.495   2.716
 8746TIP3   OH226173   6.509   6.391   2.843
 8746TIP3    H126174   6.441   6.354   2.900
 8746TIP3    H226175   6.574   6.428   2.904
 8747TIP3   OH226176   6.555   6.793   3.278
 8747TIP3    H126177   6.607   6.724   3.235
 8747TIP3    H226178   6.557   6.866   3.216
 8748TIP3   OH226179   6.361   7.080   3.468
 8748TIP3    H126180   6.294   7.126   3.519
 8748TIP3    H226181   6.312   7.040   3.396
 8749TIP3   OH226182   6.417   6.307   2.488
 8749TIP3    H126183   6.345   6.306   2.425
 8749TIP3    H226184   6.402   6.386   2.541
 8750TIP3   OH226185   6.265   5.957   2.434
 8750TIP3    H126186   6.224   5.995   2.357
 8750TIP3    H226187   6.256   5.862   2.421
 8751TIP3   OH226188   6.305   6.254   2.979
 8751TIP3    H126189   6.309   6.159   2.965
 8751TIP3    H226190   6.285   6.263   3.072
 8752TIP3   OH226191   4.923   6.315   3.754
 8752TIP3    H126192   4.914   6.282   3.665
 8752TIP3    H226193   5.018   6.311   3.771
 8753TIP3   OH226194   6.585   6.670   3.842
 8753TIP3    H126195   6.651   6.603   3.823
 8753TIP3    H226196   6.604   6.741   3.781
 8754TIP3   OH226197   6.761   6.457   3.832
 8754TIP3    H126198   6.688   6.417   3.879
 8754TIP3    H226199   6.836   6.402   3.855
 8755TIP3   OH226200   6.229   5.685   2.402
 8755TIP3    H126201   6.294   5.658   2.467
 8755TIP3    H226202   6.147   5.646   2.432
 8756TIP3   OH226203   6.298   5.976   2.867
 8756TIP3    H126204   6.344   5.893   2.879
 8756TIP3    H226205   6.339   6.015   2.790
 8757TIP3   OH226206   6.451   6.139   3.391
 8757TIP3    H126207   6.531   6.157   3.342
 8757TIP3    H226208   6.465   6.181   3.476
 8758TIP3   OH226209   6.526   6.289   3.619
 8758TIP3    H126210   6.453   6.318   3.674
 8758TIP3    H226211   6.557   6.369   3.576
 8759TIP3   OH226212   5.141   5.994   4.395
 8759TIP3    H126213   5.234   5.991   4.414
 8759TIP3    H226214   5.106   5.912   4.431
 8760TIP3   OH226215   6.985   5.886   4.157
 8760TIP3    H126216   7.050   5.830   4.115
 8760TIP3    H226217   6.947   5.937   4.086
 8761TIP3   OH226218   6.413   5.726   2.919
 8761TIP3    H126219   6.459   5.710   3.002
 8761TIP3    H226220   6.351   5.653   2.912
 8762TIP3   OH226221   5.122   5.705   3.745
 8762TIP3    H126222   5.175   5.626   3.751
 8762TIP3    H226223   5.184   5.775   3.726
 8763TIP3   OH226224   4.899   5.971   3.805
 8763TIP3    H126225   4.950   5.962   3.724
 8763TIP3    H226226   4.928   6.055   3.842
 8764TIP3   OH226227   6.836   6.005   3.962
 8764TIP3    H126228   6.755   6.047   3.992
 8764TIP3    H226229   6.807   5.933   3.907
 8765TIP3   OH226230   6.458   5.637   2.558
 8765TIP3    H126231   6.504   5.578   2.498
 8765TIP3    H226232   6.512   5.716   2.559
 8766TIP3   OH226233   4.887   5.490   3.313
 8766TIP3    H126234   4.801   5.474   3.351
 8766TIP3    H226235   4.869   5.541   3.234
 8767TIP3   OH226236   6.042   7.203   2.822
 8767TIP3    H126237   6.099   7.191   2.745
 8767TIP3    H226238   6.085   7.272   2.873
 8768TIP3   OH226239   5.106   5.525   4.125
 8768TIP3    H126240   5.057   5.522   4.207
 8768TIP3    H226241   5.054   5.581   4.068
 8769TIP3   OH226242   5.138   6.996   4.201
 8769TIP3    H126243   5.045   6.974   4.194
 8769TIP3    H226244   5.158   6.984   4.294
 8770TIP3   OH226245   5.350   7.043   3.755
 8770TIP3    H126246   5.299   7.118   3.723
 8770TIP3    H226247   5.435   7.052   3.711
 8771TIP3   OH226248   5.750   7.274   3.891
 8771TIP3    H126249   5.787   7.266   3.979
 8771TIP3    H226250   5.813   7.327   3.843
 8772TIP3   OH226251   5.941   7.429   3.766
 8772TIP3    H126252   6.004   7.377   3.715
 8772TIP3    H226253   5.996   7.485   3.820
 8773TIP3   OH226254   6.745   5.764   3.848
 8773TIP3    H126255   6.662   5.765   3.800
 8773TIP3    H226256   6.775   5.673   3.841
 8774TIP3   OH226257   4.998   7.284   3.794
 8774TIP3    H126258   4.910   7.308   3.764
 8774TIP3    H226259   5.019   7.349   3.861
 8775TIP3   OH226260   5.237   7.273   3.654
 8775TIP3    H126261   5.152   7.278   3.697
 8775TIP3    H226262   5.221   7.300   3.564
 8776TIP3   OH226263   5.658   7.289   3.444
 8776TIP3    H126264   5.590   7.300   3.378
 8776TIP3    H226265   5.669   7.375   3.483
 8777TIP3   OH226266   5.921   7.224   3.494
 8777TIP3    H126267   5.830   7.244   3.473
 8777TIP3    H226268   5.972   7.290   3.447
 8778TIP3   OH226269   6.121   7.394   3.392
 8778TIP3    H126270   6.121   7.482   3.354
 8778TIP3    H226271   6.152   7.337   3.322
 8779TIP3   OH226272   4.918   7.053   3.518
 8779TIP3    H126273   4.946   7.032   3.607
 8779TIP3    H226274   4.991   7.026   3.463
 8780TIP3   OH226275   5.125   6.948   3.377
 8780TIP3    H126276   5.137   6.863   3.421
 8780TIP3    H226277   5.211   6.990   3.381
 8781TIP3   OH226278   5.394   7.032   3.402
 8781TIP3    H126279   5.413   6.939   3.386
 8781TIP3    H226280   5.448   7.056   3.477
 8782TIP3   OH226281   5.955   5.689   3.490
 8782TIP3    H126282   5.912   5.620   3.541
 8782TIP3    H226283   6.022   5.644   3.440
 8783TIP3   OH226284   6.456   5.577   3.371
 8783TIP3    H126285   6.496   5.627   3.299
 8783TIP3    H226286   6.367   5.610   3.376
 8784TIP3   OH226287   6.571   5.669   3.141
 8784TIP3    H126288   6.639   5.609   3.112
 8784TIP3    H226289   6.609   5.756   3.129
 8785TIP3   OH226290   5.195   5.381   3.487
 8785TIP3    H126291   5.106   5.348   3.496
 8785TIP3    H226292   5.249   5.302   3.481
 8786TIP3   OH226293   5.012   5.293   3.143
 8786TIP3    H126294   5.038   5.341   3.065
 8786TIP3    H226295   4.977   5.360   3.202
 8787TIP3   OH226296   5.673   5.427   3.382
 8787TIP3    H126297   5.718   5.472   3.311
 8787TIP3    H226298   5.710   5.464   3.462
 8788TIP3   OH226299   6.167   5.568   3.359
 8788TIP3    H126300   6.170   5.540   3.268
 8788TIP3    H226301   6.177   5.488   3.410
 8789TIP3   OH226302   6.228   5.514   2.928
 8789TIP3    H126303   6.148   5.562   2.950
 8789TIP3    H226304   6.214   5.426   2.964
 8790TIP3   OH226305   4.690   6.857   2.915
 8790TIP3    H126306   4.606   6.821   2.884
 8790TIP3    H226307   4.695   6.943   2.875
 8791TIP3   OH226308   5.121   5.419   2.903
 8791TIP3    H126309   5.167   5.356   2.847
 8791TIP3    H226310   5.190   5.474   2.939
 8792TIP3   OH226311   5.605   5.616   2.997
 8792TIP3    H126312   5.665   5.563   3.050
 8792TIP3    H226313   5.622   5.706   3.026
 8793TIP3   OH226314   5.491   7.008   2.497
 8793TIP3    H126315   5.574   7.036   2.460
 8793TIP3    H226316   5.462   6.937   2.440
 8794TIP3   OH226317   6.194   7.153   2.594
 8794TIP3    H126318   6.187   7.057   2.588
 8794TIP3    H226319   6.151   7.185   2.515
 8795TIP3   OH226320   5.419   5.663   4.368
 8795TIP3    H126321   5.384   5.597   4.428
 8795TIP3    H226322   5.511   5.670   4.391
 8796TIP3   OH226323   5.669   5.667   4.489
 8796TIP3    H126324   5.748   5.645   4.440
 8796TIP3    H226325   5.660   5.598   4.554
 8797TIP3   OH226326   4.799   6.855   2.550
 8797TIP3    H126327   4.802   6.869   2.645
 8797TIP3    H226328   4.879   6.807   2.530
 8798TIP3   OH226329   6.493   5.762   4.280
 8798TIP3    H126330   6.510   5.732   4.369
 8798TIP3    H226331   6.578   5.756   4.236
 8799TIP3   OH226332   6.409   7.291   3.782
 8799TIP3    H126333   6.334   7.262   3.730
 8799TIP3    H226334   6.397   7.385   3.791
 8800TIP3   OH226335   7.674   6.690   2.541
 8800TIP3    H126336   7.650   6.776   2.508
 8800TIP3    H226337   7.605   6.632   2.508
 8801TIP3   OH226338   7.669   6.663   2.954
 8801TIP3    H126339   7.721   6.645   3.033
 8801TIP3    H226340   7.626   6.579   2.935
 8802TIP3   OH226341   6.984   6.532   3.293
 8802TIP3    H126342   7.023   6.481   3.363
 8802TIP3    H226343   7.058   6.557   3.237
 8803TIP3   OH226344   7.899   6.991   2.670
 8803TIP3    H126345   7.896   6.910   2.721
 8803TIP3    H226346   7.845   7.053   2.720
 8804TIP3   OH226347   6.971   6.955   2.982
 8804TIP3    H126348   6.954   6.862   2.987
 8804TIP3    H226349   7.066   6.962   2.972
 8805TIP3   OH226350   6.658   6.163   2.766
 8805TIP3    H126351   6.620   6.248   2.788
 8805TIP3    H226352   6.587   6.115   2.723
 8806TIP3   OH226353   6.738   6.476   2.986
 8806TIP3    H126354   6.788   6.398   3.011
 8806TIP3    H226355   6.804   6.539   2.960
 8807TIP3   OH226356   7.560   7.314   2.665
 8807TIP3    H126357   7.629   7.265   2.709
 8807TIP3    H226358   7.533   7.380   2.729
 8808TIP3   OH226359   7.485   6.887   2.949
 8808TIP3    H126360   7.527   6.804   2.924
 8808TIP3    H226361   7.558   6.943   2.976
 8809TIP3   OH226362   8.469   6.271   3.044
 8809TIP3    H126363   8.450   6.365   3.050
 8809TIP3    H226364   8.497   6.258   2.954
 8810TIP3   OH226365   7.898   6.381   2.989
 8810TIP3    H126366   7.929   6.295   3.015
 8810TIP3    H226367   7.859   6.368   2.903
 8811TIP3   OH226368   7.254   6.038   2.945
 8811TIP3    H126369   7.232   6.112   2.887
 8811TIP3    H226370   7.199   5.966   2.914
 8812TIP3   OH226371   7.946   6.139   2.594
 8812TIP3    H126372   8.015   6.128   2.659
 8812TIP3    H226373   7.990   6.175   2.517
 8813TIP3   OH226374   6.877   6.253   3.077
 8813TIP3    H126375   6.961   6.235   3.120
 8813TIP3    H226376   6.881   6.202   2.996
 8814TIP3   OH226377   7.296   6.453   2.893
 8814TIP3    H126378   7.390   6.436   2.899
 8814TIP3    H226379   7.260   6.371   2.857
 8815TIP3   OH226380   7.234   6.044   3.399
 8815TIP3    H126381   7.185   6.080   3.325
 8815TIP3    H226382   7.179   6.061   3.475
 8816TIP3   OH226383   7.591   6.909   2.392
 8816TIP3    H126384   7.550   6.888   2.308
 8816TIP3    H226385   7.547   6.990   2.420
 8817TIP3   OH226386   7.327   6.817   3.164
 8817TIP3    H126387   7.272   6.888   3.198
 8817TIP3    H226388   7.374   6.855   3.091
 8818TIP3   OH226389   8.124   6.144   2.805
 8818TIP3    H126390   8.073   6.130   2.885
 8818TIP3    H226391   8.168   6.228   2.819
 8819TIP3   OH226392   7.126   6.149   3.167
 8819TIP3    H126393   7.181   6.225   3.189
 8819TIP3    H226394   7.172   6.107   3.094
 8820TIP3   OH226395   7.170   7.018   3.268
 8820TIP3    H126396   7.157   7.108   3.236
 8820TIP3    H226397   7.092   7.000   3.321
 8821TIP3   OH226398   6.551   6.723   2.525
 8821TIP3    H126399   6.516   6.742   2.438
 8821TIP3    H226400   6.574   6.809   2.561
 8822TIP3   OH226401   8.278   6.090   3.142
 8822TIP3    H126402   8.193   6.118   3.108
 8822TIP3    H226403   8.341   6.151   3.103
 8823TIP3   OH226404   7.571   5.738   3.128
 8823TIP3    H126405   7.564   5.646   3.152
 8823TIP3    H226406   7.493   5.779   3.167
 8824TIP3   OH226407   7.860   7.000   2.388
 8824TIP3    H126408   7.768   6.974   2.386
 8824TIP3    H226409   7.882   7.002   2.482
 8825TIP3   OH226410   7.507   6.526   2.387
 8825TIP3    H126411   7.427   6.571   2.362
 8825TIP3    H226412   7.555   6.515   2.305
 8826TIP3   OH226413   7.486   6.319   2.076
 8826TIP3    H126414   7.550   6.372   2.123
 8826TIP3    H226415   7.537   6.254   2.029
 8827TIP3   OH226416   8.414   6.747   2.990
 8827TIP3    H126417   8.330   6.786   2.966
 8827TIP3    H226418   8.475   6.781   2.925
 8828TIP3   OH226419   7.854   6.617   2.345
 8828TIP3    H126420   7.806   6.651   2.421
 8828TIP3    H226421   7.937   6.587   2.381
 8829TIP3   OH226422   8.091   6.632   3.286
 8829TIP3    H126423   8.083   6.714   3.335
 8829TIP3    H226424   8.011   6.627   3.235
 8830TIP3   OH226425   7.099   6.587   2.740
 8830TIP3    H126426   7.062   6.527   2.676
 8830TIP3    H226427   7.172   6.539   2.779
 8831TIP3   OH226428   7.233   7.000   2.884
 8831TIP3    H126429   7.209   6.989   2.792
 8831TIP3    H226430   7.321   6.963   2.891
 8832TIP3   OH226431   7.196   6.581   3.116
 8832TIP3    H126432   7.235   6.545   3.036
 8832TIP3    H226433   7.244   6.662   3.132
 8833TIP3   OH226434   7.749   7.174   2.849
 8833TIP3    H126435   7.777   7.250   2.901
 8833TIP3    H226436   7.735   7.105   2.914
 8834TIP3   OH226437   7.365   7.108   3.443
 8834TIP3    H126438   7.305   7.168   3.487
 8834TIP3    H226439   7.310   7.059   3.382
 8835TIP3   OH226440   7.694   6.465   2.190
 8835TIP3    H126441   7.749   6.521   2.245
 8835TIP3    H226442   7.723   6.483   2.101
 8836TIP3   OH226443   7.126   6.664   3.584
 8836TIP3    H126444   7.131   6.758   3.601
 8836TIP3    H226445   7.033   6.645   3.575
 8837TIP3   OH226446   7.469   7.145   2.461
 8837TIP3    H126447   7.501   7.207   2.527
 8837TIP3    H226448   7.385   7.182   2.432
 8838TIP3   OH226449   7.154   7.270   3.516
 8838TIP3    H126450   7.130   7.281   3.424
 8838TIP3    H226451   7.071   7.256   3.561
 8839TIP3   OH226452   8.186   5.694   2.195
 8839TIP3    H126453   8.118   5.729   2.252
 8839TIP3    H226454   8.245   5.768   2.179
 8840TIP3   OH226455   6.974   6.428   2.542
 8840TIP3    H126456   6.898   6.476   2.510
 8840TIP3    H226457   6.943   6.338   2.552
 8841TIP3   OH226458   6.755   6.834   3.472
 8841TIP3    H126459   6.686   6.816   3.409
 8841TIP3    H226460   6.790   6.747   3.494
 8842TIP3   OH226461   6.602   7.026   3.124
 8842TIP3    H126462   6.695   7.047   3.136
 8842TIP3    H226463   6.556   7.104   3.156
 8843TIP3   OH226464   7.556   7.247   3.304
 8843TIP3    H126465   7.542   7.340   3.324
 8843TIP3    H226466   7.488   7.202   3.354
 8844TIP3   OH226467   7.291   7.444   2.214
 8844TIP3    H126468   7.303   7.383   2.141
 8844TIP3    H226469   7.371   7.437   2.265
 8845TIP3   OH226470   6.772   7.212   2.631
 8845TIP3    H126471   6.816   7.205   2.716
 8845TIP3    H226472   6.724   7.131   2.621
 8846TIP3   OH226473   8.359   6.629   3.433
 8846TIP3    H126474   8.270   6.629   3.397
 8846TIP3    H226475   8.391   6.540   3.417
 8847TIP3   OH226476   6.955   7.020   3.440
 8847TIP3    H126477   7.004   7.009   3.522
 8847TIP3    H226478   6.882   6.959   3.447
 8848TIP3   OH226479   7.337   5.828   3.255
 8848TIP3    H126480   7.253   5.794   3.223
 8848TIP3    H226481   7.315   5.909   3.301
 8849TIP3   OH226482   7.879   5.950   3.455
 8849TIP3    H126483   7.949   5.927   3.516
 8849TIP3    H226484   7.799   5.936   3.504
 8850TIP3   OH226485   8.108   6.366   3.367
 8850TIP3    H126486   8.065   6.357   3.452
 8850TIP3    H226487   8.093   6.457   3.341
 8851TIP3   OH226488   7.790   6.519   1.949
 8851TIP3    H126489   7.771   6.488   1.861
 8851TIP3    H226490   7.842   6.598   1.937
 8852TIP3   OH226491   7.492   5.863   2.226
 8852TIP3    H126492   7.451   5.872   2.312
 8852TIP3    H226493   7.454   5.784   2.189
 8853TIP3   OH226494   7.279   6.360   3.263
 8853TIP3    H126495   7.234   6.367   3.347
 8853TIP3    H226496   7.257   6.441   3.217
 8854TIP3   OH226497   7.158   6.238   2.784
 8854TIP3    H126498   7.068   6.215   2.809
 8854TIP3    H226499   7.167   6.206   2.694
 8855TIP3   OH226500   7.634   6.318   2.516
 8855TIP3    H126501   7.587   6.392   2.478
 8855TIP3    H226502   7.689   6.286   2.445
 8856TIP3   OH226503   7.826   6.581   3.583
 8856TIP3    H126504   7.799   6.514   3.646
 8856TIP3    H226505   7.919   6.596   3.602
 8857TIP3   OH226506   7.801   6.328   2.738
 8857TIP3    H126507   7.733   6.351   2.675
 8857TIP3    H226508   7.846   6.253   2.698
 8858TIP3   OH226509   7.118   6.376   3.485
 8858TIP3    H126510   7.130   6.440   3.555
 8858TIP3    H226511   7.098   6.294   3.531
 8859TIP3   OH226512   7.159   5.852   2.202
 8859TIP3    H126513   7.146   5.856   2.297
 8859TIP3    H226514   7.081   5.893   2.166
 8860TIP3   OH226515   6.703   5.892   3.069
 8860TIP3    H126516   6.776   5.930   3.118
 8860TIP3    H226517   6.738   5.879   2.981
 8861TIP3   OH226518   6.609   5.872   2.568
 8861TIP3    H126519   6.654   5.907   2.492
 8861TIP3    H226520   6.545   5.939   2.592
 8862TIP3   OH226521   7.840   6.581   3.163
 8862TIP3    H126522   7.867   6.515   3.099
 8862TIP3    H226523   7.799   6.531   3.233
 8863TIP3   OH226524   7.520   6.030   2.836
 8863TIP3    H126525   7.441   6.030   2.889
 8863TIP3    H226526   7.592   6.022   2.898
 8864TIP3   OH226527   6.919   6.114   2.845
 8864TIP3    H126528   6.831   6.119   2.807
 8864TIP3    H226529   6.947   6.024   2.827
 8865TIP3   OH226530   7.172   6.117   2.538
 8865TIP3    H126531   7.266   6.127   2.526
 8865TIP3    H226532   7.135   6.135   2.452
 8866TIP3   OH226533   7.969   6.116   3.037
 8866TIP3    H126534   7.952   6.133   3.130
 8866TIP3    H226535   7.898   6.058   3.010
 8867TIP3   OH226536   7.057   6.142   2.292
 8867TIP3    H126537   6.995   6.091   2.239
 8867TIP3    H226538   7.111   6.187   2.227
 8868TIP3   OH226539   7.108   6.930   3.677
 8868TIP3    H126540   7.188   6.952   3.724
 8868TIP3    H226541   7.038   6.940   3.742
 8869TIP3   OH226542   7.567   6.395   2.943
 8869TIP3    H126543   7.633   6.346   2.893
 8869TIP3    H226544   7.567   6.354   3.029
 8870TIP3   OH226545   7.063   5.865   2.828
 8870TIP3    H126546   7.034   5.789   2.878
 8870TIP3    H226547   7.080   5.830   2.740
 8871TIP3   OH226548   7.545   6.302   3.209
 8871TIP3    H126549   7.458   6.334   3.231
 8871TIP3    H226550   7.605   6.354   3.262
 8872TIP3   OH226551   7.279   6.667   2.311
 8872TIP3    H126552   7.207   6.607   2.288
 8872TIP3    H226553   7.254   6.704   2.396
 8873TIP3   OH226554   8.172   6.852   2.909
 8873TIP3    H126555   8.169   6.918   2.841
 8873TIP3    H226556   8.086   6.810   2.907
 8874TIP3   OH226557   7.743   5.967   2.234
 8874TIP3    H126558   7.650   5.945   2.227
 8874TIP3    H226559   7.744   6.063   2.242
 8875TIP3   OH226560   7.674   6.975   3.321
 8875TIP3    H126561   7.723   6.964   3.402
 8875TIP3    H226562   7.634   7.061   3.328
 8876TIP3   OH226563   7.793   6.232   2.302
 8876TIP3    H126564   7.888   6.240   2.313
 8876TIP3    H226565   7.769   6.307   2.248
 8877TIP3   OH226566   6.965   6.667   2.969
 8877TIP3    H126567   7.003   6.651   2.883
 8877TIP3    H226568   7.032   6.638   3.031
 8878TIP3   OH226569   7.437   6.829   2.154
 8878TIP3    H126570   7.389   6.912   2.159
 8878TIP3    H226571   7.385   6.768   2.207
 8879TIP3   OH226572   6.852   6.601   3.604
 8879TIP3    H126573   6.856   6.576   3.696
 8879TIP3    H226574   6.776   6.553   3.569
 8880TIP3   OH226575   7.594   6.735   3.622
 8880TIP3    H126576   7.525   6.674   3.594
 8880TIP3    H226577   7.675   6.693   3.594
 8881TIP3   OH226578   7.829   7.251   3.241
 8881TIP3    H126579   7.734   7.254   3.255
 8881TIP3    H226580   7.865   7.305   3.311
 8882TIP3   OH226581   7.913   6.759   2.841
 8882TIP3    H126582   7.824   6.733   2.863
 8882TIP3    H226583   7.949   6.685   2.793
 8883TIP3   OH226584   7.092   7.008   2.641
 8883TIP3    H126585   7.086   7.087   2.587
 8883TIP3    H226586   7.002   6.992   2.670
 8884TIP3   OH226587   6.657   6.297   2.350
 8884TIP3    H126588   6.698   6.380   2.372
 8884TIP3    H226589   6.575   6.297   2.399
 8885TIP3   OH226590   7.184   6.766   2.543
 8885TIP3    H126591   7.164   6.855   2.573
 8885TIP3    H226592   7.156   6.710   2.615
 8886TIP3   OH226593   7.376   7.323   3.090
 8886TIP3    H126594   7.417   7.382   3.026
 8886TIP3    H226595   7.450   7.289   3.141
 8887TIP3   OH226596   7.014   7.235   2.499
 8887TIP3    H126597   6.925   7.239   2.532
 8887TIP3    H226598   7.046   7.325   2.503
 8888TIP3   OH226599   7.730   6.979   3.047
 8888TIP3    H126600   7.715   6.981   3.142
 8888TIP3    H226601   7.797   6.912   3.035
 8889TIP3   OH226602   7.648   6.871   1.965
 8889TIP3    H126603   7.728   6.836   2.005
 8889TIP3    H226604   7.581   6.858   2.032
 8890TIP3   OH226605   7.063   6.122   3.605
 8890TIP3    H126606   6.968   6.130   3.610
 8890TIP3    H226607   7.087   6.072   3.683
 8891TIP3   OH226608   7.867   6.767   2.110
 8891TIP3    H126609   7.855   6.715   2.189
 8891TIP3    H226610   7.930   6.835   2.136
 8892TIP3   OH226611   6.802   7.231   3.253
 8892TIP3    H126612   6.855   7.173   3.308
 8892TIP3    H226613   6.812   7.318   3.292
 8893TIP3   OH226614   7.065   6.848   1.948
 8893TIP3    H126615   7.090   6.760   1.919
 8893TIP3    H226616   7.047   6.838   2.041
 8894TIP3   OH226617   7.014   6.855   2.222
 8894TIP3    H126618   7.084   6.824   2.279
 8894TIP3    H226619   7.015   6.950   2.231
 8895TIP3   OH226620   6.749   6.548   2.432
 8895TIP3    H126621   6.684   6.596   2.484
 8895TIP3    H226622   6.768   6.607   2.359
 8896TIP3   OH226623   7.917   6.174   3.298
 8896TIP3    H126624   7.992   6.222   3.333
 8896TIP3    H226625   7.906   6.101   3.358
 8897TIP3   OH226626   7.803   5.919   2.500
 8897TIP3    H126627   7.779   5.938   2.409
 8897TIP3    H226628   7.843   6.000   2.531
 8898TIP3   OH226629   7.294   7.060   2.177
 8898TIP3    H126630   7.204   7.077   2.207
 8898TIP3    H226631   7.313   7.132   2.118
 8899TIP3   OH226632   7.453   6.122   2.582
 8899TIP3    H126633   7.512   6.192   2.556
 8899TIP3    H226634   7.475   6.103   2.673
 8900TIP3   OH226635   7.751   6.414   3.363
 8900TIP3    H126636   7.775   6.462   3.442
 8900TIP3    H226637   7.802   6.334   3.366
 8901TIP3   OH226638   7.613   5.820   2.673
 8901TIP3    H126639   7.587   5.898   2.723
 8901TIP3    H226640   7.681   5.851   2.613
 8902TIP3   OH226641   7.035   7.125   2.249
 8902TIP3    H126642   7.011   7.197   2.190
 8902TIP3    H226643   7.027   7.163   2.337
 8903TIP3   OH226644   7.125   5.843   2.482
 8903TIP3    H126645   7.114   5.935   2.508
 8903TIP3    H226646   7.220   5.828   2.486
 8904TIP3   OH226647   8.381   6.370   3.344
 8904TIP3    H126648   8.289   6.349   3.355
 8904TIP3    H226649   8.403   6.336   3.257
 8905TIP3   OH226650   8.015   6.518   2.734
 8905TIP3    H126651   7.938   6.461   2.739
 8905TIP3    H226652   8.081   6.473   2.787
 8906TIP3   OH226653   6.768   6.727   2.217
 8906TIP3    H126654   6.839   6.790   2.227
 8906TIP3    H226655   6.800   6.663   2.153
 8907TIP3   OH226656   6.679   6.019   2.349
 8907TIP3    H126657   6.690   6.114   2.356
 8907TIP3    H226658   6.633   6.006   2.267
 8908TIP3   OH226659   7.077   5.740   3.214
 8908TIP3    H126660   7.048   5.709   3.128
 8908TIP3    H226661   7.066   5.665   3.272
 8909TIP3   OH226662   6.599   6.990   2.611
 8909TIP3    H126663   6.555   7.027   2.688
 8909TIP3    H226664   6.557   7.033   2.536
 8910TIP3   OH226665   6.803   7.539   3.674
 8910TIP3    H126666   6.884   7.547   3.724
 8910TIP3    H226667   6.789   7.445   3.663
 8911TIP3   OH226668   7.260   7.434   3.706
 8911TIP3    H126669   7.346   7.394   3.721
 8911TIP3    H226670   7.223   7.383   3.634
 8912TIP3   OH226671   7.245   7.039   1.857
 8912TIP3    H126672   7.188   6.972   1.895
 8912TIP3    H226673   7.324   6.992   1.831
 8913TIP3   OH226674   7.951   7.359   3.473
 8913TIP3    H126675   7.903   7.302   3.532
 8913TIP3    H226676   8.042   7.331   3.480
 8914TIP3   OH226677   6.899   6.924   3.863
 8914TIP3    H126678   6.918   6.831   3.874
 8914TIP3    H226679   6.813   6.927   3.822
 8915TIP3   OH226680   6.895   6.536   2.072
 8915TIP3    H126681   6.949   6.514   2.147
 8915TIP3    H226682   6.958   6.548   2.000
 8916TIP3   OH226683   7.527   7.009   3.642
 8916TIP3    H126684   7.478   7.028   3.562
 8916TIP3    H226685   7.559   6.920   3.629
 8917TIP3   OH226686   7.357   6.740   1.896
 8917TIP3    H126687   7.385   6.757   1.986
 8917TIP3    H226688   7.369   6.645   1.885
 8918TIP3   OH226689   7.990   7.029   3.234
 8918TIP3    H126690   8.047   7.050   3.160
 8918TIP3    H226691   7.926   7.100   3.236
 8919TIP3   OH226692   7.018   6.670   3.872
 8919TIP3    H126693   7.094   6.661   3.813
 8919TIP3    H226694   7.056   6.692   3.956
 8920TIP3   OH226695   7.077   6.480   2.277
 8920TIP3    H126696   7.055   6.446   2.364
 8920TIP3    H226697   7.122   6.408   2.233
 8921TIP3   OH226698   7.385   6.559   3.530
 8921TIP3    H126699   7.300   6.600   3.540
 8921TIP3    H226700   7.416   6.589   3.444
 8922TIP3   OH226701   7.211   6.293   2.122
 8922TIP3    H126702   7.181   6.294   2.031
 8922TIP3    H226703   7.307   6.298   2.116
 8923TIP3   OH226704   7.880   6.933   3.613
 8923TIP3    H126705   7.952   6.901   3.558
 8923TIP3    H226706   7.880   6.874   3.688
 8924TIP3   OH226707   7.485   6.327   3.639
 8924TIP3    H126708   7.489   6.257   3.574
 8924TIP3    H226709   7.452   6.403   3.590
 8925TIP3   OH226710   7.494   6.128   3.435
 8925TIP3    H126711   7.521   6.167   3.351
 8925TIP3    H226712   7.403   6.103   3.421
 8926TIP3   OH226713   7.502   6.660   3.306
 8926TIP3    H126714   7.588   6.700   3.296
 8926TIP3    H226715   7.443   6.717   3.257
 8927TIP3   OH226716   8.096   6.608   3.682
 8927TIP3    H126717   8.141   6.525   3.697
 8927TIP3    H226718   8.166   6.672   3.669
 8928TIP3   OH226719   8.098   6.880   3.432
 8928TIP3    H126720   8.048   6.933   3.371
 8928TIP3    H226721   8.189   6.888   3.402
 8929TIP3   OH226722   7.369   6.411   3.880
 8929TIP3    H126723   7.299   6.349   3.901
 8929TIP3    H226724   7.398   6.388   3.792
 8930TIP3   OH226725   7.615   5.898   3.536
 8930TIP3    H126726   7.575   5.978   3.504
 8930TIP3    H226727   7.548   5.831   3.523
 8931TIP3   OH226728   7.741   6.371   3.739
 8931TIP3    H126729   7.736   6.359   3.833
 8931TIP3    H226730   7.654   6.349   3.707
 8932TIP3   OH226731   7.974   6.313   3.596
 8932TIP3    H126732   7.896   6.320   3.651
 8932TIP3    H226733   8.046   6.302   3.658
 8933TIP3   OH226734   8.199   6.302   3.757
 8933TIP3    H126735   8.209   6.207   3.764
 8933TIP3    H226736   8.200   6.334   3.847
 8934TIP3   OH226737   7.201   6.192   3.944
 8934TIP3    H126738   7.209   6.104   3.908
 8934TIP3    H226739   7.241   6.186   4.031
 8935TIP3   OH226740   7.680   5.872   3.801
 8935TIP3    H126741   7.749   5.806   3.795
 8935TIP3    H226742   7.651   5.885   3.711
 8936TIP3   OH226743   7.775   6.088   3.945
 8936TIP3    H126744   7.745   6.016   3.890
 8936TIP3    H226745   7.703   6.151   3.945
 8937TIP3   OH226746   7.024   7.346   2.085
 8937TIP3    H126747   7.118   7.332   2.076
 8937TIP3    H226748   6.997   7.381   2.000
 8938TIP3   OH226749   6.494   6.721   2.237
 8938TIP3    H126750   6.589   6.732   2.231
 8938TIP3    H226751   6.478   6.633   2.204
 8939TIP3   OH226752   6.399   7.304   2.693
 8939TIP3    H126753   6.334   7.251   2.647
 8939TIP3    H226754   6.443   7.243   2.751
 8940TIP3   OH226755   6.542   7.136   2.860
 8940TIP3    H126756   6.534   7.068   2.926
 8940TIP3    H226757   6.594   7.205   2.902
 8941TIP3   OH226758   8.043   6.226   1.934
 8941TIP3    H126759   8.010   6.245   1.846
 8941TIP3    H226760   8.043   6.130   1.939
 8942TIP3   OH226761   8.074   6.504   2.463
 8942TIP3    H126762   8.095   6.411   2.454
 8942TIP3    H226763   8.065   6.518   2.557
 8943TIP3   OH226764   6.720   6.569   3.242
 8943TIP3    H126765   6.710   6.538   3.152
 8943TIP3    H226766   6.814   6.566   3.259
 8944TIP3   OH226767   8.351   6.889   3.332
 8944TIP3    H126768   8.386   6.807   3.366
 8944TIP3    H226769   8.396   6.902   3.248
 8945TIP3   OH226770   8.019   5.953   1.944
 8945TIP3    H126771   8.063   5.898   2.008
 8945TIP3    H226772   7.930   5.917   1.938
 8946TIP3   OH226773   8.076   6.227   2.358
 8946TIP3    H126774   8.119   6.143   2.369
 8946TIP3    H226775   8.106   6.259   2.273
 8947TIP3   OH226776   8.238   6.391   2.850
 8947TIP3    H126777   8.308   6.425   2.795
 8947TIP3    H226778   8.253   6.431   2.936
 8948TIP3   OH226779   8.300   6.517   3.086
 8948TIP3    H126780   8.234   6.544   3.150
 8948TIP3    H226781   8.346   6.598   3.063
 8949TIP3   OH226782   6.938   6.250   3.881
 8949TIP3    H126783   7.032   6.248   3.900
 8949TIP3    H226784   6.904   6.169   3.920
 8950TIP3   OH226785   8.182   5.983   2.415
 8950TIP3    H126786   8.236   5.964   2.492
 8950TIP3    H226787   8.124   5.907   2.407
 8951TIP3   OH226788   6.916   5.966   3.235
 8951TIP3    H126789   6.969   5.887   3.238
 8951TIP3    H226790   6.978   6.036   3.215
 8952TIP3   OH226791   6.695   6.229   3.293
 8952TIP3    H126792   6.746   6.218   3.213
 8952TIP3    H226793   6.716   6.318   3.324
 8953TIP3   OH226794   6.683   5.743   2.797
 8953TIP3    H126795   6.597   5.729   2.837
 8953TIP3    H226796   6.666   5.795   2.719
 8954TIP3   OH226797   6.909   5.789   3.616
 8954TIP3    H126798   6.860   5.790   3.698
 8954TIP3    H226799   6.855   5.840   3.555
 8955TIP3   OH226800   6.932   7.247   3.683
 8955TIP3    H126801   6.838   7.230   3.679
 8955TIP3    H226802   6.953   7.244   3.777
 8956TIP3   OH226803   7.145   7.293   3.236
 8956TIP3    H126804   7.091   7.366   3.203
 8956TIP3    H226805   7.230   7.305   3.193
 8957TIP3   OH226806   7.537   7.516   3.355
 8957TIP3    H126807   7.594   7.514   3.432
 8957TIP3    H226808   7.582   7.575   3.294
 8958TIP3   OH226809   8.435   5.996   3.381
 8958TIP3    H126810   8.367   6.045   3.333
 8958TIP3    H226811   8.511   5.999   3.324
 8959TIP3   OH226812   6.799   7.522   3.293
 8959TIP3    H126813   6.709   7.546   3.269
 8959TIP3    H226814   6.826   7.589   3.355
 8960TIP3   OH226815   7.022   7.517   3.134
 8960TIP3    H126816   6.941   7.520   3.185
 8960TIP3    H226817   6.996   7.544   3.046
 8961TIP3   OH226818   7.461   7.504   2.896
 8961TIP3    H126819   7.380   7.530   2.853
 8961TIP3    H226820   7.483   7.577   2.954
 8962TIP3   OH226821   6.715   7.317   3.004
 8962TIP3    H126822   6.741   7.295   3.093
 8962TIP3    H226823   6.785   7.283   2.948
 8963TIP3   OH226824   6.914   7.195   2.866
 8963TIP3    H126825   6.924   7.111   2.910
 8963TIP3    H226826   7.000   7.236   2.872
 8964TIP3   OH226827   7.178   7.272   2.901
 8964TIP3    H126828   7.199   7.181   2.884
 8964TIP3    H226829   7.237   7.298   2.972
 8965TIP3   OH226830   7.746   5.940   2.978
 8965TIP3    H126831   7.704   5.870   3.028
 8965TIP3    H226832   7.813   5.896   2.926
 8966TIP3   OH226833   8.231   5.866   2.865
 8966TIP3    H126834   8.246   5.928   2.794
 8966TIP3    H226835   8.136   5.867   2.877
 8967TIP3   OH226836   8.356   5.941   2.626
 8967TIP3    H126837   8.416   5.876   2.662
 8967TIP3    H226838   8.412   5.997   2.571
 8968TIP3   OH226839   6.990   5.638   2.972
 8968TIP3    H126840   6.900   5.605   2.980
 8968TIP3    H226841   7.043   5.559   2.963
 8969TIP3   OH226842   6.817   5.549   2.632
 8969TIP3    H126843   6.839   5.595   2.552
 8969TIP3    H226844   6.777   5.615   2.688
 8970TIP3   OH226845   7.472   5.672   2.868
 8970TIP3    H126846   7.517   5.722   2.799
 8970TIP3    H226847   7.509   5.706   2.950
 8971TIP3   OH226848   7.954   5.818   2.845
 8971TIP3    H126849   7.952   5.786   2.755
 8971TIP3    H226850   7.960   5.739   2.899
 8972TIP3   OH226851   8.017   5.763   2.408
 8972TIP3    H126852   7.936   5.807   2.432
 8972TIP3    H226853   8.009   5.676   2.446
 8973TIP3   OH226854   6.486   7.110   2.393
 8973TIP3    H126855   6.403   7.074   2.364
 8973TIP3    H226856   6.486   7.201   2.361
 8974TIP3   OH226857   6.917   5.673   2.390
 8974TIP3    H126858   6.962   5.613   2.331
 8974TIP3    H226859   6.986   5.730   2.424
 8975TIP3   OH226860   7.400   5.870   2.487
 8975TIP3    H126861   7.459   5.818   2.542
 8975TIP3    H226862   7.417   5.961   2.514
 8976TIP3   OH226863   7.287   7.277   1.989
 8976TIP3    H126864   7.306   7.343   1.923
 8976TIP3    H226865   7.268   7.198   1.940
 8977TIP3   OH226866   7.217   5.922   3.854
 8977TIP3    H126867   7.182   5.856   3.914
 8977TIP3    H226868   7.309   5.930   3.878
 8978TIP3   OH226869   7.464   5.926   3.976
 8978TIP3    H126870   7.542   5.905   3.924
 8978TIP3    H226871   7.460   5.858   4.043
 8979TIP3   OH226872   6.591   7.109   2.051
 8979TIP3    H126873   6.591   7.110   2.147
 8979TIP3    H226874   6.674   7.067   2.028
 8980TIP3   OH226875   8.249   6.033   3.785
 8980TIP3    H126876   8.268   6.015   3.877
 8980TIP3    H226877   8.334   6.039   3.743
 8981TIP3   OH226878   0.996   7.010   4.685
 8981TIP3    H126879   1.023   7.091   4.729
 8981TIP3    H226880   0.920   7.036   4.633
 8982TIP3   OH226881   0.417   6.891   4.274
 8982TIP3    H126882   0.479   6.916   4.343
 8982TIP3    H226883   0.446   6.938   4.196
 8983TIP3   OH226884   1.056   7.237   4.840
 8983TIP3    H126885   0.966   7.269   4.834
 8983TIP3    H226886   1.082   7.255   4.930
 8984TIP3   OH226887   0.762   6.897   4.804
 8984TIP3    H126888   0.707   6.953   4.749
 8984TIP3    H226889   0.851   6.911   4.772
 8985TIP3   OH226890   0.667   7.930   4.783
 8985TIP3    H126891   0.626   7.844   4.794
 8985TIP3    H226892   0.637   7.961   4.698
 8986TIP3   OH226893   0.883   7.543   4.658
 8986TIP3    H126894   0.796   7.583   4.662
 8986TIP3    H226895   0.905   7.545   4.565
 8987TIP3   OH226896   0.675   6.483   3.907
 8987TIP3    H126897   0.597   6.504   3.958
 8987TIP3    H226898   0.691   6.561   3.854
 8988TIP3   OH226899   0.822   7.360   5.121
 8988TIP3    H126900   0.762   7.388   5.051
 8988TIP3    H226901   0.820   7.264   5.117
 8989TIP3   OH226902   0.631   7.649   4.638
 8989TIP3    H126903   0.593   7.727   4.597
 8989TIP3    H226904   0.568   7.580   4.620
 8990TIP3   OH226905   0.686   7.098   3.814
 8990TIP3    H126906   0.637   7.054   3.745
 8990TIP3    H226907   0.686   7.190   3.789
 8991TIP3   OH226908   0.918   7.883   4.873
 8991TIP3    H126909   0.830   7.911   4.849
 8991TIP3    H226910   0.959   7.858   4.790
 8992TIP3   OH226911   0.802   7.091   5.043
 8992TIP3    H126912   0.735   7.031   5.077
 8992TIP3    H226913   0.791   7.089   4.948
 8993TIP3   OH226914   0.505   7.282   4.439
 8993TIP3    H126915   0.429   7.244   4.483
 8993TIP3    H226916   0.580   7.243   4.484
 8994TIP3   OH226917   0.500   7.358   3.475
 8994TIP3    H126918   0.447   7.308   3.413
 8994TIP3    H226919   0.569   7.397   3.421
 8995TIP3   OH226920   0.733   7.047   5.475
 8995TIP3    H126921   0.729   6.952   5.463
 8995TIP3    H226922   0.644   7.073   5.497
 8996TIP3   OH226923   0.558   7.558   3.839
 8996TIP3    H126924   0.601   7.635   3.802
 8996TIP3    H226925   0.619   7.526   3.906
 8997TIP3   OH226926   0.739   7.429   4.012
 8997TIP3    H126927   0.681   7.381   4.071
 8997TIP3    H226928   0.806   7.466   4.069
 8998TIP3   OH226929   0.827   7.832   4.447
 8998TIP3    H126930   0.829   7.739   4.422
 8998TIP3    H226931   0.736   7.849   4.470
 8999TIP3   OH226932   0.675   7.341   3.686
 8999TIP3    H126933   0.603   7.347   3.624
 8999TIP3    H226934   0.661   7.414   3.747
 9000TIP3   OH226935   0.572   6.999   3.585
 9000TIP3    H126936   0.503   7.049   3.542
 9000TIP3    H226937   0.545   6.907   3.574
 9001TIP3   OH226938   0.589   7.275   4.176
 9001TIP3    H126939   0.573   7.182   4.158
 9001TIP3    H226940   0.556   7.288   4.265
 9002TIP3   OH226941   0.829   7.684   5.043
 9002TIP3    H126942   0.897   7.618   5.028
 9002TIP3    H226943   0.845   7.750   4.975
 9003TIP3   OH226944   1.037   7.502   5.044
 9003TIP3    H126945   0.962   7.455   5.079
 9003TIP3    H226946   1.112   7.447   5.067
 9004TIP3   OH226947   0.509   6.730   3.570
 9004TIP3    H126948   0.572   6.712   3.639
 9004TIP3    H226949   0.425   6.703   3.607
 9005TIP3   OH226950   0.570   7.009   4.067
 9005TIP3    H126951   0.618   6.926   4.070
 9005TIP3    H226952   0.598   7.050   3.986
 9006TIP3   OH226953   0.799   7.335   4.822
 9006TIP3    H126954   0.759   7.274   4.760
 9006TIP3    H226955   0.817   7.413   4.770
 9007TIP3   OH226956   1.238   6.936   5.324
 9007TIP3    H126957   1.297   6.873   5.282
 9007TIP3    H226958   1.197   6.982   5.251
 9008TIP3   OH226959   0.686   6.753   4.082
 9008TIP3    H126960   0.722   6.743   4.170
 9008TIP3    H226961   0.611   6.693   4.080
 9009TIP3   OH226962   1.078   7.061   5.140
 9009TIP3    H126963   1.020   7.099   5.206
 9009TIP3    H226964   1.020   7.012   5.082
 9010TIP3   OH226965   0.729   6.685   3.729
 9010TIP3    H126966   0.776   6.626   3.670
 9010TIP3    H226967   0.785   6.762   3.737
 9011TIP3   OH226968   0.988   6.785   5.030
 9011TIP3    H126969   0.898   6.766   5.002
 9011TIP3    H226970   1.033   6.701   5.026
 9012TIP3   OH226971   0.719   6.593   4.517
 9012TIP3    H126972   0.761   6.653   4.456
 9012TIP3    H226973   0.626   6.616   4.513
 9013TIP3   OH226974   0.837   6.722   4.311
 9013TIP3    H126975   0.905   6.661   4.285
 9013TIP3    H226976   0.872   6.808   4.288
 9014TIP3   OH226977   0.446   6.622   4.501
 9014TIP3    H126978   0.387   6.697   4.510
 9014TIP3    H226979   0.435   6.573   4.582
 9015TIP3   OH226980   0.475   6.567   4.079
 9015TIP3    H126981   0.395   6.614   4.100
 9015TIP3    H226982   0.464   6.481   4.120
 9016TIP3   OH226983   0.740   6.771   5.446
 9016TIP3    H126984   0.754   6.750   5.538
 9016TIP3    H226985   0.828   6.771   5.407
 9017TIP3   OH226986   1.969   7.639   3.751
 9017TIP3    H126987   1.951   7.731   3.769
 9017TIP3    H226988   1.894   7.609   3.701
 9018TIP3   OH226989   1.924   7.709   4.118
 9018TIP3    H126990   1.972   7.695   4.200
 9018TIP3    H226991   1.885   7.624   4.099
 9019TIP3   OH226992   1.240   7.623   4.479
 9019TIP3    H126993   1.283   7.669   4.552
 9019TIP3    H226994   1.312   7.601   4.419
 9020TIP3   OH226995   2.236   7.997   3.832
 9020TIP3    H126996   2.205   7.938   3.900
 9020TIP3    H226997   2.253   8.080   3.877
 9021TIP3   OH226998   1.353   7.922   4.261
 9021TIP3    H126999   1.258   7.924   4.274
 9021TIP3    H227000   1.365   7.893   4.171
 9022TIP3   OH227001   0.915   7.216   3.940
 9022TIP3    H127002   0.873   7.299   3.961
 9022TIP3    H227003   0.842   7.157   3.917
 9023TIP3   OH227004   0.968   7.518   4.143
 9023TIP3    H127005   1.052   7.474   4.152
 9023TIP3    H227006   0.985   7.592   4.085
 9024TIP3   OH227007   1.743   7.926   4.180
 9024TIP3    H127008   1.782   7.850   4.136
 9024TIP3    H227009   1.818   7.970   4.221
 9025TIP3   OH227010   2.796   7.230   4.157
 9025TIP3    H127011   2.805   7.316   4.200
 9025TIP3    H227012   2.818   7.247   4.066
 9026TIP3   OH227013   2.157   7.422   4.172
 9026TIP3    H127014   2.188   7.336   4.199
 9026TIP3    H227015   2.119   7.407   4.085
 9027TIP3   OH227016   1.508   7.087   4.128
 9027TIP3    H127017   1.481   7.158   4.069
 9027TIP3    H227018   1.445   7.017   4.112
 9028TIP3   OH227019   2.194   7.184   3.762
 9028TIP3    H127020   2.255   7.177   3.835
 9028TIP3    H227021   2.247   7.217   3.690
 9029TIP3   OH227022   1.167   7.327   4.249
 9029TIP3    H127023   1.105   7.292   4.313
 9029TIP3    H227024   1.164   7.265   4.176
 9030TIP3   OH227025   1.564   7.476   4.078
 9030TIP3    H127026   1.658   7.461   4.080
 9030TIP3    H227027   1.528   7.395   4.042
 9031TIP3   OH227028   2.841   7.469   4.309
 9031TIP3    H127029   2.756   7.510   4.294
 9031TIP3    H227030   2.875   7.513   4.386
 9032TIP3   OH227031   1.497   7.090   4.566
 9032TIP3    H127032   1.463   7.147   4.497
 9032TIP3    H227033   1.420   7.070   4.620
 9033TIP3   OH227034   1.938   7.855   3.539
 9033TIP3    H127035   1.854   7.837   3.496
 9033TIP3    H227036   1.923   7.936   3.588
 9034TIP3   OH227037   1.621   7.796   4.387
 9034TIP3    H127038   1.561   7.858   4.430
 9034TIP3    H227039   1.657   7.845   4.313
 9035TIP3   OH227040   2.358   7.202   3.980
 9035TIP3    H127041   2.313   7.179   4.062
 9035TIP3    H227042   2.414   7.276   4.003
 9036TIP3   OH227043   1.415   7.237   4.356
 9036TIP3    H127044   1.334   7.280   4.327
 9036TIP3    H227045   1.443   7.186   4.281
 9037TIP3   OH227046   1.458   7.986   4.505
 9037TIP3    H127047   1.416   7.987   4.419
 9037TIP3    H227048   1.388   7.967   4.566
 9038TIP3   OH227049   0.845   7.609   3.752
 9038TIP3    H127050   0.781   7.640   3.688
 9038TIP3    H227051   0.854   7.682   3.813
 9039TIP3   OH227052   2.539   7.115   4.276
 9039TIP3    H127053   2.456   7.151   4.245
 9039TIP3    H227054   2.606   7.157   4.222
 9040TIP3   OH227055   1.831   6.777   4.306
 9040TIP3    H127056   1.823   6.685   4.331
 9040TIP3    H227057   1.754   6.819   4.343
 9041TIP3   OH227058   2.206   7.918   3.564
 9041TIP3    H127059   2.115   7.891   3.548
 9041TIP3    H227060   2.206   7.952   3.653
 9042TIP3   OH227061   5.391   0.153   4.203
 9042TIP3    H127062   5.332   0.081   4.184
 9042TIP3    H227063   5.335   0.220   4.242
 9043TIP3   OH227064   1.782   7.544   3.573
 9043TIP3    H127065   1.694   7.579   3.565
 9043TIP3    H227066   1.815   7.538   3.484
 9044TIP3   OH227067   1.729   7.329   3.267
 9044TIP3    H127068   1.789   7.394   3.304
 9044TIP3    H227069   1.787   7.269   3.219
 9045TIP3   OH227070   2.661   7.793   4.153
 9045TIP3    H127071   2.578   7.840   4.162
 9045TIP3    H227072   2.690   7.813   4.064
 9046TIP3   OH227073   2.123   7.613   3.513
 9046TIP3    H127074   2.070   7.642   3.587
 9046TIP3    H227075   2.210   7.597   3.550
 9047TIP3   OH227076   2.349   7.642   4.426
 9047TIP3    H127077   2.360   7.719   4.483
 9047TIP3    H227078   2.264   7.657   4.384
 9048TIP3   OH227079   1.369   7.594   3.913
 9048TIP3    H127080   1.323   7.532   3.857
 9048TIP3    H227081   1.431   7.541   3.963
 9049TIP3   OH227082   1.464   7.934   4.009
 9049TIP3    H127083   1.460   8.027   3.986
 9049TIP3    H227084   1.558   7.915   4.014
 9050TIP3   OH227085   1.453   7.592   4.303
 9050TIP3    H127086   1.495   7.546   4.230
 9050TIP3    H227087   1.512   7.664   4.323
 9051TIP3   OH227088   4.522   0.048   4.641
 9051TIP3    H127089   4.520   0.139   4.612
 9051TIP3    H227090   4.443   0.009   4.603
 9052TIP3   OH227091   1.937   7.503   3.348
 9052TIP3    H127092   1.999   7.554   3.401
 9052TIP3    H227093   1.981   7.493   3.264
 9053TIP3   OH227094   1.357   7.703   4.734
 9053TIP3    H127095   1.360   7.795   4.761
 9053TIP3    H227096   1.271   7.672   4.765
 9054TIP3   OH227097   2.464   6.747   3.401
 9054TIP3    H127098   2.387   6.762   3.456
 9054TIP3    H227099   2.464   6.821   3.339
 9055TIP3   OH227100   1.229   7.429   3.738
 9055TIP3    H127101   1.160   7.480   3.696
 9055TIP3    H227102   1.183   7.354   3.776
 9056TIP3   OH227103   1.019   7.799   4.638
 9056TIP3    H127104   0.955   7.815   4.570
 9056TIP3    H227105   1.029   7.704   4.640
 9057TIP3   OH227106   2.607   7.616   4.645
 9057TIP3    H127107   2.513   7.636   4.638
 9057TIP3    H227108   2.611   7.532   4.690
 9058TIP3   OH227109   1.239   7.953   4.649
 9058TIP3    H127110   1.205   8.024   4.704
 9058TIP3    H227111   1.163   7.897   4.634
 9059TIP3   OH227112   1.595   6.871   4.424
 9059TIP3    H127113   1.510   6.837   4.396
 9059TIP3    H227114   1.576   6.955   4.465
 9060TIP3   OH227115   2.130   6.990   4.630
 9060TIP3    H127116   2.200   6.968   4.691
 9060TIP3    H227117   2.049   6.975   4.679
 9061TIP3   OH227118   2.384   7.402   4.557
 9061TIP3    H127119   2.330   7.400   4.636
 9061TIP3    H227120   2.359   7.483   4.513
 9062TIP3   OH227121   2.076   7.434   3.128
 9062TIP3    H127122   2.042   7.448   3.040
 9062TIP3    H227123   2.171   7.426   3.117
 9063TIP3   OH227124   1.744   6.911   3.402
 9063TIP3    H127125   1.707   6.918   3.490
 9063TIP3    H227126   1.706   6.831   3.366
 9064TIP3   OH227127   1.415   7.279   3.958
 9064TIP3    H127128   1.326   7.261   3.988
 9064TIP3    H227129   1.419   7.243   3.869
 9065TIP3   OH227130   1.896   7.325   3.690
 9065TIP3    H127131   1.853   7.403   3.654
 9065TIP3    H227132   1.958   7.299   3.621
 9066TIP3   OH227133   2.106   7.616   4.758
 9066TIP3    H127134   2.073   7.550   4.819
 9066TIP3    H227135   2.197   7.630   4.784
 9067TIP3   OH227136   2.062   7.381   3.920
 9067TIP3    H127137   2.002   7.427   3.860
 9067TIP3    H227138   2.088   7.303   3.872
 9068TIP3   OH227139   1.411   6.904   3.363
 9068TIP3    H127140   1.400   6.902   3.459
 9068TIP3    H227141   1.331   6.945   3.331
 9069TIP3   OH227142   0.967   6.927   4.194
 9069TIP3    H127143   1.042   6.971   4.234
 9069TIP3    H227144   1.001   6.888   4.114
 9070TIP3   OH227145   0.884   6.914   3.751
 9070TIP3    H127146   0.923   6.953   3.672
 9070TIP3    H227147   0.821   6.980   3.781
 9071TIP3   OH227148   2.085   7.627   4.330
 9071TIP3    H127149   2.115   7.561   4.268
 9071TIP3    H227150   2.059   7.578   4.408
 9072TIP3   OH227151   1.768   7.070   4.017
 9072TIP3    H127152   1.688   7.071   4.070
 9072TIP3    H227153   1.839   7.062   4.082
 9073TIP3   OH227154   1.174   7.171   4.019
 9073TIP3    H127155   1.082   7.174   3.991
 9073TIP3    H227156   1.195   7.077   4.020
 9074TIP3   OH227157   1.418   7.150   3.715
 9074TIP3    H127158   1.512   7.164   3.703
 9074TIP3    H227159   1.379   7.174   3.631
 9075TIP3   OH227160   2.225   7.158   4.223
 9075TIP3    H127161   2.211   7.175   4.317
 9075TIP3    H227162   2.155   7.098   4.199
 9076TIP3   OH227163   1.299   7.182   3.469
 9076TIP3    H127164   1.230   7.132   3.425
 9076TIP3    H227165   1.356   7.211   3.397
 9077TIP3   OH227166   1.382   7.954   4.906
 9077TIP3    H127167   1.452   7.943   4.970
 9077TIP3    H227168   1.302   7.945   4.956
 9078TIP3   OH227169   1.837   7.437   4.117
 9078TIP3    H127170   1.901   7.386   4.067
 9078TIP3    H227171   1.834   7.395   4.203
 9079TIP3   OH227172   1.311   6.914   4.020
 9079TIP3    H127173   1.284   6.839   4.073
 9079TIP3    H227174   1.333   6.876   3.935
 9080TIP3   OH227175   1.806   7.359   4.390
 9080TIP3    H127176   1.731   7.414   4.412
 9080TIP3    H227177   1.877   7.393   4.443
 9081TIP3   OH227178   1.541   7.661   3.537
 9081TIP3    H127179   1.463   7.607   3.523
 9081TIP3    H227180   1.527   7.703   3.622
 9082TIP3   OH227181   2.417   7.930   4.127
 9082TIP3    H127182   2.452   7.966   4.046
 9082TIP3    H227183   2.337   7.885   4.101
 9083TIP3   OH227184   1.994   7.018   3.386
 9083TIP3    H127185   1.901   6.994   3.392
 9083TIP3    H227186   1.996   7.110   3.411
 9084TIP3   OH227187   1.935   7.976   4.533
 9084TIP3    H127188   1.975   7.974   4.620
 9084TIP3    H227189   1.846   8.007   4.549
 9085TIP3   OH227190   2.061   7.273   3.471
 9085TIP3    H127191   2.155   7.279   3.488
 9085TIP3    H227192   2.039   7.355   3.427
 9086TIP3   OH227193   1.230   7.650   4.147
 9086TIP3    H127194   1.268   7.641   4.059
 9086TIP3    H227195   1.298   7.618   4.206
 9087TIP3   OH227196   1.704   7.818   3.386
 9087TIP3    H127197   1.683   7.901   3.429
 9087TIP3    H227198   1.645   7.755   3.426
 9088TIP3   OH227199   1.132   7.558   4.795
 9088TIP3    H127200   1.107   7.549   4.887
 9088TIP3    H227201   1.053   7.534   4.747
 9089TIP3   OH227202   1.856   7.722   4.794
 9089TIP3    H127203   1.805   7.686   4.722
 9089TIP3    H227204   1.946   7.693   4.776
 9090TIP3   OH227205   2.472   7.360   3.306
 9090TIP3    H127206   2.410   7.322   3.244
 9090TIP3    H227207   2.492   7.447   3.271
 9091TIP3   OH227208   5.590   0.139   4.388
 9091TIP3    H127209   5.506   0.162   4.348
 9091TIP3    H227210   5.645   0.112   4.314
 9092TIP3   OH227211   2.189   7.799   4.026
 9092TIP3    H127212   2.097   7.780   4.046
 9092TIP3    H227213   2.223   7.719   3.987
 9093TIP3   OH227214   0.898   7.328   3.521
 9093TIP3    H127215   0.953   7.405   3.537
 9093TIP3    H227216   0.825   7.338   3.582
 9094TIP3   OH227217   1.516   7.778   3.778
 9094TIP3    H127218   1.463   7.857   3.787
 9094TIP3    H227219   1.472   7.713   3.833
 9095TIP3   OH227220   2.005   7.979   4.266
 9095TIP3    H127221   1.976   7.989   4.357
 9095TIP3    H227222   2.086   7.930   4.272
 9096TIP3   OH227223   1.902   7.838   3.180
 9096TIP3    H127224   1.867   7.809   3.264
 9096TIP3    H227225   1.826   7.836   3.121
 9097TIP3   OH227226   1.327   7.267   4.799
 9097TIP3    H127227   1.232   7.258   4.790
 9097TIP3    H227228   1.352   7.194   4.856
 9098TIP3   OH227229   2.163   7.777   3.283
 9098TIP3    H127230   2.134   7.737   3.365
 9098TIP3    H227231   2.258   7.790   3.295
 9099TIP3   OH227232   1.344   7.771   3.297
 9099TIP3    H127233   1.290   7.707   3.252
 9099TIP3    H227234   1.367   7.835   3.229
 9100TIP3   OH227235   1.043   7.557   3.586
 9100TIP3    H127236   0.975   7.571   3.652
 9100TIP3    H227237   1.045   7.639   3.536
 9101TIP3   OH227238   2.174   7.221   4.486
 9101TIP3    H127239   2.252   7.257   4.527
 9101TIP3    H227240   2.153   7.143   4.539
 9102TIP3   OH227241   2.050   6.967   3.665
 9102TIP3    H127242   2.030   6.987   3.573
 9102TIP3    H227243   2.090   7.047   3.699
 9103TIP3   OH227244   1.696   7.157   3.764
 9103TIP3    H127245   1.765   7.219   3.737
 9103TIP3    H227246   1.714   7.139   3.856
 9104TIP3   OH227247   2.021   7.459   4.537
 9104TIP3    H127248   2.052   7.498   4.619
 9104TIP3    H227249   2.067   7.375   4.532
 9105TIP3   OH227250   1.865   6.865   3.849
 9105TIP3    H127251   1.840   6.942   3.900
 9105TIP3    H227252   1.932   6.897   3.788
 9106TIP3   OH227253   1.378   6.882   3.640
 9106TIP3    H127254   1.363   6.970   3.677
 9106TIP3    H227255   1.471   6.867   3.651
 9107TIP3   OH227256   2.636   7.322   4.493
 9107TIP3    H127257   2.547   7.335   4.527
 9107TIP3    H227258   2.642   7.380   4.417
 9108TIP3   OH227259   2.285   7.556   3.926
 9108TIP3    H127260   2.208   7.500   3.931
 9108TIP3    H227261   2.350   7.512   3.981
 9109TIP3   OH227262   0.957   7.746   3.375
 9109TIP3    H127263   0.920   7.784   3.296
 9109TIP3    H227264   1.021   7.683   3.343
 9110TIP3   OH227265   0.924   7.053   3.519
 9110TIP3    H127266   0.935   7.148   3.532
 9110TIP3    H227267   0.832   7.043   3.492
 9111TIP3   OH227268   1.332   6.790   4.397
 9111TIP3    H127269   1.298   6.761   4.313
 9111TIP3    H227270   1.320   6.715   4.455
 9112TIP3   OH227271   1.143   7.869   5.033
 9112TIP3    H127272   1.193   7.788   5.027
 9112TIP3    H227273   1.072   7.858   4.969
 9113TIP3   OH227274   1.135   7.552   3.300
 9113TIP3    H127275   1.182   7.527   3.380
 9113TIP3    H227276   1.195   7.529   3.229
 9114TIP3   OH227277   1.781   7.969   4.878
 9114TIP3    H127278   1.752   8.009   4.796
 9114TIP3    H227279   1.811   7.882   4.853
 9115TIP3   OH227280   1.643   7.814   3.109
 9115TIP3    H127281   1.645   7.806   3.204
 9115TIP3    H227282   1.576   7.753   3.081
 9116TIP3   OH227283   5.085  -0.003   4.449
 9116TIP3    H127284   5.159   0.047   4.483
 9116TIP3    H227285   5.009   0.033   4.495
 9117TIP3   OH227286   1.329   7.666   5.045
 9117TIP3    H127287   1.401   7.603   5.040
 9117TIP3    H227288   1.338   7.705   5.132
 9118TIP3   OH227289   1.338   7.485   3.485
 9118TIP3    H127290   1.302   7.462   3.571
 9118TIP3    H227291   1.363   7.401   3.447
 9119TIP3   OH227292   1.541   7.521   4.677
 9119TIP3    H127293   1.490   7.602   4.683
 9119TIP3    H227294   1.613   7.542   4.617
 9120TIP3   OH227295   1.459   7.310   3.289
 9120TIP3    H127296   1.436   7.301   3.197
 9120TIP3    H227297   1.555   7.302   3.291
 9121TIP3   OH227298   2.123   7.949   4.809
 9121TIP3    H127299   2.186   7.897   4.760
 9121TIP3    H227300   2.111   7.902   4.891
 9122TIP3   OH227301   2.294   7.588   2.953
 9122TIP3    H127302   2.277   7.531   2.878
 9122TIP3    H227303   2.351   7.657   2.918
 9123TIP3   OH227304   1.757   7.373   4.797
 9123TIP3    H127305   1.764   7.291   4.748
 9123TIP3    H227306   1.691   7.424   4.749
 9124TIP3   OH227307   1.754   7.168   4.606
 9124TIP3    H127308   1.776   7.207   4.522
 9124TIP3    H227309   1.663   7.140   4.596
 9125TIP3   OH227310   1.757   7.622   4.543
 9125TIP3    H127311   1.848   7.624   4.512
 9125TIP3    H227312   1.713   7.688   4.489
 9126TIP3   OH227313   2.347   7.653   4.885
 9126TIP3    H127314   2.374   7.589   4.951
 9126TIP3    H227315   2.412   7.723   4.892
 9127TIP3   OH227316   2.396   7.845   4.608
 9127TIP3    H127317   2.330   7.895   4.561
 9127TIP3    H227318   2.479   7.872   4.568
 9128TIP3   OH227319   1.514   7.440   4.967
 9128TIP3    H127320   1.495   7.379   5.038
 9128TIP3    H227321   1.610   7.449   4.967
 9129TIP3   OH227322   1.869   6.937   4.715
 9129TIP3    H127323   1.828   7.017   4.681
 9129TIP3    H227324   1.802   6.870   4.702
 9130TIP3   OH227325   1.997   7.428   4.919
 9130TIP3    H127326   1.985   7.406   5.011
 9130TIP3    H227327   1.912   7.407   4.879
 9131TIP3   OH227328   2.229   7.345   4.773
 9131TIP3    H127329   2.155   7.347   4.834
 9131TIP3    H227330   2.305   7.327   4.828
 9132TIP3   OH227331   2.475   7.319   4.910
 9132TIP3    H127332   2.484   7.227   4.933
 9132TIP3    H227333   2.448   7.362   4.992
 9133TIP3   OH227334   1.468   7.223   5.131
 9133TIP3    H127335   1.473   7.133   5.101
 9133TIP3    H227336   1.516   7.223   5.214
 9134TIP3   OH227337   1.943   6.924   4.980
 9134TIP3    H127338   2.009   6.856   4.974
 9134TIP3    H227339   1.909   6.932   4.891
 9135TIP3   OH227340   2.052   7.163   5.078
 9135TIP3    H127341   2.020   7.078   5.049
 9135TIP3    H227342   1.972   7.212   5.099
 9136TIP3   OH227343   0.732   7.624   3.483
 9136TIP3    H127344   0.804   7.678   3.450
 9136TIP3    H227345   0.704   7.574   3.406
 9137TIP3   OH227346   5.449   0.370   4.652
 9137TIP3    H127347   5.394   0.422   4.710
 9137TIP3    H227348   5.539   0.391   4.677
 9138TIP3   OH227349   2.429   7.789   3.321
 9138TIP3    H127350   2.498   7.849   3.295
 9138TIP3    H227351   2.461   7.748   3.401
 9139TIP3   OH227352   2.551   7.659   3.522
 9139TIP3    H127353   2.484   7.628   3.584
 9139TIP3    H227354   2.616   7.704   3.577
 9140TIP3   OH227355   5.409   0.028   3.940
 9140TIP3    H127356   5.469  -0.038   3.905
 9140TIP3    H227357   5.399   0.091   3.868
 9141TIP3   OH227358   2.489   7.585   3.151
 9141TIP3    H127359   2.411   7.582   3.096
 9141TIP3    H227360   2.475   7.660   3.209
 9142TIP3   OH227361   2.323   7.284   3.088
 9142TIP3    H127362   2.377   7.300   3.010
 9142TIP3    H227363   2.301   7.191   3.083
 9143TIP3   OH227364   2.347   7.538   3.658
 9143TIP3    H127365   2.352   7.443   3.650
 9143TIP3    H227366   2.327   7.553   3.751
 9144TIP3   OH227367   0.977   7.591   4.408
 9144TIP3    H127368   0.966   7.556   4.320
 9144TIP3    H227369   1.072   7.593   4.421
 9145TIP3   OH227370   2.618   7.917   4.470
 9145TIP3    H127371   2.692   7.857   4.480
 9145TIP3    H227372   2.658   8.003   4.455
 9146TIP3   OH227373   2.813   7.731   4.513
 9146TIP3    H127374   2.742   7.690   4.562
 9146TIP3    H227375   2.891   7.679   4.533
 9147TIP3   OH227376   2.259   7.020   3.046
 9147TIP3    H127377   2.332   6.985   3.096
 9147TIP3    H227378   2.184   6.968   3.074
 9148TIP3   OH227379   2.343   7.269   3.539
 9148TIP3    H127380   2.387   7.185   3.550
 9148TIP3    H227381   2.389   7.311   3.466
 9149TIP3   OH227382   2.499   7.427   4.061
 9149TIP3    H127383   2.579   7.447   4.013
 9149TIP3    H227384   2.512   7.466   4.147
 9150TIP3   OH227385   2.582   7.567   4.291
 9150TIP3    H127386   2.504   7.590   4.343
 9150TIP3    H227387   2.608   7.649   4.248
 9151TIP3   OH227388   1.208   7.294   5.085
 9151TIP3    H127389   1.300   7.283   5.110
 9151TIP3    H227390   1.165   7.214   5.113
 9152TIP3   OH227391   3.028   7.189   4.813
 9152TIP3    H127392   3.086   7.122   4.776
 9152TIP3    H227393   2.994   7.235   4.737
 9153TIP3   OH227394   2.458   7.021   3.581
 9153TIP3    H127395   2.503   7.008   3.665
 9153TIP3    H227396   2.395   6.950   3.576
 9154TIP3   OH227397   1.176   7.025   4.338
 9154TIP3    H127398   1.228   6.959   4.384
 9154TIP3    H227399   1.133   7.074   4.408
 9155TIP3   OH227400   0.997   7.240   4.456
 9155TIP3    H127401   0.912   7.196   4.465
 9155TIP3    H227402   0.988   7.320   4.507
 9156TIP3   OH227403   2.871   7.332   4.639
 9156TIP3    H127404   2.823   7.367   4.714
 9156TIP3    H227405   2.803   7.309   4.576
 9157TIP3   OH227406   2.485   6.943   3.197
 9157TIP3    H127407   2.536   6.878   3.149
 9157TIP3    H227408   2.547   7.014   3.215
 9158TIP3   OH227409   0.945   6.756   3.961
 9158TIP3    H127410   0.860   6.749   4.005
 9158TIP3    H227411   0.931   6.820   3.892
 9159TIP3   OH227412   1.157   6.823   4.800
 9159TIP3    H127413   1.108   6.821   4.882
 9159TIP3    H227414   1.106   6.883   4.744
 9160TIP3   OH227415   2.733   7.063   4.526
 9160TIP3    H127416   2.688   7.146   4.507
 9160TIP3    H227417   2.667   6.996   4.510
 9161TIP3   OH227418   1.999   6.983   4.160
 9161TIP3    H127419   1.958   6.911   4.208
 9161TIP3    H227420   2.065   6.941   4.106
 9162TIP3   OH227421   2.500   6.891   4.032
 9162TIP3    H127422   2.535   6.946   3.962
 9162TIP3    H227423   2.408   6.917   4.039
 9163TIP3   OH227424   2.619   6.975   3.800
 9163TIP3    H127425   2.689   6.914   3.776
 9163TIP3    H227426   2.657   7.062   3.788
 9164TIP3   OH227427   1.243   6.682   4.156
 9164TIP3    H127428   1.154   6.649   4.165
 9164TIP3    H227429   1.298   6.604   4.148
 9165TIP3   OH227430   1.052   6.569   3.783
 9165TIP3    H127431   1.083   6.623   3.711
 9165TIP3    H227432   1.020   6.632   3.848
 9166TIP3   OH227433   1.723   6.717   4.045
 9166TIP3    H127434   1.768   6.769   3.979
 9166TIP3    H227435   1.760   6.747   4.128
 9167TIP3   OH227436   2.212   6.872   4.022
 9167TIP3    H127437   2.214   6.836   3.933
 9167TIP3    H227438   2.218   6.796   4.079
 9168TIP3   OH227439   2.272   6.814   3.589
 9168TIP3    H127440   2.191   6.860   3.612
 9168TIP3    H227441   2.261   6.727   3.626
 9169TIP3   OH227442   1.168   6.713   3.563
 9169TIP3    H127443   1.214   6.654   3.504
 9169TIP3    H227444   1.236   6.772   3.597
 9170TIP3   OH227445   1.652   6.908   3.662
 9170TIP3    H127446   1.708   6.855   3.718
 9170TIP3    H227447   1.663   6.998   3.694
 9171TIP3   OH227448   1.477   6.957   5.038
 9171TIP3    H127449   1.438   6.890   5.094
 9171TIP3    H227450   1.569   6.961   5.065
 9172TIP3   OH227451   1.725   6.961   5.155
 9172TIP3    H127452   1.805   6.954   5.103
 9172TIP3    H227453   1.731   6.890   5.218
 9173TIP3   OH227454   2.536   7.052   4.944
 9173TIP3    H127455   2.549   7.023   5.034
 9173TIP3    H227456   2.622   7.048   4.904
 9174TIP3   OH227457   3.744   7.897   3.230
 9174TIP3    H127458   3.725   7.978   3.182
 9174TIP3    H227459   3.673   7.837   3.205
 9175TIP3   OH227460   3.675   7.952   3.626
 9175TIP3    H127461   3.749   7.941   3.685
 9175TIP3    H227462   3.656   7.864   3.594
 9176TIP3   OH227463   3.026   7.840   3.974
 9176TIP3    H127464   3.055   7.769   4.032
 9176TIP3    H227465   3.086   7.912   3.992
 9177TIP3   OH227466   6.820   0.212   3.316
 9177TIP3    H127467   6.752   0.180   3.375
 9177TIP3    H227468   6.856   0.289   3.360
 9178TIP3   OH227469   5.981   0.172   3.726
 9178TIP3    H127470   5.887   0.157   3.735
 9178TIP3    H227471   5.996   0.181   3.632
 9179TIP3   OH227472   2.714   7.453   3.432
 9179TIP3    H127473   2.674   7.534   3.462
 9179TIP3    H227474   2.640   7.400   3.401
 9180TIP3   OH227475   2.777   7.742   3.652
 9180TIP3    H127476   2.823   7.664   3.682
 9180TIP3    H227477   2.847   7.801   3.623
 9181TIP3   OH227478   6.378   0.173   3.664
 9181TIP3    H127479   6.407   0.089   3.629
 9181TIP3    H227480   6.457   0.212   3.701
 9182TIP3   OH227481   3.973   7.694   3.636
 9182TIP3    H127482   4.006   7.609   3.665
 9182TIP3    H227483   3.927   7.676   3.554
 9183TIP3   OH227484   3.299   7.331   3.615
 9183TIP3    H127485   3.283   7.406   3.557
 9183TIP3    H227486   3.246   7.260   3.579
 9184TIP3   OH227487   4.010   7.442   3.256
 9184TIP3    H127488   4.081   7.440   3.321
 9184TIP3    H227489   4.053   7.472   3.176
 9185TIP3   OH227490   2.921   7.533   3.753
 9185TIP3    H127491   3.007   7.523   3.794
 9185TIP3    H227492   2.930   7.488   3.669
 9186TIP3   OH227493   3.373   7.734   3.531
 9186TIP3    H127494   3.466   7.715   3.545
 9186TIP3    H227495   3.336   7.650   3.503
 9187TIP3   OH227496   4.629   7.697   3.799
 9187TIP3    H127497   4.596   7.648   3.724
 9187TIP3    H227498   4.572   7.671   3.872
 9188TIP3   OH227499   3.272   7.333   4.071
 9188TIP3    H127500   3.227   7.372   3.996
 9188TIP3    H227501   3.220   7.361   4.146
 9189TIP3   OH227502   6.518   0.074   3.046
 9189TIP3    H127503   6.457   0.072   2.972
 9189TIP3    H227504   6.522   0.167   3.071
 9190TIP3   OH227505   6.248   0.033   3.855
 9190TIP3    H127506   6.192   0.094   3.903
 9190TIP3    H227507   6.289   0.085   3.787
 9191TIP3   OH227508   4.195   7.470   3.466
 9191TIP3    H127509   4.154   7.441   3.548
 9191TIP3    H227510   4.289   7.463   3.483
 9192TIP3   OH227511   3.172   7.438   3.837
 9192TIP3    H127512   3.225   7.515   3.859
 9192TIP3    H227513   3.218   7.399   3.762
 9193TIP3   OH227514   6.085   0.214   3.973
 9193TIP3    H127515   6.052   0.220   3.883
 9193TIP3    H227516   6.008   0.194   4.026
 9194TIP3   OH227517   2.660   7.913   3.243
 9194TIP3    H127518   2.610   7.969   3.184
 9194TIP3    H227519   2.704   7.974   3.302
 9195TIP3   OH227520   4.332   7.394   3.799
 9195TIP3    H127521   4.243   7.412   3.770
 9195TIP3    H227522   4.387   7.422   3.726
 9196TIP3   OH227523   3.626   7.034   3.792
 9196TIP3    H127524   3.615   6.942   3.818
 9196TIP3    H227525   3.552   7.079   3.831
 9197TIP3   OH227526   6.887   0.278   3.034
 9197TIP3    H127527   6.841   0.262   2.952
 9197TIP3    H227528   6.834   0.235   3.100
 9198TIP3   OH227529   7.240   0.560   3.596
 9198TIP3    H127530   7.244   0.473   3.556
 9198TIP3    H227531   7.181   0.550   3.670
 9199TIP3   OH227532   3.568   7.771   3.046
 9199TIP3    H127533   3.491   7.828   3.039
 9199TIP3    H227534   3.613   7.782   2.962
 9200TIP3   OH227535   3.528   7.597   2.729
 9200TIP3    H127536   3.587   7.655   2.777
 9200TIP3    H227537   3.587   7.538   2.680
 9201TIP3   OH227538   7.206   0.040   3.542
 9201TIP3    H127539   7.160   0.123   3.558
 9201TIP3    H227540   7.279   0.063   3.484
 9202TIP3   OH227541   3.927   7.854   3.026
 9202TIP3    H127542   3.868   7.871   3.100
 9202TIP3    H227543   4.011   7.834   3.066
 9203TIP3   OH227544   4.129   7.914   3.928
 9203TIP3    H127545   4.135   7.988   3.988
 9203TIP3    H227546   4.042   7.923   3.888
 9204TIP3   OH227547   3.152   7.848   3.410
 9204TIP3    H127548   3.114   7.787   3.347
 9204TIP3    H227549   3.227   7.800   3.446
 9205TIP3   OH227550   6.069   0.246   3.481
 9205TIP3    H127551   6.114   0.176   3.435
 9205TIP3    H227552   6.128   0.321   3.473
 9206TIP3   OH227553   3.261   7.846   3.753
 9206TIP3    H127554   3.306   7.818   3.674
 9206TIP3    H227555   3.312   7.921   3.784
 9207TIP3   OH227556   6.328   0.283   4.088
 9207TIP3    H127557   6.338   0.365   4.038
 9207TIP3    H227558   6.240   0.252   4.064
 9208TIP3   OH227559   3.748   7.749   2.832
 9208TIP3    H127560   3.810   7.802   2.882
 9208TIP3    H227561   3.776   7.758   2.741
 9209TIP3   OH227562   3.167   7.979   4.204
 9209TIP3    H127563   3.172   8.064   4.249
 9209TIP3    H227564   3.083   7.943   4.229
 9210TIP3   OH227565   4.258   6.995   2.887
 9210TIP3    H127566   4.182   7.017   2.941
 9210TIP3    H227567   4.269   7.071   2.830
 9211TIP3   OH227568   3.035   7.683   3.221
 9211TIP3    H127569   2.962   7.726   3.178
 9211TIP3    H227570   3.002   7.595   3.242
 9212TIP3   OH227571   5.647   0.042   4.129
 9212TIP3    H127572   5.552   0.045   4.119
 9212TIP3    H227573   5.664  -0.046   4.164
 9213TIP3   OH227574   4.401   7.888   4.125
 9213TIP3    H127575   4.307   7.906   4.128
 9213TIP3    H227576   4.409   7.798   4.157
 9214TIP3   OH227577   5.842   0.216   4.080
 9214TIP3    H127578   5.807   0.286   4.136
 9214TIP3    H227579   5.777   0.146   4.087
 9215TIP3   OH227580   3.393   7.131   3.918
 9215TIP3    H127581   3.313   7.098   3.876
 9215TIP3    H227582   3.366   7.210   3.963
 9216TIP3   OH227583   3.927   7.248   4.114
 9216TIP3    H127584   3.997   7.225   4.174
 9216TIP3    H227585   3.847   7.231   4.164
 9217TIP3   OH227586   4.181   7.674   4.051
 9217TIP3    H127587   4.127   7.663   4.128
 9217TIP3    H227588   4.147   7.754   4.010
 9218TIP3   OH227589   3.824   7.745   2.570
 9218TIP3    H127590   3.784   7.741   2.483
 9218TIP3    H227591   3.905   7.794   2.557
 9219TIP3   OH227592   3.530   7.172   2.886
 9219TIP3    H127593   3.495   7.177   2.976
 9219TIP3    H227594   3.496   7.089   2.852
 9220TIP3   OH227595   3.325   7.647   3.926
 9220TIP3    H127596   3.282   7.663   4.010
 9220TIP3    H227597   3.299   7.720   3.870
 9221TIP3   OH227598   3.212   7.528   3.448
 9221TIP3    H127599   3.122   7.509   3.476
 9221TIP3    H227600   3.216   7.496   3.359
 9222TIP3   OH227601   3.697   7.574   3.174
 9222TIP3    H127602   3.647   7.643   3.130
 9222TIP3    H227603   3.763   7.547   3.110
 9223TIP3   OH227604   3.905   7.863   4.230
 9223TIP3    H127605   3.875   7.799   4.294
 9223TIP3    H227606   3.991   7.892   4.262
 9224TIP3   OH227607   3.835   7.594   3.418
 9224TIP3    H127608   3.778   7.623   3.347
 9224TIP3    H227609   3.894   7.531   3.377
 9225TIP3   OH227610   3.147   7.654   4.144
 9225TIP3    H127611   3.205   7.709   4.197
 9225TIP3    H227612   3.126   7.580   4.201
 9226TIP3   OH227613   3.197   7.151   2.861
 9226TIP3    H127614   3.187   7.153   2.956
 9226TIP3    H227615   3.120   7.197   2.828
 9227TIP3   OH227616   2.753   7.198   3.730
 9227TIP3    H127617   2.826   7.228   3.784
 9227TIP3    H227618   2.792   7.180   3.645
 9228TIP3   OH227619   2.652   7.159   3.243
 9228TIP3    H127620   2.699   7.195   3.168
 9228TIP3    H227621   2.594   7.230   3.271
 9229TIP3   OH227622   3.877   7.882   3.808
 9229TIP3    H127623   3.916   7.825   3.742
 9229TIP3    H227624   3.848   7.823   3.877
 9230TIP3   OH227625   3.566   7.323   3.501
 9230TIP3    H127626   3.492   7.321   3.561
 9230TIP3    H227627   3.643   7.318   3.558
 9231TIP3   OH227628   2.972   7.412   3.512
 9231TIP3    H127629   2.883   7.416   3.475
 9231TIP3    H227630   3.002   7.323   3.492
 9232TIP3   OH227631   3.211   7.409   3.202
 9232TIP3    H127632   3.306   7.421   3.193
 9232TIP3    H227633   3.177   7.430   3.115
 9233TIP3   OH227634   4.046   7.429   3.710
 9233TIP3    H127635   4.021   7.448   3.801
 9233TIP3    H227636   3.978   7.369   3.678
 9234TIP3   OH227637   3.096   7.439   2.954
 9234TIP3    H127638   3.032   7.390   2.902
 9234TIP3    H227639   3.157   7.476   2.890
 9235TIP3   OH227640   6.005   0.197   4.364
 9235TIP3    H127641   6.081   0.201   4.422
 9235TIP3    H227642   5.931   0.189   4.423
 9236TIP3   OH227643   3.631   7.672   3.601
 9236TIP3    H127644   3.702   7.632   3.551
 9236TIP3    H227645   3.633   7.627   3.685
 9237TIP3   OH227646   3.110   7.167   3.483
 9237TIP3    H127647   3.078   7.090   3.530
 9237TIP3    H227648   3.136   7.133   3.397
 9238TIP3   OH227649   3.593   7.586   3.875
 9238TIP3    H127650   3.506   7.621   3.893
 9238TIP3    H227651   3.653   7.641   3.925
 9239TIP3   OH227652   3.347   7.930   3.050
 9239TIP3    H127653   3.271   7.878   3.027
 9239TIP3    H227654   3.326   7.967   3.136
 9240TIP3   OH227655   3.788   7.262   2.896
 9240TIP3    H127656   3.694   7.246   2.888
 9240TIP3    H227657   3.797   7.357   2.901
 9241TIP3   OH227658   6.583   0.195   4.026
 9241TIP3    H127659   6.625   0.182   4.111
 9241TIP3    H227660   6.493   0.220   4.048
 9242TIP3   OH227661   3.861   7.523   2.955
 9242TIP3    H127662   3.956   7.533   2.963
 9242TIP3    H227663   3.832   7.599   2.906
 9243TIP3   OH227664   3.011   7.885   3.643
 9243TIP3    H127665   3.049   7.884   3.555
 9243TIP3    H227666   3.085   7.867   3.701
 9244TIP3   OH227667   6.300   0.078   2.861
 9244TIP3    H127668   6.286   0.161   2.908
 9244TIP3    H227669   6.252   0.013   2.913
 9245TIP3   OH227670   2.930   7.863   4.294
 9245TIP3    H127671   2.957   7.858   4.385
 9245TIP3    H227672   2.855   7.804   4.287
 9246TIP3   OH227673   3.660   7.988   4.280
 9246TIP3    H127674   3.616   7.965   4.198
 9246TIP3    H227675   3.752   7.967   4.265
 9247TIP3   OH227676   4.263   7.619   2.775
 9247TIP3    H127677   4.203   7.574   2.716
 9247TIP3    H227678   4.275   7.706   2.736
 9248TIP3   OH227679   7.357   0.407   3.850
 9248TIP3    H127680   7.282   0.465   3.836
 9248TIP3    H227681   7.391   0.392   3.762
 9249TIP3   OH227682   2.711   7.563   2.988
 9249TIP3    H127683   2.767   7.637   3.010
 9249TIP3    H227684   2.638   7.568   3.050
 9250TIP3   OH227685   6.109   0.043   3.292
 9250TIP3    H127686   6.033   0.080   3.247
 9250TIP3    H227687   6.074  -0.031   3.342
 9251TIP3   OH227688   6.625   0.247   3.748
 9251TIP3    H127689   6.603   0.250   3.842
 9251TIP3    H227690   6.714   0.214   3.746
 9252TIP3   OH227691   6.567   0.091   2.617
 9252TIP3    H127692   6.629   0.035   2.664
 9252TIP3    H227693   6.491   0.035   2.602
 9253TIP3   OH227694   3.108   7.396   4.282
 9253TIP3    H127695   3.013   7.409   4.279
 9253TIP3    H227696   3.130   7.404   4.374
 9254TIP3   OH227697   3.927   8.011   2.800
 9254TIP3    H127698   3.920   7.967   2.884
 9254TIP3    H227699   4.021   8.023   2.786
 9255TIP3   OH227700   5.968   0.022   2.774
 9255TIP3    H127701   5.898  -0.008   2.717
 9255TIP3    H227702   6.026   0.073   2.716
 9256TIP3   OH227703   2.832   7.791   3.077
 9256TIP3    H127704   2.772   7.823   3.144
 9256TIP3    H227705   2.832   7.860   3.010
 9257TIP3   OH227706   3.975   7.480   3.973
 9257TIP3    H127707   4.047   7.518   4.022
 9257TIP3    H227708   3.952   7.401   4.021
 9258TIP3   OH227709   3.851   7.225   3.165
 9258TIP3    H127710   3.831   7.242   3.073
 9258TIP3    H227711   3.897   7.304   3.194
 9259TIP3   OH227712   3.488   7.417   3.252
 9259TIP3    H127713   3.559   7.474   3.222
 9259TIP3    H227714   3.512   7.396   3.343
 9260TIP3   OH227715   3.809   7.710   4.010
 9260TIP3    H127716   3.838   7.752   4.091
 9260TIP3    H227717   3.858   7.628   4.006
 9261TIP3   OH227718   3.660   7.117   3.332
 9261TIP3    H127719   3.637   7.193   3.385
 9261TIP3    H227720   3.731   7.148   3.276
 9262TIP3   OH227721   3.172   7.139   3.142
 9262TIP3    H127722   3.163   7.230   3.170
 9262TIP3    H227723   3.267   7.123   3.146
 9263TIP3   OH227724   4.426   7.603   3.961
 9263TIP3    H127725   4.343   7.630   4.000
 9263TIP3    H227726   4.404   7.525   3.910
 9264TIP3   OH227727   2.766   7.984   2.882
 9264TIP3    H127728   2.790   8.070   2.847
 9264TIP3    H227729   2.819   7.922   2.831
 9265TIP3   OH227730   2.743   7.290   3.027
 9265TIP3    H127731   2.748   7.383   3.006
 9265TIP3    H227732   2.763   7.246   2.944
 9266TIP3   OH227733   3.142   7.024   3.859
 9266TIP3    H127734   3.103   7.008   3.773
 9266TIP3    H227735   3.161   6.936   3.893
 9267TIP3   OH227736   5.808   0.140   4.548
 9267TIP3    H127737   5.844   0.052   4.558
 9267TIP3    H227738   5.724   0.126   4.503
 9268TIP3   OH227739   2.935   7.796   2.780
 9268TIP3    H127740   2.993   7.778   2.854
 9268TIP3    H227741   2.993   7.794   2.703
 9269TIP3   OH227742   6.374   0.213   4.347
 9269TIP3    H127743   6.360   0.252   4.260
 9269TIP3    H227744   6.425   0.134   4.330
 9270TIP3   OH227745   3.478   8.012   2.598
 9270TIP3    H127746   3.473   8.052   2.685
 9270TIP3    H227747   3.427   7.931   2.606
 9271TIP3   OH227748   6.844   0.234   3.939
 9271TIP3    H127749   6.831   0.315   3.990
 9271TIP3    H227750   6.767   0.181   3.959
 9272TIP3   OH227751   3.116   7.910   4.529
 9272TIP3    H127752   3.197   7.874   4.494
 9272TIP3    H227753   3.139   7.943   4.615
 9273TIP3   OH227754   3.141   7.752   2.971
 9273TIP3    H127755   3.111   7.720   3.056
 9273TIP3    H227756   3.179   7.676   2.928
 9274TIP3   OH227757   3.382   7.812   4.180
 9274TIP3    H127758   3.318   7.883   4.190
 9274TIP3    H227759   3.450   7.849   4.123
 9275TIP3   OH227760   3.260   7.569   2.782
 9275TIP3    H127761   3.231   7.553   2.693
 9275TIP3    H227762   3.356   7.566   2.777
 9276TIP3   OH227763   6.728   0.164   4.267
 9276TIP3    H127764   6.722   0.252   4.303
 9276TIP3    H227765   6.747   0.109   4.343
 9277TIP3   OH227766   4.043   7.886   2.475
 9277TIP3    H127767   4.033   7.841   2.390
 9277TIP3    H227768   4.022   7.977   2.456
 9278TIP3   OH227769   3.533   7.623   4.309
 9278TIP3    H127770   3.542   7.549   4.249
 9278TIP3    H227771   3.487   7.689   4.257
 9279TIP3   OH227772   3.534   7.423   4.104
 9279TIP3    H127773   3.562   7.461   4.021
 9279TIP3    H227774   3.442   7.399   4.089
 9280TIP3   OH227775   3.581   7.921   4.026
 9280TIP3    H127776   3.667   7.915   3.985
 9280TIP3    H227777   3.527   7.967   3.961
 9281TIP3   OH227778   4.157   7.912   4.370
 9281TIP3    H127779   4.207   7.843   4.413
 9281TIP3    H227780   4.213   7.989   4.374
 9282TIP3   OH227781   7.031   0.110   4.096
 9282TIP3    H127782   6.966   0.164   4.050
 9282TIP3    H227783   7.115   0.137   4.058
 9283TIP3   OH227784   3.397   7.720   4.537
 9283TIP3    H127785   3.341   7.647   4.561
 9283TIP3    H227786   3.439   7.692   4.455
 9284TIP3   OH227787   3.664   7.195   4.197
 9284TIP3    H127788   3.621   7.275   4.166
 9284TIP3    H227789   3.597   7.127   4.186
 9285TIP3   OH227790   3.798   7.677   4.400
 9285TIP3    H127791   3.798   7.663   4.495
 9285TIP3    H227792   3.708   7.656   4.373
 9286TIP3   OH227793   4.030   7.593   4.260
 9286TIP3    H127794   3.956   7.603   4.319
 9286TIP3    H227795   4.105   7.579   4.317
 9287TIP3   OH227796   4.274   7.575   4.398
 9287TIP3    H127797   4.287   7.481   4.414
 9287TIP3    H227798   4.260   7.613   4.485
 9288TIP3   OH227799   3.264   7.482   4.604
 9288TIP3    H127800   3.275   7.391   4.576
 9288TIP3    H227801   3.297   7.483   4.694
 9289TIP3   OH227802   3.730   7.183   4.461
 9289TIP3    H127803   3.800   7.117   4.462
 9289TIP3    H227804   3.703   7.187   4.369
 9290TIP3   OH227805   3.827   7.412   4.578
 9290TIP3    H127806   3.798   7.334   4.530
 9290TIP3    H227807   3.748   7.464   4.589
 9291TIP3   OH227808   2.511   7.908   2.960
 9291TIP3    H127809   2.592   7.955   2.941
 9291TIP3    H227810   2.516   7.829   2.905
 9292TIP3   OH227811   7.201   0.640   4.085
 9292TIP3    H127812   7.212   0.582   4.161
 9292TIP3    H227813   7.276   0.698   4.088
 9293TIP3   OH227814   7.030   0.033   2.815
 9293TIP3    H127815   7.097   0.087   2.772
 9293TIP3    H227816   7.074  -0.003   2.892
 9294TIP3   OH227817   4.334   7.927   3.018
 9294TIP3    H127818   4.277   7.884   3.081
 9294TIP3    H227819   4.404   7.966   3.070
 9295TIP3   OH227820   7.229   0.326   3.452
 9295TIP3    H127821   7.271   0.253   3.407
 9295TIP3    H227822   7.199   0.384   3.382
 9296TIP3   OH227823   4.267   7.853   2.631
 9296TIP3    H127824   4.192   7.856   2.571
 9296TIP3    H227825   4.251   7.924   2.693
 9297TIP3   OH227826   4.099   7.516   2.582
 9297TIP3    H127827   4.061   7.552   2.502
 9297TIP3    H227828   4.093   7.421   2.572
 9298TIP3   OH227829   4.156   7.772   3.166
 9298TIP3    H127830   4.160   7.684   3.128
 9298TIP3    H227831   4.162   7.758   3.260
 9299TIP3   OH227832   2.764   7.846   3.902
 9299TIP3    H127833   2.757   7.811   3.813
 9299TIP3    H227834   2.858   7.845   3.920
 9300TIP3   OH227835   7.267   0.189   3.988
 9300TIP3    H127836   7.327   0.117   3.967
 9300TIP3    H227837   7.296   0.261   3.932
 9301TIP3   OH227838   4.606   7.991   3.980
 9301TIP3    H127839   4.536   7.950   4.030
 9301TIP3    H227840   4.686   7.946   4.010
 9302TIP3   OH227841   4.068   7.247   2.551
 9302TIP3    H127842   4.137   7.219   2.610
 9302TIP3    H227843   3.989   7.201   2.581
 9303TIP3   OH227844   4.146   7.530   3.018
 9303TIP3    H127845   4.188   7.445   3.029
 9303TIP3    H227846   4.186   7.566   2.939
 9304TIP3   OH227847   4.271   7.744   3.463
 9304TIP3    H127848   4.343   7.695   3.422
 9304TIP3    H227849   4.208   7.677   3.488
 9305TIP3   OH227850   4.356   7.856   3.768
 9305TIP3    H127851   4.279   7.873   3.822
 9305TIP3    H227852   4.424   7.830   3.831
 9306TIP3   OH227853   3.008   7.542   4.535
 9306TIP3    H127854   3.098   7.541   4.565
 9306TIP3    H227855   2.967   7.468   4.580
 9307TIP3   OH227856   4.825   7.449   4.301
 9307TIP3    H127857   4.890   7.388   4.266
 9307TIP3    H227858   4.796   7.500   4.225
 9308TIP3   OH227859   4.251   7.281   3.072
 9308TIP3    H127860   4.299   7.264   3.153
 9308TIP3    H227861   4.191   7.207   3.064
 9309TIP3   OH227862   2.971   7.246   3.901
 9309TIP3    H127863   3.028   7.169   3.896
 9309TIP3    H227864   3.029   7.319   3.880
 9310TIP3   OH227865   2.741   7.519   3.968
 9310TIP3    H127866   2.794   7.511   3.889
 9310TIP3    H227867   2.759   7.608   3.999
 9311TIP3   OH227868   4.685   7.584   4.108
 9311TIP3    H127869   4.612   7.618   4.160
 9311TIP3    H227870   4.645   7.521   4.048
 9312TIP3   OH227871   4.295   7.197   2.704
 9312TIP3    H127872   4.340   7.136   2.646
 9312TIP3    H227873   4.354   7.271   2.711
 9313TIP3   OH227874   2.731   7.031   3.468
 9313TIP3    H127875   2.645   7.017   3.509
 9313TIP3    H227876   2.711   7.083   3.390
 9314TIP3   OH227877   2.907   7.025   4.314
 9314TIP3    H127878   2.849   7.032   4.390
 9314TIP3    H227879   2.869   7.084   4.249
 9315TIP3   OH227880   4.591   7.319   3.996
 9315TIP3    H127881   4.503   7.298   3.965
 9315TIP3    H227882   4.639   7.236   3.989
 9316TIP3   OH227883   3.799   7.238   3.635
 9316TIP3    H127884   3.763   7.165   3.686
 9316TIP3    H227885   3.870   7.199   3.584
 9317TIP3   OH227886   4.302   7.149   3.530
 9317TIP3    H127887   4.338   7.196   3.455
 9317TIP3    H227888   4.207   7.163   3.524
 9318TIP3   OH227889   4.410   7.231   3.291
 9318TIP3    H127890   4.478   7.169   3.265
 9318TIP3    H227891   4.450   7.317   3.282
 9319TIP3   OH227892   3.031   6.942   3.622
 9319TIP3    H127893   2.941   6.910   3.635
 9319TIP3    H227894   3.083   6.862   3.613
 9320TIP3   OH227895   2.860   6.844   3.294
 9320TIP3    H127896   2.884   6.893   3.216
 9320TIP3    H227897   2.822   6.909   3.353
 9321TIP3   OH227898   3.513   6.980   3.534
 9321TIP3    H127899   3.562   7.023   3.463
 9321TIP3    H227900   3.559   7.006   3.613
 9322TIP3   OH227901   4.018   7.122   3.507
 9322TIP3    H127902   4.027   7.086   3.419
 9322TIP3    H227903   4.021   7.046   3.565
 9323TIP3   OH227904   4.068   7.071   3.074
 9323TIP3    H127905   3.988   7.117   3.100
 9323TIP3    H227906   4.058   6.983   3.112
 9324TIP3   OH227907   2.965   6.971   3.057
 9324TIP3    H127908   3.009   6.910   2.998
 9324TIP3    H227909   3.035   7.026   3.092
 9325TIP3   OH227910   3.446   7.167   3.151
 9325TIP3    H127911   3.508   7.115   3.202
 9325TIP3    H227912   3.460   7.257   3.181
 9326TIP3   OH227913   3.276   7.206   4.535
 9326TIP3    H127914   3.237   7.140   4.592
 9326TIP3    H227915   3.366   7.214   4.565
 9327TIP3   OH227916   3.525   7.223   4.646
 9327TIP3    H127917   3.597   7.222   4.583
 9327TIP3    H227918   3.544   7.151   4.705
 9328TIP3   OH227919   4.336   7.309   4.427
 9328TIP3    H127920   4.351   7.281   4.518
 9328TIP3    H227921   4.423   7.303   4.386
 9329TIP3   OH227922   8.356   0.204   2.690
 9329TIP3    H127923   8.326   0.292   2.670
 9329TIP3    H227924   8.287   0.147   2.657
 9330TIP3   OH227925   8.358   0.203   3.088
 9330TIP3    H127926   8.408   0.193   3.169
 9330TIP3    H227927   8.317   0.118   3.074
 9331TIP3   OH227928   7.663   0.080   3.451
 9331TIP3    H127929   7.698   0.022   3.519
 9331TIP3    H227930   7.737   0.098   3.394
 9332TIP3   OH227931   0.123   0.489   2.749
 9332TIP3    H127932   0.109   0.424   2.818
 9332TIP3    H227933   0.182   0.554   2.789
 9333TIP3   OH227934   7.714   0.413   3.187
 9333TIP3    H127935   7.722   0.322   3.158
 9333TIP3    H227936   7.792   0.455   3.151
 9334TIP3   OH227937   4.498   7.720   2.917
 9334TIP3    H127938   4.454   7.801   2.945
 9334TIP3    H227939   4.429   7.670   2.873
 9335TIP3   OH227940   4.569   8.003   3.143
 9335TIP3    H127941   4.623   7.928   3.169
 9335TIP3    H227942   4.628   8.059   3.093
 9336TIP3   OH227943   8.196   0.433   3.097
 9336TIP3    H127944   8.240   0.354   3.065
 9336TIP3    H227945   8.267   0.487   3.133
 9337TIP3   OH227946   6.363   7.771   3.119
 9337TIP3    H127947   6.377   7.857   3.159
 9337TIP3    H227948   6.391   7.781   3.028
 9338TIP3   OH227949   5.739   7.938   3.139
 9338TIP3    H127950   5.774   7.853   3.167
 9338TIP3    H227951   5.702   7.920   3.053
 9339TIP3   OH227952   5.103   7.592   3.095
 9339TIP3    H127953   5.078   7.664   3.037
 9339TIP3    H227954   5.046   7.520   3.069
 9340TIP3   OH227955   5.793   7.698   2.734
 9340TIP3    H127956   5.857   7.692   2.805
 9340TIP3    H227957   5.843   7.730   2.659
 9341TIP3   OH227958   4.722   7.797   3.246
 9341TIP3    H127959   4.807   7.777   3.286
 9341TIP3    H227960   4.725   7.752   3.162
 9342TIP3   OH227961   5.147   7.998   3.038
 9342TIP3    H127962   5.242   7.983   3.044
 9342TIP3    H227963   5.112   7.916   3.003
 9343TIP3   OH227964   0.747  -0.025   3.293
 9343TIP3    H127965   0.662   0.017   3.279
 9343TIP3    H227966   0.782   0.017   3.372
 9344TIP3   OH227967   5.069   7.604   3.550
 9344TIP3    H127968   5.017   7.631   3.474
 9344TIP3    H227969   5.012   7.620   3.625
 9345TIP3   OH227970   8.252   0.420   2.546
 9345TIP3    H127971   8.234   0.390   2.456
 9345TIP3    H227972   8.332   0.471   2.539
 9346TIP3   OH227973   8.062   0.300   3.295
 9346TIP3    H127974   8.029   0.366   3.356
 9346TIP3    H227975   8.108   0.350   3.228
 9347TIP3   OH227976   5.950   7.720   2.956
 9347TIP3    H127977   5.908   7.698   3.039
 9347TIP3    H227978   6.007   7.794   2.977
 9348TIP3   OH227979   4.979   7.715   3.312
 9348TIP3    H127980   5.043   7.782   3.338
 9348TIP3    H227981   5.023   7.665   3.244
 9349TIP3   OH227982   7.938   0.445   3.488
 9349TIP3    H127983   7.883   0.502   3.435
 9349TIP3    H227984   7.876   0.387   3.533
 9350TIP3   OH227985   7.247   0.131   2.678
 9350TIP3    H127986   7.204   0.183   2.609
 9350TIP3    H227987   7.289   0.196   2.734
 9351TIP3   OH227988   6.165   7.649   3.281
 9351TIP3    H127989   6.080   7.680   3.249
 9351TIP3    H227990   6.228   7.682   3.218
 9352TIP3   OH227991   5.424   7.294   3.278
 9352TIP3    H127992   5.414   7.202   3.303
 9352TIP3    H227993   5.349   7.338   3.319
 9353TIP3   OH227994  -0.002   0.523   2.505
 9353TIP3    H127995   0.046   0.472   2.440
 9353TIP3    H227996   0.049   0.514   2.585
 9354TIP3   OH227997   0.347   0.684   3.243
 9354TIP3    H127998   0.330   0.591   3.227
 9354TIP3    H227999   0.393   0.713   3.165
 9355TIP3   OH228000   8.184   0.052   2.533
 9355TIP3    H128001   8.104   0.100   2.513
 9355TIP3    H228002   8.231   0.048   2.449
 9356TIP3   OH228003   5.329   7.878   2.217
 9356TIP3    H128004   5.393   7.927   2.268
 9356TIP3    H228005   5.380   7.814   2.167
 9357TIP3   OH228006   0.562   0.300   3.142
 9357TIP3    H128007   0.501   0.374   3.140
 9357TIP3    H228008   0.607   0.304   3.057
 9358TIP3   OH228009   0.044   0.135   2.501
 9358TIP3    H128010  -0.009   0.162   2.576
 9358TIP3    H228011   0.128   0.109   2.539
 9359TIP3   OH228012   0.270   0.168   3.431
 9359TIP3    H128013   0.277   0.253   3.474
 9359TIP3    H228014   0.190   0.173   3.379
 9360TIP3   OH228015   7.792   0.118   2.882
 9360TIP3    H128016   7.758   0.053   2.820
 9360TIP3    H228017   7.867   0.075   2.922
 9361TIP3   OH228018   7.934   0.511   3.048
 9361TIP3    H128019   7.947   0.550   2.961
 9361TIP3    H228020   8.022   0.486   3.076
 9362TIP3   OH228021   7.878   0.105   3.259
 9362TIP3    H128022   7.913   0.061   3.181
 9362TIP3    H228023   7.937   0.178   3.275
 9363TIP3   OH228024   8.138   0.611   3.576
 9363TIP3    H128025   8.089   0.693   3.581
 9363TIP3    H228026   8.075   0.547   3.543
 9364TIP3   OH228027   8.373   0.008   2.329
 9364TIP3    H128028   8.433   0.060   2.382
 9364TIP3    H228029   8.405   0.017   2.240
 9365TIP3   OH228030   7.816   0.262   3.674
 9365TIP3    H128031   7.816   0.325   3.746
 9365TIP3    H228032   7.733   0.214   3.685
 9366TIP3   OH228033   6.053   7.249   2.376
 9366TIP3    H128034   5.976   7.270   2.429
 9366TIP3    H228035   6.064   7.326   2.319
 9367TIP3   OH228036   4.843   7.959   2.697
 9367TIP3    H128037   4.768   7.999   2.654
 9367TIP3    H228038   4.817   7.868   2.712
 9368TIP3   OH228039   7.465   0.318   3.618
 9368TIP3    H128040   7.411   0.283   3.547
 9368TIP3    H228041   7.505   0.240   3.656
 9369TIP3   OH228042   0.517   0.140   3.601
 9369TIP3    H128043   0.437   0.150   3.549
 9369TIP3    H228044   0.537   0.047   3.596
 9370TIP3   OH228045   7.631   0.519   3.534
 9370TIP3    H128046   7.596   0.579   3.599
 9370TIP3    H228047   7.584   0.437   3.548
 9371TIP3   OH228048   5.195   7.393   3.409
 9371TIP3    H128049   5.116   7.353   3.374
 9371TIP3    H228050   5.164   7.473   3.453
 9372TIP3   OH228051   5.721   7.505   3.606
 9372TIP3    H128052   5.791   7.482   3.667
 9372TIP3    H228053   5.640   7.489   3.655
 9373TIP3   OH228054   5.942   7.919   3.518
 9373TIP3    H128055   5.904   7.916   3.606
 9373TIP3    H228056   5.930   8.009   3.490
 9374TIP3   OH228057   8.466   0.015   2.077
 9374TIP3    H128058   8.421  -0.005   1.995
 9374TIP3    H228059   8.543   0.066   2.051
 9375TIP3   OH228060   5.330   7.427   2.374
 9375TIP3    H128061   5.294   7.434   2.463
 9375TIP3    H228062   5.295   7.345   2.340
 9376TIP3   OH228063   5.137   7.915   3.419
 9376TIP3    H128064   5.084   7.918   3.499
 9376TIP3    H228065   5.109   7.991   3.369
 9377TIP3   OH228066   5.000   7.789   2.936
 9377TIP3    H128067   4.911   7.767   2.963
 9377TIP3    H228068   5.007   7.756   2.846
 9378TIP3   OH228069   5.481   7.862   2.663
 9378TIP3    H128070   5.434   7.935   2.622
 9378TIP3    H228071   5.541   7.832   2.595
 9379TIP3   OH228072   0.007   0.117   3.730
 9379TIP3    H128073  -0.019   0.050   3.793
 9379TIP3    H228074   0.100   0.133   3.748
 9380TIP3   OH228075   5.645   7.880   2.889
 9380TIP3    H128076   5.579   7.902   2.824
 9380TIP3    H228077   5.694   7.807   2.850
 9381TIP3   OH228078   4.963   7.929   3.635
 9381TIP3    H128079   5.030   7.970   3.690
 9381TIP3    H228080   4.939   7.850   3.682
 9382TIP3   OH228081   4.996   7.408   2.349
 9382TIP3    H128082   4.986   7.411   2.445
 9382TIP3    H228083   4.918   7.452   2.316
 9383TIP3   OH228084   4.537   7.467   3.258
 9383TIP3    H128085   4.549   7.490   3.350
 9383TIP3    H228086   4.622   7.485   3.218
 9384TIP3   OH228087   4.455   7.425   2.725
 9384TIP3    H128088   4.499   7.457   2.646
 9384TIP3    H228089   4.391   7.492   2.747
 9385TIP3   OH228090   0.012   0.122   3.312
 9385TIP3    H128091   0.042   0.060   3.245
 9385TIP3    H228092  -0.019   0.067   3.384
 9386TIP3   OH228093   5.367   7.585   2.985
 9386TIP3    H128094   5.289   7.583   3.040
 9386TIP3    H228095   5.440   7.576   3.046
 9387TIP3   OH228096   4.757   7.673   3.002
 9387TIP3    H128097   4.670   7.677   2.962
 9387TIP3    H228098   4.787   7.584   2.984
 9388TIP3   OH228099   5.009   7.672   2.689
 9388TIP3    H128100   5.104   7.682   2.680
 9388TIP3    H228101   4.975   7.689   2.601
 9389TIP3   OH228102   5.808   7.675   3.194
 9389TIP3    H128103   5.788   7.691   3.286
 9389TIP3    H228104   5.740   7.613   3.165
 9390TIP3   OH228105   4.895   7.697   2.442
 9390TIP3    H128106   4.832   7.648   2.389
 9390TIP3    H228107   4.953   7.738   2.378
 9391TIP3   OH228108   7.810   0.452   3.875
 9391TIP3    H128109   7.885   0.467   3.933
 9391TIP3    H228110   7.734   0.451   3.934
 9392TIP3   OH228111   5.417   7.948   3.089
 9392TIP3    H128112   5.485   7.901   3.039
 9392TIP3    H228113   5.419   7.906   3.175
 9393TIP3   OH228114   4.900   7.427   2.980
 9393TIP3    H128115   4.870   7.352   3.032
 9393TIP3    H228116   4.926   7.389   2.896
 9394TIP3   OH228117   5.396   7.853   3.354
 9394TIP3    H128118   5.309   7.884   3.381
 9394TIP3    H228119   5.457   7.901   3.410
 9395TIP3   OH228120   7.953   0.197   2.477
 9395TIP3    H128121   7.882   0.140   2.449
 9395TIP3    H228122   7.919   0.243   2.553
 9396TIP3   OH228123   0.300   0.440   3.121
 9396TIP3    H128124   0.361   0.484   3.062
 9396TIP3    H228125   0.239   0.395   3.062
 9397TIP3   OH228126   5.585   7.525   2.379
 9397TIP3    H128127   5.492   7.506   2.373
 9397TIP3    H228128   5.590   7.621   2.388
 9398TIP3   OH228129   8.396   0.545   3.499
 9398TIP3    H128130   8.435   0.517   3.581
 9398TIP3    H228131   8.307   0.573   3.522
 9399TIP3   OH228132   5.646   7.789   2.447
 9399TIP3    H128133   5.741   7.794   2.457
 9399TIP3    H228134   5.624   7.866   2.394
 9400TIP3   OH228135   7.643   0.145   3.111
 9400TIP3    H128136   7.681   0.141   3.023
 9400TIP3    H228137   7.711   0.111   3.168
 9401TIP3   OH228138   8.093   0.366   2.314
 9401TIP3    H128139   8.069   0.450   2.352
 9401TIP3    H228140   8.045   0.302   2.366
 9402TIP3   OH228141   7.580   0.132   3.789
 9402TIP3    H128142   7.646   0.134   3.858
 9402TIP3    H228143   7.523   0.059   3.812
 9403TIP3   OH228144   8.276   0.266   3.778
 9403TIP3    H128145   8.215   0.228   3.715
 9403TIP3    H228146   8.361   0.230   3.753
 9404TIP3   OH228147   6.056   7.879   2.261
 9404TIP3    H128148   6.000   7.831   2.200
 9404TIP3    H228149   6.059   7.968   2.227
 9405TIP3   OH228150   0.639   0.673   3.293
 9405TIP3    H128151   0.557   0.720   3.310
 9405TIP3    H228152   0.635   0.650   3.200
 9406TIP3   OH228153   0.105   0.308   2.965
 9406TIP3    H128154   0.016   0.285   2.992
 9406TIP3    H228155   0.142   0.226   2.934
 9407TIP3   OH228156   4.503   7.833   2.486
 9407TIP3    H128157   4.559   7.909   2.504
 9407TIP3    H228158   4.426   7.846   2.541
 9408TIP3   OH228159   7.841   0.316   2.697
 9408TIP3    H128160   7.852   0.396   2.748
 9408TIP3    H228161   7.821   0.249   2.761
 9409TIP3   OH228162   8.422   0.522   3.223
 9409TIP3    H128163   8.415   0.526   3.318
 9409TIP3    H228164   8.513   0.498   3.206
 9410TIP3   OH228165   8.427   0.374   2.065
 9410TIP3    H128166   8.474   0.359   2.147
 9410TIP3    H228167   8.334   0.373   2.089
 9411TIP3   OH228168   4.904   7.689   3.766
 9411TIP3    H128169   4.809   7.697   3.776
 9411TIP3    H228170   4.931   7.631   3.837
 9412TIP3   OH228171   0.062   0.323   2.301
 9412TIP3    H128172   0.051   0.257   2.369
 9412TIP3    H228173   0.157   0.327   2.287
 9413TIP3   OH228174   7.728   0.326   2.178
 9413TIP3    H128175   7.722   0.241   2.135
 9413TIP3    H228176   7.816   0.357   2.158
 9414TIP3   OH228177   7.471   0.052   2.553
 9414TIP3    H128178   7.393   0.077   2.602
 9414TIP3    H228179   7.493   0.130   2.502
 9415TIP3   OH228180   5.748   7.734   3.456
 9415TIP3    H128181   5.828   7.778   3.485
 9415TIP3    H228182   5.741   7.657   3.512
 9416TIP3   OH228183   5.644   7.479   2.646
 9416TIP3    H128184   5.624   7.497   2.555
 9416TIP3    H228185   5.688   7.559   2.677
 9417TIP3   OH228186   5.289   7.679   2.735
 9417TIP3    H128187   5.353   7.744   2.707
 9417TIP3    H228188   5.314   7.657   2.825
 9418TIP3   OH228189   5.596   7.967   3.511
 9418TIP3    H128190   5.625   8.009   3.592
 9418TIP3    H228191   5.645   7.886   3.506
 9419TIP3   OH228192   5.457   7.375   2.820
 9419TIP3    H128193   5.435   7.452   2.872
 9419TIP3    H228194   5.527   7.404   2.762
 9420TIP3   OH228195   4.968   7.398   2.628
 9420TIP3    H128196   4.957   7.489   2.657
 9420TIP3    H228197   5.063   7.383   2.634
 9421TIP3   OH228198   6.212   7.887   3.510
 9421TIP3    H128199   6.116   7.881   3.515
 9421TIP3    H228200   6.232   7.862   3.420
 9422TIP3   OH228201   0.204   0.055   2.891
 9422TIP3    H128202   0.129  -0.003   2.904
 9422TIP3    H228203   0.272   0.019   2.947
 9423TIP3   OH228204   7.474   0.288   2.364
 9423TIP3    H128205   7.554   0.339   2.350
 9423TIP3    H228206   7.487   0.209   2.311
 9424TIP3   OH228207   4.517   7.558   2.496
 9424TIP3    H128208   4.530   7.653   2.500
 9424TIP3    H228209   4.466   7.544   2.417
 9425TIP3   OH228210   4.952   7.285   3.353
 9425TIP3    H128211   4.904   7.265   3.272
 9425TIP3    H228212   4.921   7.219   3.416
 9426TIP3   OH228213   7.577   0.367   4.008
 9426TIP3    H128214   7.634   0.291   3.997
 9426TIP3    H228215   7.514   0.360   3.937
 9427TIP3   OH228216   7.557   0.059   2.244
 9427TIP3    H128217   7.613   0.033   2.317
 9427TIP3    H228218   7.616   0.065   2.169
 9428TIP3   OH228219   8.205   0.535   3.830
 9428TIP3    H128220   8.188   0.565   3.741
 9428TIP3    H228221   8.245   0.449   3.819
 9429TIP3   OH228222   7.995   0.289   2.065
 9429TIP3    H128223   8.045   0.313   2.144
 9429TIP3    H228224   8.032   0.205   2.038
 9430TIP3   OH228225   0.169   0.587   3.437
 9430TIP3    H128226   0.213   0.646   3.375
 9430TIP3    H228227   0.078   0.615   3.436
 9431TIP3   OH228228   7.761   0.155   3.997
 9431TIP3    H128229   7.842   0.105   3.982
 9431TIP3    H228230   7.771   0.191   4.085
 9432TIP3   OH228231   4.924   8.021   2.429
 9432TIP3    H128232   4.910   7.983   2.515
 9432TIP3    H228233   4.973   7.954   2.381
 9433TIP3   OH228234   8.027   0.082   3.671
 9433TIP3    H128235   7.961   0.152   3.672
 9433TIP3    H228236   8.087   0.107   3.601
 9434TIP3   OH228237   5.059   7.838   2.273
 9434TIP3    H128238   5.028   7.837   2.182
 9434TIP3    H228239   5.154   7.846   2.266
 9435TIP3   OH228240   0.043   0.472   3.755
 9435TIP3    H128241   0.126   0.448   3.712
 9435TIP3    H228242   0.038   0.413   3.831
 9436TIP3   OH228243   0.178   0.140   1.949
 9436TIP3    H128244   0.158   0.090   1.870
 9436TIP3    H228245   0.162   0.231   1.924
 9437TIP3   OH228246   5.325   7.885   3.790
 9437TIP3    H128247   5.331   7.811   3.728
 9437TIP3    H228248   5.287   7.956   3.738
 9438TIP3   OH228249   5.330   7.686   3.587
 9438TIP3    H128250   5.361   7.716   3.502
 9438TIP3    H228251   5.239   7.660   3.572
 9439TIP3   OH228252   8.207   0.175   3.492
 9439TIP3    H128253   8.299   0.168   3.466
 9439TIP3    H228254   8.165   0.217   3.417
 9440TIP3   OH228255   0.272   0.152   3.832
 9440TIP3    H128256   0.322   0.071   3.837
 9440TIP3    H228257   0.338   0.221   3.821
 9441TIP3   OH228258   0.316   0.406   3.565
 9441TIP3    H128259   0.258   0.469   3.523
 9441TIP3    H228260   0.402   0.422   3.527
 9442TIP3   OH228261   5.193   7.978   4.020
 9442TIP3    H128262   5.140   7.902   4.047
 9442TIP3    H228263   5.235   7.951   3.939
 9443TIP3   OH228264   5.454   7.455   3.688
 9443TIP3    H128265   5.413   7.535   3.654
 9443TIP3    H228266   5.388   7.387   3.675
 9444TIP3   OH228267   5.585   7.925   3.888
 9444TIP3    H128268   5.576   7.914   3.983
 9444TIP3    H228269   5.498   7.904   3.854
 9445TIP3   OH228270   5.829   7.874   3.759
 9445TIP3    H128271   5.751   7.875   3.814
 9445TIP3    H228272   5.901   7.854   3.818
 9446TIP3   OH228273   6.060   7.841   3.911
 9446TIP3    H128274   6.077   7.747   3.918
 9446TIP3    H228275   6.058   7.872   4.002
 9447TIP3   OH228276   5.064   7.742   4.092
 9447TIP3    H128277   5.064   7.654   4.054
 9447TIP3    H228278   5.101   7.729   4.179
 9448TIP3   OH228279   5.524   7.432   3.952
 9448TIP3    H128280   5.593   7.367   3.945
 9448TIP3    H228281   5.493   7.444   3.862
 9449TIP3   OH228282   5.612   7.649   4.098
 9449TIP3    H128283   5.585   7.576   4.042
 9449TIP3    H228284   5.539   7.710   4.095
 9450TIP3   OH228285   7.182   0.214   2.390
 9450TIP3    H128286   7.273   0.235   2.369
 9450TIP3    H228287   7.166   0.130   2.348
 9451TIP3   OH228288   0.547   0.838   3.645
 9451TIP3    H128289   0.457   0.842   3.679
 9451TIP3    H228290   0.579   0.928   3.651
 9452TIP3   OH228291   0.334   0.319   2.291
 9452TIP3    H128292   0.398   0.379   2.253
 9452TIP3    H228293   0.381   0.278   2.364
 9453TIP3   OH228294   0.467   0.178   2.481
 9453TIP3    H128295   0.405   0.141   2.545
 9453TIP3    H228296   0.538   0.213   2.535
 9454TIP3   OH228297   0.384   0.105   2.127
 9454TIP3    H128298   0.315   0.109   2.060
 9454TIP3    H228299   0.365   0.179   2.184
 9455TIP3   OH228300   5.909   7.763   2.065
 9455TIP3    H128301   5.852   7.800   1.997
 9455TIP3    H228302   5.903   7.669   2.053
 9456TIP3   OH228303   0.273   0.042   2.625
 9456TIP3    H128304   0.282  -0.053   2.613
 9456TIP3    H228305   0.256   0.052   2.719
 9457TIP3   OH228306   7.406   0.126   3.378
 9457TIP3    H128307   7.394   0.074   3.298
 9457TIP3    H228308   7.496   0.106   3.405
 9458TIP3   OH228309   0.559   0.463   3.454
 9458TIP3    H128310   0.628   0.397   3.450
 9458TIP3    H228311   0.585   0.529   3.390
 9459TIP3   OH228312   0.737   0.259   3.490
 9459TIP3    H128313   0.661   0.220   3.533
 9459TIP3    H228314   0.809   0.200   3.511
 9460TIP3   OH228315   5.875   7.491   2.031
 9460TIP3    H128316   5.936   7.469   2.101
 9460TIP3    H228317   5.791   7.457   2.062
 9461TIP3   OH228318   5.935   7.785   2.503
 9461TIP3    H128319   5.981   7.702   2.515
 9461TIP3    H228320   5.976   7.825   2.427
 9462TIP3   OH228321   6.085   7.951   3.031
 9462TIP3    H128322   6.164   7.972   2.981
 9462TIP3    H228323   6.099   7.991   3.117
 9463TIP3   OH228324   0.485   0.075   3.265
 9463TIP3    H128325   0.410   0.103   3.318
 9463TIP3    H228326   0.514   0.155   3.220
 9464TIP3   OH228327   4.808   7.837   4.088
 9464TIP3    H128328   4.900   7.813   4.084
 9464TIP3    H228329   4.761   7.754   4.093
 9465TIP3   OH228330   6.612   7.702   3.788
 9465TIP3    H128331   6.684   7.647   3.756
 9465TIP3    H228332   6.582   7.750   3.711
 9466TIP3   OH228333   6.051   7.536   2.554
 9466TIP3    H128334   6.095   7.522   2.638
 9466TIP3    H228335   5.988   7.465   2.547
 9467TIP3   OH228336   4.547   7.815   3.475
 9467TIP3    H128337   4.561   7.724   3.501
 9467TIP3    H228338   4.605   7.827   3.400
 9468TIP3   OH228339   6.470   7.816   3.586
 9468TIP3    H128340   6.386   7.857   3.608
 9468TIP3    H228341   6.446   7.737   3.538
 9469TIP3   OH228342   6.094   7.451   2.195
 9469TIP3    H128343   6.141   7.391   2.137
 9469TIP3    H228344   6.151   7.528   2.201
 9470TIP3   OH228345   4.519   7.259   2.932
 9470TIP3    H128346   4.439   7.264   2.986
 9470TIP3    H228347   4.509   7.328   2.867
 9471TIP3   OH228348   4.738   7.371   3.741
 9471TIP3    H128349   4.683   7.371   3.820
 9471TIP3    H228350   4.683   7.409   3.673
 9472TIP3   OH228351   6.382   7.571   3.486
 9472TIP3    H128352   6.297   7.568   3.443
 9472TIP3    H228353   6.415   7.481   3.481
 9473TIP3   OH228354   5.591   7.494   3.127
 9473TIP3    H128355   5.551   7.422   3.176
 9473TIP3    H228356   5.660   7.452   3.074
 9474TIP3   OH228357   6.095   7.407   3.014
 9474TIP3    H128358   6.132   7.457   2.941
 9474TIP3    H228359   6.003   7.433   3.017
 9475TIP3   OH228360   6.207   7.486   2.777
 9475TIP3    H128361   6.277   7.426   2.750
 9475TIP3    H228362   6.244   7.573   2.762
 9476TIP3   OH228363   4.823   7.200   3.121
 9476TIP3    H128364   4.734   7.167   3.131
 9476TIP3    H228365   4.877   7.121   3.116
 9477TIP3   OH228366   4.637   7.078   2.756
 9477TIP3    H128367   4.671   7.133   2.685
 9477TIP3    H228368   4.602   7.141   2.820
 9478TIP3   OH228369   5.310   7.234   3.019
 9478TIP3    H128370   5.358   7.280   2.949
 9478TIP3    H228371   5.352   7.264   3.100
 9479TIP3   OH228372   5.805   7.377   2.995
 9479TIP3    H128373   5.822   7.343   2.908
 9479TIP3    H228374   5.811   7.301   3.053
 9480TIP3   OH228375   5.864   7.329   2.561
 9480TIP3    H128376   5.784   7.376   2.586
 9480TIP3    H228377   5.853   7.242   2.600
 9481TIP3   OH228378   4.759   7.227   2.539
 9481TIP3    H128379   4.806   7.169   2.480
 9481TIP3    H228380   4.827   7.284   2.575
 9482TIP3   OH228381   5.243   7.427   2.638
 9482TIP3    H128382   5.304   7.375   2.691
 9482TIP3    H228383   5.258   7.517   2.667
 9483TIP3   OH228384   5.060   7.472   4.004
 9483TIP3    H128385   5.024   7.407   4.064
 9483TIP3    H228386   5.152   7.478   4.026
 9484TIP3   OH228387   5.307   7.480   4.128
 9484TIP3    H128388   5.385   7.460   4.076
 9484TIP3    H228389   5.303   7.410   4.193
 9485TIP3   OH228390   6.129   7.572   3.918
 9485TIP3    H128391   6.146   7.542   4.007
 9485TIP3    H228392   6.213   7.567   3.874
 9486TIP3   OH228393   0.984   0.375   2.891
 9486TIP3    H128394   1.012   0.387   2.981
 9486TIP3    H228395   0.985   0.463   2.853
 9487TIP3   OH228396   6.290   7.979   2.386
 9487TIP3    H128397   6.252   8.059   2.422
 9487TIP3    H228398   6.215   7.931   2.350
 9488TIP3   OH228399   0.703   0.249   2.596
 9488TIP3    H128400   0.739   0.180   2.651
 9488TIP3    H228401   0.769   0.318   2.598
 9489TIP3   OH228402   6.846   7.870   2.586
 9489TIP3    H128403   6.833   7.942   2.525
 9489TIP3    H228404   6.795   7.798   2.550
 9490TIP3   OH228405   0.837   0.035   2.708
 9490TIP3    H128406   0.920   0.022   2.754
 9490TIP3    H228407   0.847  -0.012   2.625
 9491TIP3   OH228408   6.843   7.841   3.052
 9491TIP3    H128409   6.794   7.878   2.979
 9491TIP3    H228410   6.790   7.861   3.129
 9492TIP3   OH228411   6.743   7.959   2.823
 9492TIP3    H128412   6.801   8.030   2.850
 9492TIP3    H228413   6.783   7.923   2.744
 9493TIP3   OH228414   0.519   0.471   2.160
 9493TIP3    H128415   0.506   0.461   2.065
 9493TIP3    H228416   0.545   0.562   2.171
 9494TIP3   OH228417   7.195   7.532   2.798
 9494TIP3    H128418   7.183   7.441   2.824
 9494TIP3    H228419   7.117   7.577   2.829
 9495TIP3   OH228420   1.047   0.431   3.150
 9495TIP3    H128421   1.088   0.456   3.233
 9495TIP3    H228422   0.955   0.418   3.172
 9496TIP3   OH228423   0.855   0.165   2.140
 9496TIP3    H128424   0.889   0.254   2.149
 9496TIP3    H228425   0.829   0.140   2.228
 9497TIP3   OH228426   6.956   7.639   2.898
 9497TIP3    H128427   6.874   7.608   2.860
 9497TIP3    H228428   6.931   7.716   2.949
 9498TIP3   OH228429   7.491   7.698   3.103
 9498TIP3    H128430   7.515   7.790   3.117
 9498TIP3    H228431   7.398   7.695   3.124
 9499TIP3   OH228432   1.249   0.135   2.922
 9499TIP3    H128433   1.213   0.145   3.010
 9499TIP3    H228434   1.237   0.221   2.881
 9500TIP3   OH228435   1.097   0.036   2.394
 9500TIP3    H128436   1.012  -0.001   2.418
 9500TIP3    H228437   1.104   0.022   2.300
 9501TIP3   OH228438   1.139   0.158   3.171
 9501TIP3    H128439   1.087   0.238   3.180
 9501TIP3    H228440   1.084   0.090   3.209
 9502TIP3   OH228441   6.765   7.588   1.851
 9502TIP3    H128442   6.745   7.630   1.934
 9502TIP3    H228443   6.733   7.650   1.785
 9503TIP3   OH228444   6.334   7.708   2.697
 9503TIP3    H128445   6.403   7.744   2.753
 9503TIP3    H228446   6.379   7.686   2.615
 9504TIP3   OH228447   6.248   7.682   2.212
 9504TIP3    H128448   6.293   7.714   2.134
 9504TIP3    H228449   6.184   7.750   2.233
 9505TIP3   OH228450   7.100   7.774   2.527
 9505TIP3    H128451   7.014   7.810   2.550
 9505TIP3    H228452   7.159   7.807   2.594
 9506TIP3   OH228453   6.542   7.912   2.470
 9506TIP3    H128454   6.452   7.919   2.436
 9506TIP3    H228455   6.566   7.821   2.456
 9507TIP3   OH228456   6.629   7.922   1.998
 9507TIP3    H128457   6.564   7.895   1.932
 9507TIP3    H228458   6.599   8.009   2.027
 9508TIP3   OH228459   6.692   7.673   2.461
 9508TIP3    H128460   6.668   7.595   2.511
 9508TIP3    H228461   6.728   7.639   2.379
 9509TIP3   OH228462   0.808   0.365   3.247
 9509TIP3    H128463   0.797   0.330   3.336
 9509TIP3    H228464   0.723   0.352   3.206
 9510TIP3   OH228465   0.628   0.077   2.002
 9510TIP3    H128466   0.698   0.124   2.046
 9510TIP3    H228467   0.548   0.100   2.050
 9511TIP3   OH228468   6.686   7.923   3.263
 9511TIP3    H128469   6.592   7.940   3.265
 9511TIP3    H228470   6.699   7.854   3.328
 9512TIP3   OH228471   6.716   7.679   2.109
 9512TIP3    H128472   6.700   7.771   2.089
 9512TIP3    H228473   6.809   7.675   2.132
 9513TIP3   OH228474   6.308   7.817   1.984
 9513TIP3    H128475   6.303   7.912   1.996
 9513TIP3    H228476   6.233   7.796   1.928
 9514TIP3   OH228477   6.698   7.553   2.849
 9514TIP3    H128478   6.674   7.519   2.763
 9514TIP3    H228479   6.693   7.477   2.907
 9515TIP3   OH228480   0.874   0.682   3.444
 9515TIP3    H128481   0.920   0.605   3.411
 9515TIP3    H228482   0.794   0.687   3.391
 9516TIP3   OH228483   1.084   0.436   3.421
 9516TIP3    H128484   1.156   0.379   3.445
 9516TIP3    H228485   1.044   0.460   3.504
 9517TIP3   OH228486   1.399   0.158   3.261
 9517TIP3    H128487   1.437   0.078   3.224
 9517TIP3    H228488   1.311   0.161   3.223
 9518TIP3   OH228489   7.092   7.948   3.076
 9518TIP3    H128490   7.087   8.012   3.006
 9518TIP3    H228491   7.005   7.907   3.078
 9519TIP3   OH228492   1.289   0.255   3.493
 9519TIP3    H128493   1.244   0.174   3.519
 9519TIP3    H228494   1.336   0.231   3.413
 9520TIP3   OH228495   7.223   7.711   3.161
 9520TIP3    H128496   7.180   7.792   3.132
 9520TIP3    H228497   7.156   7.643   3.151
 9521TIP3   OH228498   6.840   8.017   3.544
 9521TIP3    H128499   6.851   7.946   3.481
 9521TIP3    H228500   6.868   7.980   3.628
 9522TIP3   OH228501   7.320   7.683   3.417
 9522TIP3    H128502   7.383   7.612   3.406
 9522TIP3    H228503   7.281   7.694   3.330
 9523TIP3   OH228504   7.421   7.903   3.548
 9523TIP3    H128505   7.385   7.833   3.495
 9523TIP3    H228506   7.351   7.968   3.554
 9524TIP3   OH228507   0.481   0.460   1.888
 9524TIP3    H128508   0.464   0.522   1.817
 9524TIP3    H228509   0.474   0.374   1.846
 9525TIP3   OH228510   0.710   0.302   2.909
 9525TIP3    H128511   0.669   0.386   2.887
 9525TIP3    H228512   0.804   0.319   2.902
 9526TIP3   OH228513   0.905   0.050   3.526
 9526TIP3    H128514   1.000   0.045   3.527
 9526TIP3    H228515   0.876  -0.035   3.560
 9527TIP3   OH228516   6.534   7.775   2.879
 9527TIP3    H128517   6.590   7.697   2.879
 9527TIP3    H228518   6.595   7.847   2.864
 9528TIP3   OH228519   0.653   0.028   2.919
 9528TIP3    H128520   0.706   0.004   2.844
 9528TIP3    H228521   0.664   0.122   2.928
 9529TIP3   OH228522   6.320   7.548   2.437
 9529TIP3    H128523   6.234   7.537   2.477
 9529TIP3    H228524   6.305   7.602   2.360
 9530TIP3   OH228525   6.543   7.611   3.257
 9530TIP3    H128526   6.492   7.604   3.337
 9530TIP3    H228527   6.487   7.660   3.196
 9531TIP3   OH228528   6.625   7.446   2.606
 9531TIP3    H128529   6.536   7.412   2.616
 9531TIP3    H228530   6.680   7.368   2.599
 9532TIP3   OH228531   6.422   7.345   2.263
 9532TIP3    H128532   6.456   7.393   2.187
 9532TIP3    H228533   6.396   7.414   2.325
 9533TIP3   OH228534   7.089   7.494   2.538
 9533TIP3    H128535   7.087   7.581   2.498
 9533TIP3    H228536   7.138   7.507   2.620
 9534TIP3   OH228537   6.536   7.478   2.041
 9534TIP3    H128538   6.589   7.425   1.981
 9534TIP3    H228539   6.597   7.544   2.074
 9535TIP3   OH228540   6.982   7.632   2.167
 9535TIP3    H128541   7.002   7.539   2.155
 9535TIP3    H228542   7.066   7.672   2.190
 9536TIP3   OH228543   6.853   7.730   3.474
 9536TIP3    H128544   6.815   7.676   3.544
 9536TIP3    H228545   6.945   7.738   3.498
 9537TIP3   OH228546   7.104   7.714   3.594
 9537TIP3    H128547   7.184   7.705   3.542
 9537TIP3    H228548   7.111   7.645   3.660
 9538TIP3   OH228549   5.105   4.883   0.598
 9538TIP3    H128550   5.062   4.883   0.683
 9538TIP3    H228551   5.166   4.956   0.601
 9539TIP3   OH228552   4.756   5.391   0.643
 9539TIP3    H128553   4.791   5.312   0.601
 9539TIP3    H228554   4.716   5.359   0.724
 9540TIP3   OH228555   4.732   4.875   0.330
 9540TIP3    H128556   4.823   4.902   0.340
 9540TIP3    H228557   4.683   4.932   0.389
 9541TIP3   OH228558   4.864   5.208   0.460
 9541TIP3    H128559   4.915   5.132   0.429
 9541TIP3    H228560   4.893   5.280   0.404
 9542TIP3   OH228561   4.982   4.968   0.370
 9542TIP3    H128562   5.033   4.931   0.298
 9542TIP3    H228563   5.025   4.935   0.449
 9543TIP3   OH228564   4.993   4.578   0.401
 9543TIP3    H128565   4.943   4.630   0.464
 9543TIP3    H228566   5.077   4.562   0.444
 9544TIP3   OH228567   4.622   5.071   0.486
 9544TIP3    H128568   4.704   5.109   0.517
 9544TIP3    H228569   4.578   5.040   0.565
 9545TIP3   OH228570   2.392   1.045   6.664
 9545TIP3    H128571   2.389   1.140   6.649
 9545TIP3    H228572   2.479   1.018   6.636
 9546TIP3   OH228573   4.601   5.396   0.123
 9546TIP3    H128574   4.542   5.390   0.048
 9546TIP3    H228575   4.552   5.445   0.189
 9547TIP3   OH228576   1.869   1.252   6.758
 9547TIP3    H128577   1.915   1.176   6.720
 9547TIP3    H228578   1.927   1.282   6.828
 9548TIP3   OH228579   4.857   5.328   0.032
 9548TIP3    H128580   4.774   5.310   0.076
 9548TIP3    H228581   4.917   5.262   0.066
 9549TIP3   OH228582   2.104   0.458   6.812
 9549TIP3    H128583   2.067   0.426   6.730
 9549TIP3    H228584   2.192   0.489   6.788
 9550TIP3   OH228585   4.673   4.869   0.015
 9550TIP3    H128586   4.718   4.939   0.062
 9550TIP3    H228587   4.674   4.795   0.076
 9551TIP3   OH228588   2.642   0.279   6.905
 9551TIP3    H128589   2.560   0.238   6.879
 9551TIP3    H228590   2.621   0.372   6.913
 9552TIP3   OH228591   2.308   1.093   6.923
 9552TIP3    H128592   2.282   1.013   6.969
 9552TIP3    H228593   2.337   1.063   6.837
 9553TIP3   OH228594   2.084   0.868   6.834
 9553TIP3    H128595   2.137   0.871   6.914
 9553TIP3    H228596   1.994   0.862   6.865
 9554TIP3   OH228597   2.401   1.319   6.640
 9554TIP3    H128598   2.459   1.389   6.610
 9554TIP3    H228599   2.320   1.364   6.665
 9555TIP3   OH228600   5.073   4.852   0.124
 9555TIP3    H128601   5.017   4.774   0.127
 9555TIP3    H228602   5.159   4.819   0.101
 9556TIP3   OH228603   4.382   5.098   0.010
 9556TIP3    H128604   4.428   5.098   0.094
 9556TIP3    H228605   4.393   5.188  -0.023
 9557TIP3   OH228606   5.179   5.483   0.737
 9557TIP3    H128607   5.199   5.524   0.653
 9557TIP3    H228608   5.228   5.401   0.735
 9558TIP3   OH228609   1.590   0.972   6.707
 9558TIP3    H128610   1.582   1.000   6.799
 9558TIP3    H228611   1.677   0.931   6.703
 9559TIP3   OH228612   2.029   1.062   6.652
 9559TIP3    H128613   2.077   1.011   6.716
 9559TIP3    H228614   2.087   1.064   6.575
 9560TIP3   OH228615   2.344   0.542   6.696
 9560TIP3    H128616   2.340   0.508   6.607
 9560TIP3    H228617   2.324   0.636   6.686
 9561TIP3   OH228618   1.300   1.310   6.921
 9561TIP3    H128619   1.381   1.314   6.972
 9561TIP3    H228620   1.323   1.351   6.837
 9562TIP3   OH228621   5.451   5.604   0.680
 9562TIP3    H128622   5.527   5.642   0.726
 9562TIP3    H228623   5.455   5.641   0.592
 9563TIP3   OH228624   5.332   4.803   0.055
 9563TIP3    H128625   5.392   4.872   0.024
 9563TIP3    H228626   5.381   4.758   0.123
 9564TIP3   OH228627   5.462   4.689   0.262
 9564TIP3    H128628   5.379   4.712   0.304
 9564TIP3    H228629   5.528   4.738   0.312
 9565TIP3   OH228630   5.438   4.982   0.762
 9565TIP3    H128631   5.484   4.899   0.747
 9565TIP3    H228632   5.384   4.994   0.684
 9566TIP3   OH228633   2.561   0.549   6.865
 9566TIP3    H128634   2.491   0.536   6.801
 9566TIP3    H228635   2.535   0.626   6.915
 9567TIP3   OH228636   2.399   0.209   6.805
 9567TIP3    H128637   2.366   0.297   6.784
 9567TIP3    H228638   2.352   0.151   6.744
 9568TIP3   OH228639   5.234   4.466   0.462
 9568TIP3    H128640   5.312   4.440   0.413
 9568TIP3    H228641   5.263   4.472   0.553
 9569TIP3   OH228642   5.080   5.508   0.213
 9569TIP3    H128643   5.116   5.452   0.144
 9569TIP3    H228644   5.127   5.482   0.292
 9570TIP3   OH228645   1.616   1.332   6.831
 9570TIP3    H128646   1.699   1.301   6.793
 9570TIP3    H228647   1.564   1.357   6.755
 9571TIP3   OH228648   2.354   1.363   6.942
 9571TIP3    H128649   2.338   1.269   6.943
 9571TIP3    H228650   2.301   1.396   6.869
 9572TIP3   OH228651   3.810   0.882   6.960
 9572TIP3    H128652   3.796   0.973   6.935
 9572TIP3    H228653   3.745   0.833   6.909
 9573TIP3   OH228654   6.683   4.935   0.298
 9573TIP3    H128655   6.693   4.862   0.358
 9573TIP3    H228656   6.672   4.894   0.212
 9574TIP3   OH228657   5.879   4.852   0.783
 9574TIP3    H128658   5.870   4.903   0.864
 9574TIP3    H228659   5.940   4.782   0.806
 9575TIP3   OH228660   6.937   5.231   0.044
 9575TIP3    H128661   6.937   5.162   0.110
 9575TIP3    H228662   6.959   5.311   0.093
 9576TIP3   OH228663   5.995   5.264   0.438
 9576TIP3    H128664   5.937   5.204   0.391
 9576TIP3    H228665   6.080   5.254   0.396
 9577TIP3   OH228666   5.643   4.354   0.255
 9577TIP3    H128667   5.556   4.385   0.230
 9577TIP3    H228668   5.632   4.260   0.267
 9578TIP3   OH228669   5.673   4.789   0.407
 9578TIP3    H128670   5.689   4.695   0.417
 9578TIP3    H228671   5.723   4.813   0.329
 9579TIP3   OH228672   6.585   5.651   0.073
 9579TIP3    H128673   6.613   5.583   0.012
 9579TIP3    H228674   6.592   5.611   0.160
 9580TIP3   OH228675   6.444   5.104   0.327
 9580TIP3    H128676   6.484   5.036   0.273
 9580TIP3    H228677   6.518   5.152   0.364
 9581TIP3   OH228678   6.880   4.557   0.397
 9581TIP3    H128679   6.964   4.539   0.439
 9581TIP3    H228680   6.885   4.513   0.312
 9582TIP3   OH228681   6.188   4.234   0.272
 9582TIP3    H128682   6.211   4.293   0.200
 9582TIP3    H228683   6.094   4.221   0.263
 9583TIP3   OH228684   6.905   4.428   0.132
 9583TIP3    H128685   7.000   4.429   0.121
 9583TIP3    H228686   6.871   4.408   0.045
 9584TIP3   OH228687   5.888   4.356   0.489
 9584TIP3    H128688   5.914   4.380   0.578
 9584TIP3    H228689   5.884   4.439   0.442
 9585TIP3   OH228690   6.317   4.668   0.163
 9585TIP3    H128691   6.396   4.633   0.205
 9585TIP3    H228692   6.258   4.593   0.155
 9586TIP3   OH228693   7.510   4.671   0.622
 9586TIP3    H128694   7.445   4.723   0.575
 9586TIP3    H228695   7.585   4.729   0.632
 9587TIP3   OH228696   3.741   1.105   6.805
 9587TIP3    H128697   3.699   1.082   6.723
 9587TIP3    H228698   3.690   1.179   6.838
 9588TIP3   OH228699   6.333   5.058   0.578
 9588TIP3    H128700   6.375   5.140   0.602
 9588TIP3    H228701   6.333   5.058   0.483
 9589TIP3   OH228702   6.075   4.415   0.699
 9589TIP3    H128703   6.145   4.476   0.721
 9589TIP3    H228704   6.121   4.335   0.673
 9590TIP3   OH228705   6.210   5.274   0.772
 9590TIP3    H128706   6.173   5.209   0.711
 9590TIP3    H228707   6.144   5.282   0.841
 9591TIP3   OH228708   5.539   4.973   0.020
 9591TIP3    H128709   5.585   5.003  -0.059
 9591TIP3    H228710   5.535   5.050   0.076
 9592TIP3   OH228711   6.975   5.465   0.191
 9592TIP3    H128712   6.891   5.461   0.237
 9592TIP3    H228713   6.974   5.549   0.146
 9593TIP3   OH228714   3.842   1.487   6.804
 9593TIP3    H128715   3.894   1.408   6.788
 9593TIP3    H228716   3.902   1.559   6.784
 9594TIP3   OH228717   3.973   1.254   6.747
 9594TIP3    H128718   3.902   1.191   6.760
 9594TIP3    H228719   4.030   1.241   6.822
 9595TIP3   OH228720   7.182   5.370   0.528
 9595TIP3    H128721   7.173   5.292   0.472
 9595TIP3    H228722   7.173   5.443   0.467
 9596TIP3   OH228723   3.661   0.748   6.775
 9596TIP3    H128724   3.576   0.790   6.760
 9596TIP3    H228725   3.705   0.751   6.690
 9597TIP3   OH228726   3.624   0.566   6.478
 9597TIP3    H128727   3.693   0.610   6.527
 9597TIP3    H228728   3.669   0.499   6.426
 9598TIP3   OH228729   7.372   4.999   0.329
 9598TIP3    H128730   7.300   5.056   0.354
 9598TIP3    H228731   7.423   5.050   0.265
 9599TIP3   OH228732   4.000   0.852   6.749
 9599TIP3    H128733   3.946   0.874   6.824
 9599TIP3    H228734   4.086   0.832   6.786
 9600TIP3   OH228735   7.087   4.956   0.707
 9600TIP3    H128736   7.086   4.989   0.797
 9600TIP3    H228737   6.995   4.940   0.686
 9601TIP3   OH228738   6.098   4.826   0.154
 9601TIP3    H128739   6.057   4.779   0.081
 9601TIP3    H228740   6.182   4.782   0.166
 9602TIP3   OH228741   6.223   5.267   0.277
 9602TIP3    H128742   6.178   5.236   0.199
 9602TIP3    H228743   6.299   5.210   0.287
 9603TIP3   OH228744   6.178   4.860   0.668
 9603TIP3    H128745   6.177   4.814   0.584
 9603TIP3    H228746   6.236   4.935   0.653
 9604TIP3   OH228747   6.729   5.458   0.309
 9604TIP3    H128748   6.659   5.499   0.359
 9604TIP3    H228749   6.716   5.364   0.321
 9605TIP3   OH228750   6.441   5.340   0.899
 9605TIP3    H128751   6.417   5.380   0.983
 9605TIP3    H228752   6.358   5.327   0.854
 9606TIP3   OH228753   3.857   0.693   6.573
 9606TIP3    H128754   3.907   0.761   6.617
 9606TIP3    H228755   3.883   0.699   6.481
 9607TIP3   OH228756   3.604   1.342   6.844
 9607TIP3    H128757   3.674   1.407   6.834
 9607TIP3    H228758   3.545   1.360   6.771
 9608TIP3   OH228759   6.107   5.515   1.055
 9608TIP3    H128760   6.184   5.505   0.999
 9608TIP3    H228761   6.039   5.548   0.996
 9609TIP3   OH228762   3.114   0.688   6.914
 9609TIP3    H128763   3.036   0.723   6.872
 9609TIP3    H228764   3.084   0.608   6.958
 9610TIP3   OH228765   4.176   1.298   6.190
 9610TIP3    H128766   4.173   1.392   6.169
 9610TIP3    H228767   4.267   1.273   6.173
 9611TIP3   OH228768   5.534   5.165   0.505
 9611TIP3    H128769   5.593   5.107   0.553
 9611TIP3    H228770   5.519   5.238   0.565
 9612TIP3   OH228771   7.452   5.711   0.544
 9612TIP3    H128772   7.441   5.617   0.536
 9612TIP3    H228773   7.370   5.742   0.582
 9613TIP3   OH228774   6.527   5.530   0.723
 9613TIP3    H128775   6.483   5.615   0.720
 9613TIP3    H228776   6.495   5.490   0.804
 9614TIP3   OH228777   3.489   1.610   6.648
 9614TIP3    H128778   3.434   1.583   6.574
 9614TIP3    H228779   3.449   1.691   6.679
 9615TIP3   OH228780   5.744   5.480   0.109
 9615TIP3    H128781   5.822   5.471   0.163
 9615TIP3    H228782   5.721   5.391   0.084
 9616TIP3   OH228783   3.685   1.526   6.284
 9616TIP3    H128784   3.736   1.453   6.248
 9616TIP3    H228785   3.720   1.539   6.372
 9617TIP3   OH228786   3.739   1.570   6.552
 9617TIP3    H128787   3.652   1.580   6.590
 9617TIP3    H228788   3.791   1.530   6.622
 9618TIP3   OH228789   7.345   4.866   0.898
 9618TIP3    H128790   7.282   4.937   0.885
 9618TIP3    H228791   7.316   4.798   0.837
 9619TIP3   OH228792   7.102   4.599   0.954
 9619TIP3    H128793   7.048   4.670   0.988
 9619TIP3    H228794   7.148   4.637   0.880
 9620TIP3   OH228795   3.929   0.677   6.309
 9620TIP3    H128796   3.877   0.682   6.229
 9620TIP3    H228797   4.006   0.731   6.291
 9621TIP3   OH228798   6.285   4.600   0.722
 9621TIP3    H128799   6.328   4.604   0.807
 9621TIP3    H228800   6.276   4.692   0.696
 9622TIP3   OH228801   6.104   4.485   0.152
 9622TIP3    H128802   6.011   4.461   0.155
 9622TIP3    H228803   6.140   4.434   0.080
 9623TIP3   OH228804   3.782   0.532   6.895
 9623TIP3    H128805   3.728   0.603   6.860
 9623TIP3    H228806   3.848   0.517   6.827
 9624TIP3   OH228807   6.740   4.670   0.173
 9624TIP3    H128808   6.703   4.723   0.103
 9624TIP3    H228809   6.752   4.583   0.135
 9625TIP3   OH228810   5.741   4.172   0.031
 9625TIP3    H128811   5.749   4.172  -0.065
 9625TIP3    H228812   5.648   4.189   0.047
 9626TIP3   OH228813   6.828   4.861   0.722
 9626TIP3    H128814   6.803   4.846   0.631
 9626TIP3    H228815   6.753   4.905   0.761
 9627TIP3   OH228816   5.922   4.246   0.224
 9627TIP3    H128817   5.859   4.293   0.279
 9627TIP3    H228818   5.871   4.222   0.146
 9628TIP3   OH228819   3.363   0.294   6.924
 9628TIP3    H128820   3.456   0.289   6.899
 9628TIP3    H228821   3.317   0.303   6.841
 9629TIP3   OH228822   3.221   0.352   6.697
 9629TIP3    H128823   3.153   0.318   6.639
 9629TIP3    H228824   3.269   0.415   6.642
 9630TIP3   OH228825   7.143   6.067   0.674
 9630TIP3    H128826   7.150   6.089   0.581
 9630TIP3    H228827   7.193   6.135   0.719
 9631TIP3   OH228828   6.520   4.597   0.329
 9631TIP3    H128829   6.603   4.620   0.287
 9631TIP3    H228830   6.544   4.569   0.417
 9632TIP3   OH228831   6.558   4.553   0.630
 9632TIP3    H128832   6.481   4.601   0.662
 9632TIP3    H228833   6.599   4.517   0.709
 9633TIP3   OH228834   3.431   0.885   6.719
 9633TIP3    H128835   3.346   0.854   6.689
 9633TIP3    H228836   3.411   0.940   6.795
 9634TIP3   OH228837   7.145   5.164   0.354
 9634TIP3    H128838   7.192   5.217   0.289
 9634TIP3    H228839   7.074   5.123   0.304
 9635TIP3   OH228840   3.848   0.298   6.561
 9635TIP3    H128841   3.793   0.250   6.623
 9635TIP3    H228842   3.903   0.354   6.616
 9636TIP3   OH228843   6.685   5.221   0.860
 9636TIP3    H128844   6.673   5.126   0.857
 9636TIP3    H228845   6.597   5.255   0.877
 9637TIP3   OH228846   3.985   0.486   6.715
 9637TIP3    H128847   4.080   0.497   6.722
 9637TIP3    H228848   3.957   0.559   6.659
 9638TIP3   OH228849   6.086   5.001   0.368
 9638TIP3    H128850   6.114   4.953   0.290
 9638TIP3    H228851   6.042   4.936   0.422
 9639TIP3   OH228852   3.583   1.058   6.574
 9639TIP3    H128853   3.540   1.143   6.578
 9639TIP3    H228854   3.523   0.999   6.620
 9640TIP3   OH228855   6.935   5.555   0.534
 9640TIP3    H128856   6.856   5.500   0.531
 9640TIP3    H228857   6.961   5.555   0.626
 9641TIP3   OH228858   4.386   0.553   6.508
 9641TIP3    H128859   4.339   0.496   6.447
 9641TIP3    H228860   4.378   0.640   6.469
 9642TIP3   OH228861   7.435   5.437   0.591
 9642TIP3    H128862   7.342   5.415   0.591
 9642TIP3    H228863   7.472   5.390   0.516
 9643TIP3   OH228864   4.101   1.374   6.458
 9643TIP3    H128865   4.067   1.308   6.519
 9643TIP3    H228866   4.116   1.325   6.377
 9644TIP3   OH228867   6.939   5.029   0.234
 9644TIP3    H128868   6.849   5.015   0.262
 9644TIP3    H228869   6.970   4.941   0.212
 9645TIP3   OH228870   6.033   5.235   0.057
 9645TIP3    H128871   6.034   5.324   0.024
 9645TIP3    H228872   5.958   5.194   0.014
 9646TIP3   OH228873   2.813   0.512   6.750
 9646TIP3    H128874   2.850   0.600   6.758
 9646TIP3    H228875   2.725   0.519   6.786
 9647TIP3   OH228876   6.212   5.031   0.006
 9647TIP3    H128877   6.161   5.112   0.016
 9647TIP3    H228878   6.172   4.969   0.067
 9648TIP3   OH228879   6.496   5.516   0.440
 9648TIP3    H128880   6.462   5.588   0.387
 9648TIP3    H228881   6.480   5.542   0.530
 9649TIP3   OH228882   3.136   1.475   6.882
 9649TIP3    H128883   3.047   1.490   6.915
 9649TIP3    H228884   3.174   1.563   6.877
 9650TIP3   OH228885   6.679   5.216   0.426
 9650TIP3    H128886   6.684   5.267   0.507
 9650TIP3    H228887   6.740   5.143   0.439
 9651TIP3   OH228888   3.862   1.110   6.332
 9651TIP3    H128889   3.912   1.078   6.408
 9651TIP3    H228890   3.776   1.068   6.341
 9652TIP3   OH228891   6.986   5.825   0.532
 9652TIP3    H128892   6.952   5.736   0.528
 9652TIP3    H228893   6.956   5.866   0.451
 9653TIP3   OH228894   4.176   1.570   6.143
 9653TIP3    H128895   4.194   1.626   6.067
 9653TIP3    H228896   4.108   1.617   6.192
 9654TIP3   OH228897   4.032   1.007   6.520
 9654TIP3    H128898   4.017   0.969   6.606
 9654TIP3    H228899   4.126   1.023   6.517
 9655TIP3   OH228900   5.713   5.456   0.852
 9655TIP3    H128901   5.716   5.394   0.779
 9655TIP3    H228902   5.704   5.542   0.811
 9656TIP3   OH228903   3.227   1.076   6.345
 9656TIP3    H128904   3.235   0.983   6.320
 9656TIP3    H228905   3.214   1.074   6.440
 9657TIP3   OH228906   3.176   1.094   6.610
 9657TIP3    H128907   3.092   1.068   6.647
 9657TIP3    H228908   3.180   1.189   6.623
 9658TIP3   OH228909   2.873   0.771   6.825
 9658TIP3    H128910   2.797   0.802   6.875
 9658TIP3    H228911   2.899   0.847   6.773
 9659TIP3   OH228912   3.456   1.301   6.589
 9659TIP3    H128913   3.364   1.306   6.614
 9659TIP3    H228914   3.467   1.366   6.520
 9660TIP3   OH228915   6.471   4.309  -0.016
 9660TIP3    H128916   6.519   4.392  -0.022
 9660TIP3    H228917   6.483   4.280   0.074
 9661TIP3   OH228918   6.674   4.679   0.934
 9661TIP3    H128919   6.616   4.755   0.940
 9661TIP3    H228920   6.760   4.714   0.958
 9662TIP3   OH228921   3.192   1.369   6.635
 9662TIP3    H128922   3.168   1.439   6.574
 9662TIP3    H228923   3.169   1.403   6.721
 9663TIP3   OH228924   7.005   4.764   0.194
 9663TIP3    H128925   6.922   4.721   0.214
 9663TIP3    H228926   7.071   4.710   0.237
 9664TIP3   OH228927   2.816   0.222   6.699
 9664TIP3    H128928   2.850   0.311   6.685
 9664TIP3    H228929   2.746   0.233   6.763
 9665TIP3   OH228930   6.992   5.724   0.106
 9665TIP3    H128931   6.946   5.783   0.046
 9665TIP3    H228932   7.085   5.743   0.091
 9666TIP3   OH228933   5.638   5.243   0.038
 9666TIP3    H128934   5.569   5.292  -0.007
 9666TIP3    H228935   5.681   5.193  -0.030
 9667TIP3   OH228936   3.377   1.276   6.240
 9667TIP3    H128937   3.328   1.205   6.282
 9667TIP3    H228938   3.452   1.232   6.199
 9668TIP3   OH228939   6.873   5.662   1.027
 9668TIP3    H128940   6.878   5.577   0.984
 9668TIP3    H228941   6.963   5.691   1.036
 9669TIP3   OH228942   3.815   1.319   6.162
 9669TIP3    H128943   3.848   1.254   6.226
 9669TIP3    H228944   3.877   1.314   6.089
 9670TIP3   OH228945   3.031   0.760   6.449
 9670TIP3    H128946   3.074   0.756   6.534
 9670TIP3    H228947   3.101   0.786   6.388
 9671TIP3   OH228948   3.609   0.995   6.306
 9671TIP3    H128949   3.586   1.007   6.399
 9671TIP3    H228950   3.589   0.903   6.289
 9672TIP3   OH228951   6.989   5.263   0.688
 9672TIP3    H128952   7.061   5.309   0.644
 9672TIP3    H228953   6.910   5.312   0.662
 9673TIP3   OH228954   3.211   0.723   6.659
 9673TIP3    H128955   3.195   0.696   6.749
 9673TIP3    H228956   3.263   0.652   6.622
 9674TIP3   OH228957   3.356   0.526   6.532
 9674TIP3    H128958   3.324   0.533   6.442
 9674TIP3    H228959   3.450   0.539   6.525
 9675TIP3   OH228960   4.147   0.808   6.202
 9675TIP3    H128961   4.130   0.772   6.115
 9675TIP3    H228962   4.125   0.901   6.194
 9676TIP3   OH228963   6.598   4.956   0.849
 9676TIP3    H128964   6.557   4.908   0.777
 9676TIP3    H228965   6.525   4.994   0.897
 9677TIP3   OH228966   7.121   5.036   0.964
 9677TIP3    H128967   7.069   5.113   0.986
 9677TIP3    H228968   7.163   5.011   1.046
 9678TIP3   OH228969   3.180   1.585   6.458
 9678TIP3    H128970   3.267   1.557   6.430
 9678TIP3    H228971   3.142   1.626   6.381
 9679TIP3   OH228972   2.643   0.977   6.578
 9679TIP3    H128973   2.726   1.000   6.621
 9679TIP3    H228974   2.649   0.883   6.563
 9680TIP3   OH228975   5.369   5.553   0.127
 9680TIP3    H128976   5.328   5.497   0.060
 9680TIP3    H228977   5.380   5.495   0.202
 9681TIP3   OH228978   5.374   5.359   0.330
 9681TIP3    H128979   5.373   5.269   0.297
 9681TIP3    H228980   5.464   5.373   0.360
 9682TIP3   OH228981   7.257   5.789   0.091
 9682TIP3    H128982   7.267   5.825   0.179
 9682TIP3    H228983   7.324   5.835   0.039
 9683TIP3   OH228984   7.269   5.838   0.360
 9683TIP3    H128985   7.218   5.757   0.366
 9683TIP3    H228986   7.352   5.818   0.402
 9684TIP3   OH228987   4.310   1.029   6.524
 9684TIP3    H128988   4.365   1.101   6.494
 9684TIP3    H228989   4.350   1.001   6.607
 9685TIP3   OH228990   4.429   0.918   6.742
 9685TIP3    H128991   4.366   0.880   6.803
 9685TIP3    H228992   4.502   0.945   6.798
 9686TIP3   OH228993   7.319   5.302   0.201
 9686TIP3    H128994   7.383   5.245   0.157
 9686TIP3    H228995   7.323   5.384   0.152
 9687TIP3   OH228996   7.146   5.593   0.368
 9687TIP3    H128997   7.069   5.593   0.425
 9687TIP3    H228998   7.117   5.550   0.288
 9688TIP3   OH228999   4.348   0.795   6.386
 9688TIP3    H129000   4.278   0.799   6.321
 9688TIP3    H229001   4.336   0.875   6.438
 9689TIP3   OH229002   4.221   0.470   6.302
 9689TIP3    H129003   4.201   0.559   6.273
 9689TIP3    H229004   4.165   0.414   6.248
 9690TIP3   OH229005   4.233   0.764   6.867
 9690TIP3    H129006   4.247   0.673   6.845
 9690TIP3    H229007   4.220   0.764   6.962
 9691TIP3   OH229008   5.704   4.981   0.603
 9691TIP3    H129009   5.673   4.904   0.556
 9691TIP3    H229010   5.746   4.946   0.681
 9692TIP3   OH229011   7.505   5.271   0.814
 9692TIP3    H129012   7.436   5.205   0.812
 9692TIP3    H229013   7.475   5.339   0.754
 9693TIP3   OH229014   7.600   4.950   0.839
 9693TIP3    H129015   7.528   4.903   0.881
 9693TIP3    H229016   7.658   4.881   0.806
 9694TIP3   OH229017   4.264   0.505   6.754
 9694TIP3    H129018   4.328   0.445   6.792
 9694TIP3    H229019   4.298   0.526   6.668
 9695TIP3   OH229020   7.211   4.605   0.283
 9695TIP3    H129021   7.287   4.643   0.238
 9695TIP3    H229022   7.249   4.551   0.352
 9696TIP3   OH229023   7.307   4.788   0.485
 9696TIP3    H129024   7.273   4.744   0.407
 9696TIP3    H229025   7.337   4.873   0.453
 9697TIP3   OH229026   3.990   1.696   6.718
 9697TIP3    H129027   4.040   1.679   6.638
 9697TIP3    H229028   4.033   1.772   6.758
 9698TIP3   OH229029   6.181   5.474   0.561
 9698TIP3    H129030   6.087   5.479   0.578
 9698TIP3    H229031   6.212   5.408   0.623
 9699TIP3   OH229032   6.508   5.799   0.841
 9699TIP3    H129033   6.518   5.751   0.923
 9699TIP3    H229034   6.586   5.777   0.791
 9700TIP3   OH229035   6.712   6.007   0.572
 9700TIP3    H129036   6.749   5.931   0.528
 9700TIP3    H229037   6.770   6.022   0.647
 9701TIP3   OH229038   5.694   5.711   0.757
 9701TIP3    H129039   5.695   5.777   0.687
 9701TIP3    H229040   5.725   5.758   0.834
 9702TIP3   OH229041   6.053   5.748   0.515
 9702TIP3    H129042   5.994   5.765   0.588
 9702TIP3    H229043   6.003   5.772   0.437
 9703TIP3   OH229044   6.469   5.761   0.323
 9703TIP3    H129045   6.415   5.764   0.244
 9703TIP3    H229046   6.443   5.839   0.373
 9704TIP3   OH229047   6.709   5.750   0.453
 9704TIP3    H129048   6.623   5.739   0.413
 9704TIP3    H229049   6.766   5.780   0.382
 9705TIP3   OH229050   6.885   5.900   0.294
 9705TIP3    H129051   6.886   5.987   0.255
 9705TIP3    H229052   6.914   5.841   0.224
 9706TIP3   OH229053   5.768   5.630   0.428
 9706TIP3    H129054   5.700   5.562   0.424
 9706TIP3    H229055   5.836   5.599   0.369
 9707TIP3   OH229056   5.948   5.486   0.287
 9707TIP3    H129057   5.962   5.410   0.344
 9707TIP3    H229058   6.036   5.520   0.271
 9708TIP3   OH229059   6.217   5.542   0.295
 9708TIP3    H129060   6.241   5.453   0.267
 9708TIP3    H229061   6.211   5.536   0.391
 9709TIP3   OH229062   2.623   1.372   6.830
 9709TIP3    H129063   2.537   1.332   6.824
 9709TIP3    H229064   2.620   1.446   6.769
 9710TIP3   OH229065   3.430   1.498   6.386
 9710TIP3    H129066   3.513   1.526   6.349
 9710TIP3    H229067   3.402   1.425   6.331
 9711TIP3   OH229068   4.133   1.643   6.488
 9711TIP3    H129069   4.128   1.548   6.481
 9711TIP3    H229070   4.092   1.675   6.407
 9712TIP3   OH229071   2.747   1.327   6.458
 9712TIP3    H129072   2.748   1.301   6.550
 9712TIP3    H229073   2.826   1.289   6.421
 9713TIP3   OH229074   7.224   5.788   0.659
 9713TIP3    H129075   7.150   5.826   0.612
 9713TIP3    H229076   7.242   5.849   0.731
 9714TIP3   OH229077   5.614   1.179   6.423
 9714TIP3    H129078   5.591   1.267   6.396
 9714TIP3    H229079   5.539   1.125   6.398
 9715TIP3   OH229080   5.628   1.173   6.837
 9715TIP3    H129081   5.667   1.150   6.922
 9715TIP3    H229082   5.582   1.094   6.810
 9716TIP3   OH229083   7.756   5.035   0.232
 9716TIP3    H129084   7.777   4.979   0.307
 9716TIP3    H229085   7.839   5.049   0.188
 9717TIP3   OH229086   5.892   1.468   6.514
 9717TIP3    H129087   5.880   1.402   6.583
 9717TIP3    H229088   5.914   1.548   6.561
 9718TIP3   OH229089   4.919   1.453   6.878
 9718TIP3    H129090   4.901   1.359   6.884
 9718TIP3    H229091   5.014   1.459   6.869
 9719TIP3   OH229092   4.568   0.690   6.670
 9719TIP3    H129093   4.524   0.773   6.690
 9719TIP3    H229094   4.504   0.642   6.618
 9720TIP3   OH229095   4.680   0.965   6.856
 9720TIP3    H129096   4.721   0.884   6.889
 9720TIP3    H229097   4.753   1.014   6.818
 9721TIP3   OH229098   5.553   1.898   6.523
 9721TIP3    H129099   5.580   1.833   6.458
 9721TIP3    H229100   5.549   1.850   6.605
 9722TIP3   OH229101   5.432   1.389   6.839
 9722TIP3    H129102   5.477   1.310   6.812
 9722TIP3    H229103   5.501   1.446   6.873
 9723TIP3   OH229104   5.851   0.888   6.912
 9723TIP3    H129105   5.931   0.841   6.888
 9723TIP3    H229106   5.797   0.885   6.832
 9724TIP3   OH229107   5.152   0.507   6.871
 9724TIP3    H129108   5.137   0.580   6.811
 9724TIP3    H229109   5.138   0.428   6.819
 9725TIP3   OH229110   5.895   0.766   6.532
 9725TIP3    H129111   5.938   0.681   6.543
 9725TIP3    H229112   5.915   0.792   6.443
 9726TIP3   OH229113   7.640   4.746   0.014
 9726TIP3    H129114   7.723   4.736   0.061
 9726TIP3    H229115   7.647   4.685  -0.060
 9727TIP3   OH229116   5.217   0.943   6.787
 9727TIP3    H129117   5.311   0.925   6.797
 9727TIP3    H229118   5.178   0.857   6.772
 9728TIP3   OH229119   0.848   4.954   0.059
 9728TIP3    H129120   0.756   4.973   0.076
 9728TIP3    H229121   0.891   4.961   0.144
 9729TIP3   OH229122   5.529   1.394   6.273
 9729TIP3    H129123   5.486   1.363   6.194
 9729TIP3    H229124   5.474   1.467   6.303
 9730TIP3   OH229125   8.114   5.313   0.117
 9730TIP3    H129126   8.056   5.380   0.152
 9730TIP3    H229127   8.156   5.354   0.041
 9731TIP3   OH229128   7.888   4.693   0.118
 9731TIP3    H129129   7.962   4.736   0.161
 9731TIP3    H229130   7.927   4.623   0.067
 9732TIP3   OH229131   7.952   5.515   0.214
 9732TIP3    H129132   7.938   5.605   0.184
 9732TIP3    H229133   7.871   5.493   0.261
 9733TIP3   OH229134   4.489   1.215   6.422
 9733TIP3    H129135   4.457   1.230   6.332
 9733TIP3    H229136   4.512   1.302   6.454
 9734TIP3   OH229137   5.931   1.716   6.652
 9734TIP3    H129138   5.845   1.708   6.693
 9734TIP3    H229139   5.928   1.801   6.607
 9735TIP3   OH229140   5.639   1.747   6.304
 9735TIP3    H129141   5.692   1.667   6.295
 9735TIP3    H229142   5.698   1.817   6.277
 9736TIP3   OH229143   5.780   1.515   6.265
 9736TIP3    H129144   5.703   1.458   6.265
 9736TIP3    H229145   5.827   1.492   6.345
 9737TIP3   OH229146   0.504   5.608   0.059
 9737TIP3    H129147   0.481   5.535   0.001
 9737TIP3    H229148   0.490   5.686   0.005
 9738TIP3   OH229149   5.440   1.025   6.268
 9738TIP3    H129150   5.356   1.068   6.249
 9738TIP3    H229151   5.488   1.028   6.185
 9739TIP3   OH229152   5.418   0.750   6.095
 9739TIP3    H129153   5.472   0.828   6.095
 9739TIP3    H229154   5.437   0.708   6.011
 9740TIP3   OH229155   6.345   1.270   6.868
 9740TIP3    H129156   6.260   1.313   6.860
 9740TIP3    H229157   6.383   1.275   6.781
 9741TIP3   OH229158   5.802   1.108   6.239
 9741TIP3    H129159   5.741   1.135   6.307
 9741TIP3    H229160   5.887   1.103   6.283
 9742TIP3   OH229161   0.356   5.140   0.220
 9742TIP3    H129162   0.354   5.220   0.274
 9742TIP3    H229163   0.269   5.136   0.181
 9743TIP3   OH229164   5.038   1.080   6.629
 9743TIP3    H129165   5.000   1.019   6.565
 9743TIP3    H229166   5.105   1.029   6.674
 9744TIP3   OH229167   5.178   1.503   6.774
 9744TIP3    H129168   5.152   1.485   6.684
 9744TIP3    H229169   5.265   1.463   6.782
 9745TIP3   OH229170   7.986   5.071   0.086
 9745TIP3    H129171   8.016   5.036   0.002
 9745TIP3    H229172   8.034   5.152   0.097
 9746TIP3   OH229173   5.695   1.712   6.787
 9746TIP3    H129174   5.682   1.791   6.839
 9746TIP3    H229175   5.680   1.640   6.848
 9747TIP3   OH229176   8.152   5.608   0.385
 9747TIP3    H129177   8.091   5.666   0.430
 9747TIP3    H229178   8.096   5.553   0.330
 9748TIP3   OH229179   5.628   0.967   6.070
 9748TIP3    H129180   5.688   1.023   6.120
 9748TIP3    H229181   5.648   0.987   5.979
 9749TIP3   OH229182   7.935   5.198   0.447
 9749TIP3    H129183   7.944   5.284   0.487
 9749TIP3    H229184   7.842   5.177   0.455
 9750TIP3   OH229185   5.390   1.627   6.321
 9750TIP3    H129186   5.470   1.680   6.322
 9750TIP3    H229187   5.327   1.680   6.272
 9751TIP3   OH229188   7.955   5.785   0.457
 9751TIP3    H129189   7.935   5.792   0.364
 9751TIP3    H229190   7.869   5.775   0.499
 9752TIP3   OH229191   4.907   0.923   6.433
 9752TIP3    H129192   4.826   0.966   6.404
 9752TIP3    H229193   4.878   0.838   6.466
 9753TIP3   OH229194   5.976   1.559   5.671
 9753TIP3    H129195   5.970   1.653   5.655
 9753TIP3    H229196   6.067   1.537   5.649
 9754TIP3   OH229197   7.555   5.304   0.390
 9754TIP3    H129198   7.501   5.277   0.316
 9754TIP3    H229199   7.599   5.224   0.419
 9755TIP3   OH229200   7.375   5.536   0.069
 9755TIP3    H129201   7.466   5.556   0.090
 9755TIP3    H229202   7.328   5.617   0.090
 9756TIP3   OH229203   0.732   5.985   0.124
 9756TIP3    H129204   0.739   5.890   0.132
 9756TIP3    H229205   0.652   6.008   0.171
 9757TIP3   OH229206   8.334   5.759   0.247
 9757TIP3    H129207   8.324   5.849   0.280
 9757TIP3    H229208   8.268   5.709   0.295
 9758TIP3   OH229209   5.281   1.857   6.143
 9758TIP3    H129210   5.229   1.835   6.066
 9758TIP3    H229211   5.243   1.939   6.175
 9759TIP3   OH229212   4.715   1.707   6.522
 9759TIP3    H129213   4.759   1.697   6.606
 9759TIP3    H229214   4.665   1.626   6.512
 9760TIP3   OH229215   5.487   1.787   5.771
 9760TIP3    H129216   5.537   1.713   5.737
 9760TIP3    H229217   5.518   1.798   5.861
 9761TIP3   OH229218   5.534   1.825   6.043
 9761TIP3    H129219   5.446   1.831   6.079
 9761TIP3    H229220   5.587   1.787   6.113
 9762TIP3   OH229221   0.619   5.073   0.367
 9762TIP3    H129222   0.548   5.137   0.363
 9762TIP3    H229223   0.575   4.988   0.368
 9763TIP3   OH229224   7.726   5.520   0.376
 9763TIP3    H129225   7.781   5.510   0.453
 9763TIP3    H229226   7.668   5.444   0.378
 9764TIP3   OH229227   0.409   4.894   0.348
 9764TIP3    H129228   0.326   4.870   0.391
 9764TIP3    H229229   0.385   4.967   0.290
 9765TIP3   OH229230   5.707   1.007   5.812
 9765TIP3    H129231   5.663   1.012   5.727
 9765TIP3    H229232   5.792   1.047   5.797
 9766TIP3   OH229233   8.073   4.860   0.254
 9766TIP3    H129234   8.012   4.867   0.328
 9766TIP3    H229235   8.052   4.935   0.198
 9767TIP3   OH229236   5.075   0.718   6.711
 9767TIP3    H129237   4.984   0.689   6.717
 9767TIP3    H229238   5.098   0.705   6.619
 9768TIP3   OH229239   5.570   0.855   6.436
 9768TIP3    H129240   5.519   0.919   6.386
 9768TIP3    H229241   5.642   0.831   6.379
 9769TIP3   OH229242   0.112   5.106   0.527
 9769TIP3    H129243   0.085   5.036   0.587
 9769TIP3    H229244   0.205   5.120   0.547
 9770TIP3   OH229245   5.702   0.879   6.678
 9770TIP3    H129246   5.638   0.906   6.612
 9770TIP3    H229247   5.765   0.825   6.631
 9771TIP3   OH229248   7.891   4.890   0.461
 9771TIP3    H129249   7.892   4.976   0.503
 9771TIP3    H229250   7.846   4.833   0.523
 9772TIP3   OH229251   4.686   0.434   6.518
 9772TIP3    H129252   4.711   0.476   6.435
 9772TIP3    H229253   4.593   0.453   6.527
 9773TIP3   OH229254   0.088   5.088   0.132
 9773TIP3    H129255   0.126   5.021   0.074
 9773TIP3    H229256   0.049   5.038   0.204
 9774TIP3   OH229257   4.822   0.606   6.704
 9774TIP3    H129258   4.735   0.645   6.697
 9774TIP3    H229259   4.816   0.524   6.655
 9775TIP3   OH229260   5.133   0.669   6.453
 9775TIP3    H129261   5.225   0.654   6.432
 9775TIP3    H229262   5.085   0.641   6.375
 9776TIP3   OH229263   5.006   0.594   6.219
 9776TIP3    H129264   4.911   0.585   6.221
 9776TIP3    H229265   5.024   0.648   6.142
 9777TIP3   OH229266   0.444   6.320   0.215
 9777TIP3    H129267   0.443   6.334   0.120
 9777TIP3    H229268   0.522   6.367   0.245
 9778TIP3   OH229269   7.942   5.435   0.587
 9778TIP3    H129270   8.007   5.449   0.657
 9778TIP3    H229271   7.859   5.426   0.634
 9779TIP3   OH229272   5.483   0.903   6.843
 9779TIP3    H129273   5.560   0.871   6.796
 9779TIP3    H229274   5.491   0.864   6.931
 9780TIP3   OH229275   8.335   4.820   0.160
 9780TIP3    H129276   8.248   4.828   0.199
 9780TIP3    H229277   8.394   4.859   0.224
 9781TIP3   OH229278   5.204   1.153   6.207
 9781TIP3    H129279   5.130   1.095   6.188
 9781TIP3    H229280   5.183   1.192   6.291
 9782TIP3   OH229281   6.108   1.404   6.821
 9782TIP3    H129282   6.143   1.452   6.745
 9782TIP3    H229283   6.027   1.364   6.789
 9783TIP3   OH229284   5.547   0.494   6.150
 9783TIP3    H129285   5.519   0.467   6.063
 9783TIP3    H229286   5.634   0.531   6.138
 9784TIP3   OH229287   8.469   5.492   0.288
 9784TIP3    H129288   8.514   5.478   0.372
 9784TIP3    H229289   8.419   5.573   0.301
 9785TIP3   OH229290   5.752   0.787   6.243
 9785TIP3    H129291   5.843   0.815   6.242
 9785TIP3    H229292   5.711   0.833   6.170
 9786TIP3   OH229293   4.922   1.170   6.864
 9786TIP3    H129294   4.961   1.148   6.779
 9786TIP3    H229295   4.981   1.129   6.928
 9787TIP3   OH229296   5.367   1.311   6.058
 9787TIP3    H129297   5.324   1.397   6.055
 9787TIP3    H229298   5.307   1.256   6.108
 9788TIP3   OH229299   7.689   5.109   0.537
 9788TIP3    H129300   7.743   5.093   0.614
 9788TIP3    H229301   7.604   5.070   0.557
 9789TIP3   OH229302   8.371   5.243   0.586
 9789TIP3    H129303   8.301   5.187   0.553
 9789TIP3    H229304   8.451   5.208   0.546
 9790TIP3   OH229305   0.104   5.783   0.173
 9790TIP3    H129306   0.011   5.765   0.177
 9790TIP3    H229307   0.127   5.817   0.260
 9791TIP3   OH229308   6.154   0.857   6.018
 9791TIP3    H129309   6.105   0.801   5.957
 9791TIP3    H229310   6.161   0.941   5.973
 9792TIP3   OH229311   0.748   5.710   0.142
 9792TIP3    H129312   0.656   5.684   0.150
 9792TIP3    H229313   0.777   5.671   0.059
 9793TIP3   OH229314   5.902   1.630   5.944
 9793TIP3    H129315   5.871   1.567   6.008
 9793TIP3    H229316   5.914   1.579   5.863
 9794TIP3   OH229317   5.877   1.273   6.725
 9794TIP3    H129318   5.787   1.250   6.748
 9794TIP3    H229319   5.918   1.189   6.702
 9795TIP3   OH229320   5.030   1.500   6.533
 9795TIP3    H129321   5.025   1.577   6.475
 9795TIP3    H229322   4.941   1.487   6.564
 9796TIP3   OH229323   4.582   0.796   6.240
 9796TIP3    H129324   4.620   0.881   6.258
 9796TIP3    H229325   4.500   0.795   6.290
 9797TIP3   OH229326   5.126   1.260   6.439
 9797TIP3    H129327   5.104   1.349   6.469
 9797TIP3    H229328   5.098   1.203   6.511
 9798TIP3   OH229329   8.154   5.831   0.040
 9798TIP3    H129330   8.191   5.904  -0.010
 9798TIP3    H229331   8.227   5.798   0.092
 9799TIP3   OH229332   4.952   1.723   6.382
 9799TIP3    H129333   4.863   1.730   6.419
 9799TIP3    H229334   4.987   1.812   6.387
 9800TIP3   OH229335   0.001   5.496   0.014
 9800TIP3    H129336  -0.008   5.493   0.110
 9800TIP3    H229337   0.069   5.432  -0.005
 9801TIP3   OH229338   5.661   1.364   5.819
 9801TIP3    H129339   5.710   1.333   5.896
 9801TIP3    H229340   5.575   1.323   5.827
 9802TIP3   OH229341   0.262   5.987   0.057
 9802TIP3    H129342   0.192   5.925   0.078
 9802TIP3    H229343   0.224   6.041  -0.013
 9803TIP3   OH229344   5.973   1.833   5.632
 9803TIP3    H129345   5.989   1.894   5.561
 9803TIP3    H229346   5.903   1.873   5.683
 9804TIP3   OH229347   5.829   1.269   6.012
 9804TIP3    H129348   5.813   1.225   6.095
 9804TIP3    H229349   5.923   1.289   6.013
 9805TIP3   OH229350   7.579   5.725   0.205
 9805TIP3    H129351   7.631   5.664   0.257
 9805TIP3    H229352   7.599   5.811   0.242
 9806TIP3   OH229353   5.020   1.340   5.843
 9806TIP3    H129354   5.026   1.248   5.816
 9806TIP3    H229355   5.001   1.336   5.937
 9807TIP3   OH229356   4.956   1.349   6.111
 9807TIP3    H129357   5.015   1.322   6.182
 9807TIP3    H229358   4.954   1.445   6.118
 9808TIP3   OH229359   4.682   1.042   6.322
 9808TIP3    H129360   4.619   1.089   6.377
 9808TIP3    H229361   4.700   1.102   6.249
 9809TIP3   OH229362   5.231   1.544   6.051
 9809TIP3    H129363   5.145   1.563   6.089
 9809TIP3    H229364   5.247   1.617   5.992
 9810TIP3   OH229365   5.414   0.636   6.406
 9810TIP3    H129366   5.463   0.712   6.438
 9810TIP3    H229367   5.424   0.570   6.475
 9811TIP3   OH229368   0.017   4.923   0.348
 9811TIP3    H129369   0.040   5.001   0.398
 9811TIP3    H229370   0.010   4.853   0.414
 9812TIP3   OH229371   4.979   1.621   6.130
 9812TIP3    H129372   4.957   1.692   6.070
 9812TIP3    H229373   4.965   1.658   6.217
 9813TIP3   OH229374   5.986   1.022   6.661
 9813TIP3    H129375   5.922   0.954   6.638
 9813TIP3    H229376   6.055   0.975   6.707
 9814TIP3   OH229377   4.704   1.223   6.110
 9814TIP3    H129378   4.770   1.292   6.114
 9814TIP3    H229379   4.737   1.162   6.045
 9815TIP3   OH229380   4.722   0.561   6.272
 9815TIP3    H129381   4.680   0.648   6.267
 9815TIP3    H229382   4.670   0.506   6.214
 9816TIP3   OH229383   5.949   1.984   6.571
 9816TIP3    H129384   5.907   2.035   6.502
 9816TIP3    H229385   6.043   1.995   6.556
 9817TIP3   OH229386   4.544   1.482   6.504
 9817TIP3    H129387   4.504   1.518   6.583
 9817TIP3    H229388   4.495   1.521   6.432
 9818TIP3   OH229389   7.569   6.015   0.567
 9818TIP3    H129390   7.616   6.001   0.649
 9818TIP3    H229391   7.569   5.929   0.524
 9819TIP3   OH229392   8.071   5.923   0.665
 9819TIP3    H129393   8.157   5.883   0.671
 9819TIP3    H229394   8.029   5.879   0.591
 9820TIP3   OH229395   5.177   1.532   5.727
 9820TIP3    H129396   5.125   1.467   5.774
 9820TIP3    H229397   5.250   1.482   5.691
 9821TIP3   OH229398   0.162   5.879   0.424
 9821TIP3    H129399   0.176   5.808   0.486
 9821TIP3    H229400   0.237   5.937   0.436
 9822TIP3   OH229401   5.614   1.576   5.653
 9822TIP3    H129402   5.645   1.510   5.715
 9822TIP3    H229403   5.675   1.568   5.579
 9823TIP3   OH229404   7.695   5.418   0.687
 9823TIP3    H129405   7.671   5.341   0.739
 9823TIP3    H229406   7.614   5.440   0.640
 9824TIP3   OH229407   4.836   1.036   5.962
 9824TIP3    H129408   4.886   1.010   6.040
 9824TIP3    H229409   4.902   1.055   5.896
 9825TIP3   OH229410   8.306   5.513   0.592
 9825TIP3    H129411   8.257   5.528   0.512
 9825TIP3    H229412   8.338   5.423   0.584
 9826TIP3   OH229413   5.407   1.253   5.794
 9826TIP3    H129414   5.382   1.266   5.885
 9826TIP3    H229415   5.380   1.164   5.774
 9827TIP3   OH229416   0.276   5.559   0.212
 9827TIP3    H129417   0.353   5.588   0.162
 9827TIP3    H229418   0.209   5.625   0.192
 9828TIP3   OH229419   7.886   5.065   0.726
 9828TIP3    H129420   7.980   5.080   0.720
 9828TIP3    H229421   7.873   5.032   0.815
 9829TIP3   OH229422   5.004   0.967   6.175
 9829TIP3    H129423   4.979   0.947   6.265
 9829TIP3    H229424   5.044   0.887   6.142
 9830TIP3   OH229425   8.179   5.082   0.468
 9830TIP3    H129426   8.092   5.120   0.459
 9830TIP3    H229427   8.222   5.102   0.385
 9831TIP3   OH229428   5.127   0.762   6.034
 9831TIP3    H129429   5.096   0.778   5.945
 9831TIP3    H229430   5.222   0.775   6.029
 9832TIP3   OH229431   0.149   5.433   0.551
 9832TIP3    H129432   0.218   5.392   0.500
 9832TIP3    H229433   0.140   5.377   0.629
 9833TIP3   OH229434   5.949   1.076   5.681
 9833TIP3    H129435   5.923   1.034   5.598
 9833TIP3    H229436   5.927   1.168   5.669
 9834TIP3   OH229437   8.229   4.835   0.565
 9834TIP3    H129438   8.187   4.776   0.502
 9834TIP3    H229439   8.211   4.923   0.532
 9835TIP3   OH229440   8.310   5.168   0.248
 9835TIP3    H129441   8.393   5.201   0.213
 9835TIP3    H229442   8.243   5.221   0.204
 9836TIP3   OH229443   0.379   5.133   0.619
 9836TIP3    H129444   0.379   5.060   0.680
 9836TIP3    H229445   0.470   5.161   0.615
 9837TIP3   OH229446   0.391   5.376   0.373
 9837TIP3    H129447   0.338   5.439   0.324
 9837TIP3    H229448   0.480   5.390   0.341
 9838TIP3   OH229449   8.159   4.974   0.801
 9838TIP3    H129450   8.089   4.936   0.853
 9838TIP3    H229451   8.174   4.911   0.730
 9839TIP3   OH229452   8.491   4.887   0.646
 9839TIP3    H129453   8.493   4.883   0.742
 9839TIP3    H229454   8.400   4.865   0.623
 9840TIP3   OH229455   4.979   1.832   5.950
 9840TIP3    H129456   5.065   1.811   5.915
 9840TIP3    H229457   4.932   1.873   5.878
 9841TIP3   OH229458   4.431   1.201   6.143
 9841TIP3    H129459   4.522   1.225   6.125
 9841TIP3    H229460   4.417   1.122   6.092
 9842TIP3   OH229461   4.339   1.796   6.583
 9842TIP3    H129462   4.276   1.743   6.535
 9842TIP3    H229463   4.386   1.733   6.639
 9843TIP3   OH229464   4.488   1.626   6.744
 9843TIP3    H129465   4.477   1.560   6.813
 9843TIP3    H229466   4.541   1.695   6.786
 9844TIP3   OH229467   6.221   2.029   6.561
 9844TIP3    H129468   6.241   2.055   6.651
 9844TIP3    H229469   6.278   2.083   6.507
 9845TIP3   OH229470   6.244   2.059   6.839
 9845TIP3    H129471   6.196   1.977   6.836
 9845TIP3    H229472   6.313   2.044   6.904
 9846TIP3   OH229473   0.624   5.773   0.461
 9846TIP3    H129474   0.552   5.778   0.524
 9846TIP3    H229475   0.664   5.860   0.463
 9847TIP3   OH229476   6.105   1.302   6.020
 9847TIP3    H129477   6.164   1.371   5.989
 9847TIP3    H229478   6.145   1.270   6.100
 9848TIP3   OH229479   6.227   1.185   6.236
 9848TIP3    H129480   6.162   1.162   6.301
 9848TIP3    H229481   6.296   1.229   6.286
 9849TIP3   OH229482   6.285   1.540   6.655
 9849TIP3    H129483   6.339   1.472   6.615
 9849TIP3    H229484   6.289   1.613   6.593
 9850TIP3   OH229485   6.101   1.822   6.847
 9850TIP3    H129486   6.033   1.867   6.898
 9850TIP3    H229487   6.053   1.781   6.775
 9851TIP3   OH229488   6.149   1.082   5.867
 9851TIP3    H129489   6.079   1.077   5.802
 9851TIP3    H229490   6.129   1.160   5.918
 9852TIP3   OH229491   6.000   0.775   5.807
 9852TIP3    H129492   6.008   0.837   5.735
 9852TIP3    H229493   5.907   0.753   5.809
 9853TIP3   OH229494   6.035   1.073   6.394
 9853TIP3    H129495   6.047   0.981   6.372
 9853TIP3    H229496   6.024   1.074   6.490
 9854TIP3   OH229497   7.518   5.129   0.141
 9854TIP3    H129498   7.508   5.084   0.056
 9854TIP3    H229499   7.606   5.105   0.169
 9855TIP3   OH229500   0.642   5.417   0.266
 9855TIP3    H129501   0.712   5.352   0.253
 9855TIP3    H229502   0.634   5.461   0.181
 9856TIP3   OH229503   0.826   5.216   0.266
 9856TIP3    H129504   0.756   5.162   0.302
 9856TIP3    H229505   0.906   5.164   0.280
 9857TIP3   OH229506   6.023   0.830   6.259
 9857TIP3    H129507   6.040   0.736   6.250
 9857TIP3    H229508   6.062   0.869   6.181
 9858TIP3   OH229509   6.170   0.861   6.802
 9858TIP3    H129510   6.241   0.878   6.740
 9858TIP3    H229511   6.193   0.911   6.880
 9859TIP3   OH229512   0.579   5.050   0.057
 9859TIP3    H129513   0.509   5.082   0.113
 9859TIP3    H229514   0.615   5.129   0.016
 9860TIP3   OH229515   7.765   4.752   0.739
 9860TIP3    H129516   7.796   4.756   0.830
 9860TIP3    H229517   7.763   4.658   0.720
 9861TIP3   OH229518   7.428   4.746   0.197
 9861TIP3    H129519   7.504   4.743   0.139
 9861TIP3    H229520   7.437   4.829   0.244
 9862TIP3   OH229521   5.790   1.944   6.204
 9862TIP3    H129522   5.846   1.936   6.127
 9862TIP3    H229523   5.828   2.017   6.253
 9863TIP3   OH229524   7.716   5.761   0.584
 9863TIP3    H129525   7.627   5.734   0.562
 9863TIP3    H229526   7.728   5.733   0.675
 9864TIP3   OH229527   7.925   5.792   0.182
 9864TIP3    H129528   7.873   5.866   0.151
 9864TIP3    H229529   8.009   5.801   0.138
 9865TIP3   OH229530   8.319   6.022   0.333
 9865TIP3    H129531   8.357   6.016   0.421
 9865TIP3    H229532   8.382   6.076   0.284
 9866TIP3   OH229533   0.005   6.177   0.201
 9866TIP3    H129534   0.063   6.122   0.149
 9866TIP3    H229535   0.065   6.234   0.251
 9867TIP3   OH229536   7.585   6.024   0.237
 9867TIP3    H129537   7.497   6.046   0.206
 9867TIP3    H229538   7.607   6.095   0.298
 9868TIP3   OH229539   7.814   6.024   0.086
 9868TIP3    H129540   7.731   6.026   0.134
 9868TIP3    H229541   7.790   6.049  -0.004
 9869TIP3   OH229542   5.397   2.036   6.818
 9869TIP3    H129543   5.322   2.043   6.759
 9869TIP3    H229544   5.404   2.122   6.858
 9870TIP3   OH229545   5.661   1.977   6.873
 9870TIP3    H129546   5.569   1.993   6.851
 9870TIP3    H229547   5.709   2.043   6.823
 9871TIP3   OH229548   5.865   2.150   6.775
 9871TIP3    H129549   5.859   2.235   6.733
 9871TIP3    H229550   5.893   2.090   6.705
 9872TIP3   OH229551   4.667   1.809   6.893
 9872TIP3    H129552   4.692   1.785   6.983
 9872TIP3    H229553   4.736   1.773   6.838
 9873TIP3   OH229554   4.865   1.689   6.754
 9873TIP3    H129555   4.876   1.606   6.800
 9873TIP3    H229556   4.952   1.730   6.757
 9874TIP3   OH229557   5.133   1.778   6.778
 9874TIP3    H129558   5.150   1.685   6.763
 9874TIP3    H229559   5.188   1.801   6.853
 9875TIP3   OH229560   4.410   1.599   6.299
 9875TIP3    H129561   4.331   1.566   6.257
 9875TIP3    H229562   4.420   1.688   6.266
 9876TIP3   OH229563   5.230   1.757   5.870
 9876TIP3    H129564   5.313   1.787   5.832
 9876TIP3    H229565   5.201   1.687   5.812
 9877TIP3   OH229566   5.938   1.899   5.972
 9877TIP3    H129567   5.930   1.804   5.967
 9877TIP3    H229568   5.890   1.932   5.896
 9878TIP3   OH229569   4.502   1.535   5.922
 9878TIP3    H129570   4.500   1.610   5.981
 9878TIP3    H229571   4.594   1.525   5.899
 9879TIP3   OH229572   0.481   6.046   0.219
 9879TIP3    H129573   0.407   6.015   0.167
 9879TIP3    H229574   0.466   6.140   0.227
 9880TIP3   OH229575   7.415   1.415   5.928
 9880TIP3    H129576   7.393   1.506   5.908
 9880TIP3    H229577   7.344   1.364   5.890
 9881TIP3   OH229578   7.444   1.438   6.284
 9881TIP3    H129579   7.456   1.442   6.379
 9881TIP3    H229580   7.370   1.379   6.272
 9882TIP3   OH229581   6.720   1.288   6.678
 9882TIP3    H129582   6.742   1.218   6.738
 9882TIP3    H229583   6.775   1.362   6.705
 9883TIP3   OH229584   7.683   1.691   5.982
 9883TIP3    H129585   7.683   1.630   6.056
 9883TIP3    H229586   7.689   1.777   6.022
 9884TIP3   OH229587   6.715   1.711   6.364
 9884TIP3    H129588   6.696   1.618   6.376
 9884TIP3    H229589   6.810   1.715   6.351
 9885TIP3   OH229590   6.369   0.964   6.155
 9885TIP3    H129591   6.333   1.047   6.187
 9885TIP3    H229592   6.293   0.911   6.134
 9886TIP3   OH229593   6.464   1.280   6.343
 9886TIP3    H129594   6.526   1.208   6.352
 9886TIP3    H229595   6.518   1.357   6.326
 9887TIP3   OH229596   7.306   2.183   6.001
 9887TIP3    H129597   7.353   2.103   5.978
 9887TIP3    H229598   7.287   2.174   6.094
 9888TIP3   OH229599   7.592   1.158   6.406
 9888TIP3    H129600   7.579   1.064   6.416
 9888TIP3    H229601   7.570   1.176   6.315
 9889TIP3   OH229602   7.088   0.701   6.308
 9889TIP3    H129603   7.066   0.779   6.360
 9889TIP3    H229604   7.027   0.634   6.339
 9890TIP3   OH229605   7.594   0.856   6.045
 9890TIP3    H129606   7.686   0.831   6.039
 9890TIP3    H229607   7.559   0.843   5.957
 9891TIP3   OH229608   6.654   1.095   6.400
 9891TIP3    H129609   6.690   1.097   6.488
 9891TIP3    H229610   6.715   1.040   6.350
 9892TIP3   OH229611   7.046   1.254   6.238
 9892TIP3    H129612   7.138   1.237   6.255
 9892TIP3    H229613   7.013   1.172   6.201
 9893TIP3   OH229614   7.299   1.624   5.786
 9893TIP3    H129615   7.271   1.606   5.696
 9893TIP3    H229616   7.262   1.710   5.805
 9894TIP3   OH229617   7.070   1.575   6.545
 9894TIP3    H129618   7.008   1.627   6.597
 9894TIP3    H229619   7.100   1.635   6.477
 9895TIP3   OH229620   6.782   0.963   6.606
 9895TIP3    H129621   6.867   0.980   6.647
 9895TIP3    H229622   6.803   0.914   6.527
 9896TIP3   OH229623   6.906   1.764   6.664
 9896TIP3    H129624   6.895   1.854   6.632
 9896TIP3    H229625   6.824   1.744   6.709
 9897TIP3   OH229626   6.285   1.480   5.901
 9897TIP3    H129627   6.249   1.499   5.815
 9897TIP3    H229628   6.308   1.565   5.938
 9898TIP3   OH229629   7.654   1.950   6.073
 9898TIP3    H129630   7.589   1.960   6.003
 9898TIP3    H229631   7.709   2.028   6.066
 9899TIP3   OH229632   7.457   1.989   5.858
 9899TIP3    H129633   7.492   1.909   5.817
 9899TIP3    H229634   7.494   2.060   5.806
 9900TIP3   OH229635   7.581   1.776   5.742
 9900TIP3    H129636   7.569   1.702   5.681
 9900TIP3    H229637   7.622   1.738   5.819
 9901TIP3   OH229638   7.961   1.869   6.499
 9901TIP3    H129639   7.959   1.822   6.415
 9901TIP3    H229640   7.923   1.955   6.479
 9902TIP3   OH229641   7.246   1.270   5.761
 9902TIP3    H129642   7.164   1.315   5.743
 9902TIP3    H229643   7.292   1.270   5.677
 9903TIP3   OH229644   7.199   1.090   5.470
 9903TIP3    H129645   7.276   1.134   5.507
 9903TIP3    H229646   7.220   0.996   5.477
 9904TIP3   OH229647   8.139   1.517   6.329
 9904TIP3    H129648   8.062   1.573   6.321
 9904TIP3    H229649   8.185   1.527   6.246
 9905TIP3   OH229650   7.597   1.365   5.726
 9905TIP3    H129651   7.539   1.386   5.799
 9905TIP3    H229652   7.685   1.362   5.764
 9906TIP3   OH229653   7.905   1.397   6.466
 9906TIP3    H129654   7.994   1.432   6.469
 9906TIP3    H229655   7.855   1.462   6.416
 9907TIP3   OH229656   6.817   1.351   6.122
 9907TIP3    H129657   6.787   1.286   6.058
 9907TIP3    H229658   6.899   1.317   6.157
 9908TIP3   OH229659   6.966   1.759   6.233
 9908TIP3    H129660   6.910   1.752   6.156
 9908TIP3    H229661   7.051   1.724   6.205
 9909TIP3   OH229662   6.976   1.317   6.496
 9909TIP3    H129663   7.000   1.299   6.405
 9909TIP3    H229664   7.008   1.405   6.513
 9910TIP3   OH229665   7.553   1.941   6.327
 9910TIP3    H129666   7.521   2.031   6.319
 9910TIP3    H229667   7.590   1.922   6.241
 9911TIP3   OH229668   7.098   1.854   6.847
 9911TIP3    H129669   7.036   1.915   6.885
 9911TIP3    H229670   7.046   1.803   6.785
 9912TIP3   OH229671   7.430   1.234   5.546
 9912TIP3    H129672   7.489   1.294   5.591
 9912TIP3    H229673   7.456   1.239   5.454
 9913TIP3   OH229674   6.850   1.450   6.892
 9913TIP3    H129675   6.851   1.535   6.935
 9913TIP3    H229676   6.767   1.410   6.919
 9914TIP3   OH229677   7.198   1.883   5.809
 9914TIP3    H129678   7.278   1.931   5.832
 9914TIP3    H229679   7.145   1.947   5.762
 9915TIP3   OH229680   6.895   2.028   6.902
 9915TIP3    H129681   6.870   2.035   6.810
 9915TIP3    H229682   6.812   2.012   6.949
 9916TIP3   OH229683   6.704   1.181   5.916
 9916TIP3    H129684   6.624   1.226   5.888
 9916TIP3    H229685   6.673   1.111   5.973
 9917TIP3   OH229686   7.769   1.816   5.164
 9917TIP3    H129687   7.761   1.909   5.140
 9917TIP3    H229688   7.858   1.793   5.137
 9918TIP3   OH229689   6.485   1.577   6.850
 9918TIP3    H129690   6.414   1.556   6.790
 9918TIP3    H229691   6.520   1.492   6.877
 9919TIP3   OH229692   6.334   1.776   6.505
 9919TIP3    H129693   6.423   1.801   6.529
 9919TIP3    H229694   6.280   1.850   6.533
 9920TIP3   OH229695   8.173   2.264   6.500
 9920TIP3    H129696   8.208   2.175   6.496
 9920TIP3    H229697   8.108   2.262   6.570
 9921TIP3   OH229698   7.233   2.027   6.675
 9921TIP3    H129699   7.239   2.115   6.713
 9921TIP3    H229700   7.191   1.975   6.744
 9922TIP3   OH229701   7.090   2.104   5.639
 9922TIP3    H129702   7.045   2.084   5.557
 9922TIP3    H229703   7.052   2.186   5.669
 9923TIP3   OH229704   6.510   1.963   6.007
 9923TIP3    H129705   6.551   1.956   6.093
 9923TIP3    H229706   6.458   1.883   5.999
 9924TIP3   OH229707   7.279   2.038   5.260
 9924TIP3    H129708   7.329   1.965   5.224
 9924TIP3    H229709   7.316   2.051   5.347
 9925TIP3   OH229710   7.343   2.088   5.525
 9925TIP3    H129711   7.263   2.082   5.577
 9925TIP3    H229712   7.413   2.093   5.590
 9926TIP3   OH229713   6.672   1.775   6.813
 9926TIP3    H129714   6.722   1.765   6.893
 9926TIP3    H229715   6.603   1.708   6.819
 9927TIP3   OH229716   7.489   1.233   5.276
 9927TIP3    H129717   7.470   1.193   5.191
 9927TIP3    H229718   7.576   1.272   5.266
 9928TIP3   OH229719   7.028   1.121   6.683
 9928TIP3    H129720   6.960   1.130   6.749
 9928TIP3    H229721   7.007   1.188   6.618
 9929TIP3   OH229722   6.911   1.049   6.124
 9929TIP3    H129723   6.817   1.031   6.123
 9929TIP3    H229724   6.944   1.007   6.044
 9930TIP3   OH229725   7.388   1.092   5.914
 9930TIP3    H129726   7.326   1.154   5.876
 9930TIP3    H229727   7.446   1.069   5.842
 9931TIP3   OH229728   7.519   1.198   6.132
 9931TIP3    H129729   7.493   1.289   6.121
 9931TIP3    H229730   7.474   1.151   6.061
 9932TIP3   OH229731   6.829   1.113   6.871
 9932TIP3    H129732   6.837   1.143   6.962
 9932TIP3    H229733   6.798   1.023   6.879
 9933TIP3   OH229734   6.456   0.798   5.954
 9933TIP3    H129735   6.465   0.732   6.022
 9933TIP3    H229736   6.420   0.875   5.999
 9934TIP3   OH229737   7.484   1.373   6.549
 9934TIP3    H129738   7.510   1.292   6.505
 9934TIP3    H229739   7.552   1.387   6.615
 9935TIP3   OH229740   6.644   0.975   6.095
 9935TIP3    H129741   6.556   0.980   6.135
 9935TIP3    H229742   6.643   0.893   6.047
 9936TIP3   OH229743   6.978   0.916   5.897
 9936TIP3    H129744   7.072   0.905   5.886
 9936TIP3    H229745   6.944   0.921   5.807
 9937TIP3   OH229746   6.836   0.870   5.672
 9937TIP3    H129747   6.742   0.860   5.661
 9937TIP3    H229748   6.864   0.923   5.597
 9938TIP3   OH229749   7.899   2.552   6.635
 9938TIP3    H129750   7.902   2.583   6.545
 9938TIP3    H229751   7.958   2.611   6.683
 9939TIP3   OH229752   1.162   5.698   0.095
 9939TIP3    H129753   1.244   5.719   0.140
 9939TIP3    H229754   1.097   5.691   0.165
 9940TIP3   OH229755   7.298   1.196   6.316
 9940TIP3    H129756   7.362   1.142   6.268
 9940TIP3    H229757   7.308   1.170   6.407
 9941TIP3   OH229758   7.292   1.101   6.570
 9941TIP3    H129759   7.218   1.121   6.627
 9941TIP3    H229760   7.368   1.104   6.627
 9942TIP3   OH229761   7.011   1.406   5.700
 9942TIP3    H129762   6.935   1.352   5.679
 9942TIP3    H229763   6.987   1.449   5.782
 9943TIP3   OH229764   7.910   1.666   6.298
 9943TIP3    H129765   7.949   1.717   6.227
 9943TIP3    H229766   7.830   1.630   6.261
 9944TIP3   OH229767   7.382   0.888   5.544
 9944TIP3    H129768   7.335   0.809   5.569
 9944TIP3    H229769   7.416   0.924   5.626
 9945TIP3   OH229770   7.556   1.028   5.704
 9945TIP3    H129771   7.629   1.051   5.762
 9945TIP3    H229772   7.543   1.106   5.650
 9946TIP3   OH229773   6.707   1.431   6.367
 9946TIP3    H129774   6.745   1.405   6.283
 9946TIP3    H229775   6.753   1.377   6.432
 9947TIP3   OH229776   7.168   1.562   5.540
 9947TIP3    H129777   7.123   1.646   5.540
 9947TIP3    H229778   7.114   1.505   5.594
 9948TIP3   OH229779   0.935   5.364   0.038
 9948TIP3    H129780   0.962   5.363   0.129
 9948TIP3    H229781   0.862   5.302   0.033
 9949TIP3   OH229782   1.641   5.493   0.088
 9949TIP3    H129783   1.567   5.449   0.045
 9949TIP3    H229784   1.682   5.424   0.140
 9950TIP3   OH229785   7.494   1.972   6.627
 9950TIP3    H129786   7.398   1.973   6.632
 9950TIP3    H229787   7.522   2.032   6.696
 9951TIP3   OH229788   7.954   1.102   5.464
 9951TIP3    H129789   7.898   1.052   5.405
 9951TIP3    H229790   7.950   1.192   5.431
 9952TIP3   OH229791   7.693   1.894   5.424
 9952TIP3    H129792   7.670   1.824   5.486
 9952TIP3    H229793   7.713   1.848   5.342
 9953TIP3   OH229794   7.696   1.521   6.203
 9953TIP3    H129795   7.605   1.505   6.228
 9953TIP3    H229796   7.726   1.439   6.167
 9954TIP3   OH229797   6.804   1.759   6.011
 9954TIP3    H129798   6.803   1.836   5.955
 9954TIP3    H229799   6.712   1.742   6.032
 9955TIP3   OH229800   6.390   1.052   5.746
 9955TIP3    H129801   6.437   1.135   5.752
 9955TIP3    H229802   6.309   1.067   5.794
 9956TIP3   OH229803   6.912   1.521   5.923
 9956TIP3    H129804   6.888   1.610   5.949
 9956TIP3    H229805   6.880   1.466   5.995
 9957TIP3   OH229806   7.096   2.083   6.448
 9957TIP3    H129807   7.144   2.147   6.394
 9957TIP3    H229808   7.157   2.060   6.518
 9958TIP3   OH229809   6.742   1.983   5.862
 9958TIP3    H129810   6.656   1.991   5.902
 9958TIP3    H229811   6.779   2.072   5.867
 9959TIP3   OH229812   7.452   1.625   5.326
 9959TIP3    H129813   7.503   1.609   5.405
 9959TIP3    H229814   7.364   1.595   5.347
 9960TIP3   OH229815   7.765   2.088   5.117
 9960TIP3    H129816   7.767   2.141   5.037
 9960TIP3    H229817   7.700   2.132   5.173
 9961TIP3   OH229818   7.619   1.569   5.540
 9961TIP3    H129819   7.610   1.499   5.603
 9961TIP3    H229820   7.712   1.571   5.518
 9962TIP3   OH229821   6.538   1.967   6.635
 9962TIP3    H129822   6.587   1.904   6.689
 9962TIP3    H229823   6.553   2.051   6.678
 9963TIP3   OH229824   6.811   1.590   5.325
 9963TIP3    H129825   6.824   1.499   5.300
 9963TIP3    H229826   6.796   1.587   5.420
 9964TIP3   OH229827   6.754   1.604   5.596
 9964TIP3    H129828   6.816   1.576   5.663
 9964TIP3    H229829   6.753   1.700   5.603
 9965TIP3   OH229830   6.483   1.308   5.808
 9965TIP3    H129831   6.417   1.355   5.860
 9965TIP3    H229832   6.502   1.366   5.735
 9966TIP3   OH229833   7.024   1.790   5.536
 9966TIP3    H129834   6.940   1.813   5.575
 9966TIP3    H229835   7.048   1.865   5.483
 9967TIP3   OH229836   7.245   0.859   5.888
 9967TIP3    H129837   7.286   0.937   5.925
 9967TIP3    H229838   7.239   0.798   5.962
 9968TIP3   OH229839   7.508   1.116   6.741
 9968TIP3    H129840   7.488   1.168   6.819
 9968TIP3    H229841   7.541   1.033   6.776
 9969TIP3   OH229842   6.773   1.876   5.613
 9969TIP3    H129843   6.753   1.946   5.552
 9969TIP3    H229844   6.761   1.915   5.699
 9970TIP3   OH229845   7.786   1.267   6.116
 9970TIP3    H129846   7.703   1.231   6.149
 9970TIP3    H229847   7.852   1.234   6.177
 9971TIP3   OH229848   6.505   1.480   5.588
 9971TIP3    H129849   6.577   1.542   5.597
 9971TIP3    H229850   6.536   1.416   5.524
 9972TIP3   OH229851   6.251   0.847   5.626
 9972TIP3    H129852   6.298   0.915   5.674
 9972TIP3    H229853   6.255   0.770   5.683
 9973TIP3   OH229854   7.756   2.194   6.004
 9973TIP3    H129855   7.709   2.266   5.962
 9973TIP3    H229856   7.845   2.226   6.014
 9974TIP3   OH229857   6.334   1.745   5.985
 9974TIP3    H129858   6.291   1.780   6.063
 9974TIP3    H229859   6.290   1.786   5.912
 9975TIP3   OH229860   0.862   6.282   0.115
 9975TIP3    H129861   0.943   6.284   0.166
 9975TIP3    H229862   0.842   6.188   0.106
 9976TIP3   OH229863   1.318   6.222   0.143
 9976TIP3    H129864   1.413   6.209   0.148
 9976TIP3    H229865   1.289   6.159   0.077
 9977TIP3   OH229866   6.964   1.793   5.216
 9977TIP3    H129867   6.918   1.723   5.262
 9977TIP3    H229868   7.039   1.751   5.175
 9978TIP3   OH229869   7.572   2.138   6.826
 9978TIP3    H129870   7.586   2.086   6.905
 9978TIP3    H229871   7.646   2.199   6.824
 9979TIP3   OH229872   7.405   1.827   5.139
 9979TIP3    H129873   7.441   1.764   5.202
 9979TIP3    H229874   7.463   1.820   5.063
 9980TIP3   OH229875   0.973   5.678   0.298
 9980TIP3    H129876   0.987   5.585   0.314
 9980TIP3    H229877   0.887   5.682   0.257
 9981TIP3   OH229878   6.633   1.290   5.438
 9981TIP3    H129879   6.680   1.268   5.518
 9981TIP3    H229880   6.702   1.303   5.373
 9982TIP3   OH229881   1.614   5.766   0.089
 9982TIP3    H129882   1.563   5.790   0.011
 9982TIP3    H229883   1.626   5.672   0.081
 9983TIP3   OH229884   7.169   1.520   5.270
 9983TIP3    H129885   7.157   1.532   5.364
 9983TIP3    H229886   7.168   1.425   5.257
 9984TIP3   OH229887   7.719   1.777   6.583
 9984TIP3    H129888   7.814   1.784   6.571
 9984TIP3    H229889   7.709   1.712   6.653
 9985TIP3   OH229890   1.091   5.401   0.273
 9985TIP3    H129891   1.161   5.341   0.250
 9985TIP3    H229892   1.103   5.419   0.366
 9986TIP3   OH229893   6.798   1.234   5.656
 9986TIP3    H129894   6.776   1.203   5.744
 9986TIP3    H229895   6.841   1.159   5.615
 9987TIP3   OH229896   7.101   1.334   6.910
 9987TIP3    H129897   7.015   1.375   6.898
 9987TIP3    H229898   7.147   1.349   6.827
 9988TIP3   OH229899   6.925   1.052   5.487
 9988TIP3    H129900   6.904   1.043   5.394
 9988TIP3    H229901   7.020   1.065   5.489
 9989TIP3   OH229902   7.722   1.340   5.174
 9989TIP3    H129903   7.717   1.298   5.088
 9989TIP3    H229904   7.696   1.431   5.158
 9990TIP3   OH229905   7.204   1.060   6.888
 9990TIP3    H129906   7.145   1.059   6.813
 9990TIP3    H229907   7.204   1.150   6.918
 9991TIP3   OH229908   7.237   1.395   6.683
 9991TIP3    H129909   7.320   1.387   6.636
 9991TIP3    H229910   7.188   1.461   6.634
 9992TIP3   OH229911   1.301   5.203   0.176
 9992TIP3    H129912   1.339   5.116   0.175
 9992TIP3    H229913   1.353   5.254   0.115
 9993TIP3   OH229914   6.767   2.081   5.429
 9993TIP3    H129915   6.858   2.066   5.406
 9993TIP3    H229916   6.731   2.128   5.353
 9994TIP3   OH229917   6.232   1.473   5.609
 9994TIP3    H129918   6.327   1.487   5.606
 9994TIP3    H229919   6.220   1.386   5.571
 9995TIP3   OH229920   6.140   2.053   6.071
 9995TIP3    H129921   6.076   2.000   6.025
 9995TIP3    H229922   6.183   1.992   6.131
 9996TIP3   OH229923   6.283   1.884   6.238
 9996TIP3    H129924   6.274   1.814   6.303
 9996TIP3    H229925   6.333   1.952   6.283
 9997TIP3   OH229926   8.009   2.291   6.050
 9997TIP3    H129927   7.997   2.307   6.144
 9997TIP3    H229928   8.055   2.369   6.018
 9998TIP3   OH229929   7.961   2.322   6.322
 9998TIP3    H129930   7.895   2.260   6.353
 9998TIP3    H229931   8.040   2.298   6.371
 9999TIP3   OH229932   7.892   1.566   5.492
 9999TIP3    H129933   7.953   1.629   5.453
 9999TIP3    H229934   7.934   1.541   5.575
10000TIP3   OH229935   8.021   1.491   5.717
10000TIP3    H129936   7.957   1.450   5.774
10000TIP3    H229937   8.103   1.488   5.766
10001TIP3   OH229938   8.072   1.801   6.126
10001TIP3    H129939   8.128   1.736   6.084
10001TIP3    H229940   8.079   1.878   6.071
10002TIP3   OH229941   7.938   1.342   5.339
10002TIP3    H129942   7.862   1.339   5.281
10002TIP3    H229943   7.923   1.420   5.393
10003TIP3   OH229944   7.784   1.010   5.263
10003TIP3    H129945   7.794   1.056   5.179
10003TIP3    H229946   7.765   0.919   5.239
10004TIP3   OH229947   7.839   1.344   5.858
10004TIP3    H129948   7.882   1.265   5.827
10004TIP3    H229949   7.834   1.333   5.953
10005TIP3   OH229950   6.455   1.324   6.616
10005TIP3    H129951   6.447   1.301   6.523
10005TIP3    H229952   6.549   1.316   6.635
10006TIP3   OH229953   7.955   1.124   5.740
10006TIP3    H129954   7.911   1.046   5.774
10006TIP3    H229955   7.951   1.115   5.645
10007TIP3   OH229956   7.977   1.190   6.293
10007TIP3    H129957   8.073   1.194   6.289
10007TIP3    H229958   7.953   1.247   6.366
10008TIP3   OH229959   0.987   4.991   0.311
10008TIP3    H129960   1.077   4.961   0.320
10008TIP3    H229961   0.947   4.974   0.396
10009TIP3   OH229962   6.418   0.969   6.719
10009TIP3    H129963   6.476   0.993   6.646
10009TIP3    H229964   6.463   1.001   6.797
10010TIP3   OH229965   7.553   2.184   5.690
10010TIP3    H129966   7.618   2.179   5.620
10010TIP3    H229967   7.588   2.251   5.750
10011TIP3   OH229968   1.008   6.004   0.125
10011TIP3    H129969   0.914   5.987   0.119
10011TIP3    H229970   1.030   5.986   0.216
10012TIP3   OH229971   6.882   2.039   6.618
10012TIP3    H129972   6.828   2.113   6.591
10012TIP3    H229973   6.962   2.047   6.566
10013TIP3   OH229974   7.280   2.291   6.748
10013TIP3    H129975   7.318   2.292   6.836
10013TIP3    H229976   7.350   2.322   6.691
10014TIP3   OH229977   7.487   2.395   6.596
10014TIP3    H129978   7.554   2.337   6.559
10014TIP3    H229979   7.537   2.460   6.644
10015TIP3   OH229980   6.544   2.285   6.668
10015TIP3    H129981   6.453   2.302   6.645
10015TIP3    H229982   6.565   2.350   6.734
10016TIP3   OH229983   6.774   2.273   6.517
10016TIP3    H129984   6.692   2.279   6.565
10016TIP3    H229985   6.752   2.298   6.428
10017TIP3   OH229986   7.198   2.272   6.272
10017TIP3    H129987   7.117   2.298   6.229
10017TIP3    H229988   7.227   2.350   6.318
10018TIP3   OH229989   6.453   2.064   6.387
10018TIP3    H129990   6.478   2.038   6.476
10018TIP3    H229991   6.522   2.030   6.332
10019TIP3   OH229992   6.649   1.946   6.243
10019TIP3    H129993   6.663   1.864   6.289
10019TIP3    H229994   6.735   1.989   6.244
10020TIP3   OH229995   6.913   2.036   6.251
10020TIP3    H129996   6.937   1.944   6.235
10020TIP3    H229997   6.966   2.061   6.327
10021TIP3   OH229998   6.219   1.860   5.764
10021TIP3    H129999   6.134   1.829   5.733
10021TIP3    H230000   6.224   1.951   5.734
10022TIP3   OH230001   7.026   2.013   5.366
10022TIP3    H130002   7.110   2.041   5.328
10022TIP3    H230003   6.995   1.944   5.308
10023TIP3   OH230004   7.723   2.161   5.469
10023TIP3    H130005   7.719   2.066   5.458
10023TIP3    H230006   7.682   2.196   5.390
10024TIP3   OH230007   6.326   1.851   5.419
10024TIP3    H130008   6.325   1.865   5.514
10024TIP3    H230009   6.409   1.807   5.402
10025TIP3   OH230010   7.954   2.285   6.669
10025TIP3    H130011   7.896   2.234   6.613
10025TIP3    H230012   7.934   2.376   6.647
10026TIP3   OH230013   0.002   1.972   5.906
10026TIP3    H130014   0.022   1.890   5.861
10026TIP3    H230015   0.076   1.986   5.964
10027TIP3   OH230016   8.216   1.218   5.738
10027TIP3    H130017   8.127   1.187   5.753
10027TIP3    H230018   8.232   1.201   5.645
10028TIP3   OH230019   8.279   1.463   5.835
10028TIP3    H130020   8.265   1.371   5.815
10028TIP3    H230021   8.337   1.495   5.765
10029TIP3   OH230022   8.085   1.730   5.376
10029TIP3    H130023   8.048   1.756   5.292
10029TIP3    H230024   8.106   1.812   5.421
10030TIP3   OH230025   8.278   1.807   6.321
10030TIP3    H130026   8.203   1.818   6.263
10030TIP3    H230027   8.258   1.730   6.373
10031TIP3   OH230028   8.121   2.041   5.990
10031TIP3    H130029   8.212   2.064   6.009
10031TIP3    H230030   8.071   2.119   6.014
10032TIP3   OH230031   8.307   2.226   5.511
10032TIP3    H130032   8.371   2.213   5.581
10032TIP3    H230033   8.270   2.139   5.497
10033TIP3   OH230034   8.236   1.144   5.472
10033TIP3    H130035   8.268   1.133   5.383
10033TIP3    H230036   8.143   1.122   5.468
10034TIP3   OH230037   8.160   1.308   5.183
10034TIP3    H130038   8.215   1.384   5.203
10034TIP3    H230039   8.082   1.320   5.237
10035TIP3   OH230040   8.323   2.235   6.096
10035TIP3    H130041   8.400   2.190   6.130
10035TIP3    H230042   8.326   2.322   6.134
10036TIP3   OH230043   8.270   1.552   5.252
10036TIP3    H130044   8.215   1.596   5.317
10036TIP3    H230045   8.291   1.621   5.189
10037TIP3   OH230046   8.303   1.775   5.083
10037TIP3    H130047   8.334   1.849   5.136
10037TIP3    H230048   8.353   1.782   5.002
10038TIP3   OH230049   8.153   1.047   5.102
10038TIP3    H130050   8.144   1.135   5.137
10038TIP3    H230051   8.123   0.990   5.173
10039TIP3   OH230052   8.128   1.990   5.473
10039TIP3    H130053   8.093   2.030   5.553
10039TIP3    H230054   8.083   2.035   5.402
10040TIP3   OH230055   8.302   2.517   6.536
10040TIP3    H130056   8.359   2.487   6.607
10040TIP3    H230057   8.257   2.438   6.506
10041TIP3   OH230058   8.027   1.737   5.093
10041TIP3    H130059   8.123   1.744   5.091
10041TIP3    H230060   8.009   1.649   5.060
10042TIP3   OH230061   7.940   2.310   5.549
10042TIP3    H130062   7.869   2.258   5.511
10042TIP3    H230063   7.983   2.249   5.610
10043TIP3   OH230064   8.071   2.130   5.715
10043TIP3    H130065   8.057   2.070   5.788
10043TIP3    H230066   8.130   2.197   5.751
10044TIP3   OH230067   8.251   1.590   6.078
10044TIP3    H130068   8.255   1.542   5.995
10044TIP3    H230069   8.340   1.620   6.093
10045TIP3   OH230070   8.319   2.507   6.170
10045TIP3    H130071   8.234   2.535   6.137
10045TIP3    H230072   8.340   2.570   6.239
10046TIP3   OH230073   0.045   2.482   6.006
10046TIP3    H130074  -0.030   2.491   6.066
10046TIP3    H230075   0.023   2.538   5.932
10047TIP3   OH230076   8.248   2.307   5.840
10047TIP3    H130077   8.262   2.286   5.932
10047TIP3    H230078   8.327   2.277   5.795
10048TIP3   OH230079   8.471   2.188   5.737
10048TIP3    H130080   8.470   2.106   5.787
10048TIP3    H230081   8.551   2.232   5.765
10049TIP3   OH230082   8.012   2.102   5.249
10049TIP3    H130083   7.926   2.078   5.216
10049TIP3    H230084   8.022   2.195   5.226
10050TIP3   OH230085   8.092   2.134   4.945
10050TIP3    H130086   8.054   2.198   5.005
10050TIP3    H230087   8.133   2.069   5.003
10051TIP3   OH230088   4.494   6.473   0.166
10051TIP3    H130089   4.476   6.562   0.136
10051TIP3    H230090   4.434   6.418   0.116
10052TIP3   OH230091   4.539   6.446   0.484
10052TIP3    H130092   4.585   6.367   0.512
10052TIP3    H230093   4.500   6.423   0.400
10053TIP3   OH230094   4.801   6.759   0.158
10053TIP3    H130095   4.782   6.697   0.229
10053TIP3    H230096   4.823   6.841   0.203
10054TIP3   OH230097   3.755   6.741   0.667
10054TIP3    H130098   3.702   6.662   0.672
10054TIP3    H230099   3.831   6.716   0.615
10055TIP3   OH230100   3.516   6.313   0.584
10055TIP3    H130101   3.490   6.221   0.589
10055TIP3    H230102   3.605   6.311   0.549
10056TIP3   OH230103   4.427   7.236   0.195
10056TIP3    H130104   4.474   7.171   0.142
10056TIP3    H230105   4.375   7.184   0.257
10057TIP3   OH230106   4.418   6.704   0.451
10057TIP3    H130107   4.457   6.625   0.490
10057TIP3    H230108   4.413   6.766   0.523
10058TIP3   OH230109   5.365   5.989   0.480
10058TIP3    H130110   5.288   6.037   0.510
10058TIP3    H230111   5.399   6.041   0.407
10059TIP3   OH230112   4.715   6.223   0.561
10059TIP3    H130113   4.715   6.156   0.629
10059TIP3    H230114   4.755   6.181   0.486
10060TIP3   OH230115   4.127   5.838   0.562
10060TIP3    H130116   4.061   5.869   0.624
10060TIP3    H230117   4.077   5.794   0.494
10061TIP3   OH230118   4.786   5.916   0.147
10061TIP3    H130119   4.828   5.954   0.225
10061TIP3    H230120   4.840   5.946   0.074
10062TIP3   OH230121   4.069   6.271   0.442
10062TIP3    H130122   4.158   6.258   0.474
10062TIP3    H230123   4.035   6.183   0.427
10063TIP3   OH230124   5.392   6.180   0.791
10063TIP3    H130125   5.313   6.233   0.778
10063TIP3    H230126   5.442   6.228   0.857
10064TIP3   OH230127   1.577   2.684   6.943
10064TIP3    H130128   1.535   2.649   6.864
10064TIP3    H230129   1.525   2.760   6.967
10065TIP3   OH230130   4.910   6.039   0.358
10065TIP3    H130131   4.916   5.965   0.419
10065TIP3    H230132   4.992   6.087   0.371
10066TIP3   OH230133   3.393   6.544   0.079
10066TIP3    H130134   3.299   6.545   0.065
10066TIP3    H230135   3.423   6.630   0.050
10067TIP3   OH230136   4.835   7.007   0.283
10067TIP3    H130137   4.750   7.000   0.325
10067TIP3    H230138   4.839   7.097   0.252
10068TIP3   OH230139   4.957   5.886   0.826
10068TIP3    H130140   4.940   5.875   0.732
10068TIP3    H230141   5.040   5.841   0.840
10069TIP3   OH230142   1.695   3.047   6.954
10069TIP3    H130143   1.744   2.967   6.934
10069TIP3    H230144   1.755   3.117   6.929
10070TIP3   OH230145   1.821   2.818   6.876
10070TIP3    H130146   1.750   2.755   6.885
10070TIP3    H230147   1.885   2.792   6.943
10071TIP3   OH230148   5.024   6.901   0.679
10071TIP3    H130149   5.034   6.823   0.624
10071TIP3    H230150   5.027   6.974   0.617
10072TIP3   OH230151   1.511   2.331   6.916
10072TIP3    H130152   1.421   2.359   6.898
10072TIP3    H230153   1.553   2.329   6.831
10073TIP3   OH230154   1.475   2.112   6.624
10073TIP3    H130155   1.543   2.166   6.666
10073TIP3    H230156   1.525   2.045   6.576
10074TIP3   OH230157   5.199   6.521   0.461
10074TIP3    H130158   5.117   6.569   0.475
10074TIP3    H230159   5.248   6.573   0.398
10075TIP3   OH230160   1.848   2.406   6.895
10075TIP3    H130161   1.798   2.424   6.975
10075TIP3    H230162   1.935   2.380   6.926
10076TIP3   OH230163   4.884   6.499   0.930
10076TIP3    H130164   4.893   6.592   0.909
10076TIP3    H230165   4.824   6.465   0.864
10077TIP3   OH230166   3.911   6.472   0.357
10077TIP3    H130167   3.933   6.488   0.265
10077TIP3    H230168   3.973   6.405   0.385
10078TIP3   OH230169   3.986   6.676   0.540
10078TIP3    H130170   3.996   6.609   0.472
10078TIP3    H230171   4.063   6.731   0.530
10079TIP3   OH230172   3.947   6.302   0.748
10079TIP3    H130173   3.958   6.207   0.743
10079TIP3    H230174   3.971   6.325   0.838
10080TIP3   OH230175   4.590   7.069   0.407
10080TIP3    H130176   4.572   7.160   0.431
10080TIP3    H230177   4.642   7.035   0.480
10081TIP3   OH230178   1.692   2.266   6.713
10081TIP3    H130179   1.750   2.326   6.762
10081TIP3    H230180   1.723   2.272   6.623
10082TIP3   OH230181   4.276   6.934   0.034
10082TIP3    H130182   4.358   6.984   0.040
10082TIP3    H230183   4.217   6.991  -0.017
10083TIP3   OH230184   2.202   1.479   6.740
10083TIP3    H130185   2.125   1.503   6.793
10083TIP3    H230186   2.221   1.558   6.689
10084TIP3   OH230187   3.779   6.207   0.138
10084TIP3    H130188   3.764   6.300   0.119
10084TIP3    H230189   3.780   6.202   0.233
10085TIP3   OH230190   2.024   2.856   6.341
10085TIP3    H130191   2.018   2.950   6.322
10085TIP3    H230192   2.113   2.832   6.317
10086TIP3   OH230193   5.237   7.252   0.655
10086TIP3    H130194   5.273   7.173   0.694
10086TIP3    H230195   5.143   7.248   0.673
10087TIP3   OH230196   4.350   7.116   0.945
10087TIP3    H130197   4.327   7.208   0.960
10087TIP3    H230198   4.275   7.067   0.979
10088TIP3   OH230199   1.325   3.147   6.811
10088TIP3    H130200   1.277   3.126   6.730
10088TIP3    H230201   1.292   3.233   6.837
10089TIP3   OH230202   3.538   7.034   0.205
10089TIP3    H130203   3.605   7.023   0.273
10089TIP3    H230204   3.485   6.955   0.211
10090TIP3   OH230205   1.531   3.084   6.435
10090TIP3    H130206   1.580   3.011   6.400
10090TIP3    H230207   1.565   3.096   6.524
10091TIP3   OH230208   1.578   3.127   6.706
10091TIP3    H130209   1.491   3.130   6.745
10091TIP3    H230210   1.632   3.085   6.772
10092TIP3   OH230211   1.770   2.241   6.454
10092TIP3    H130212   1.726   2.240   6.369
10092TIP3    H230213   1.852   2.288   6.438
10093TIP3   OH230214   1.483   1.661   6.744
10093TIP3    H130215   1.463   1.649   6.836
10093TIP3    H230216   1.447   1.584   6.700
10094TIP3   OH230217   3.954   6.046   0.359
10094TIP3    H130218   3.926   5.967   0.405
10094TIP3    H230219   3.957   6.020   0.267
10095TIP3   OH230220   4.450   6.110   0.086
10095TIP3    H130221   4.398   6.186   0.057
10095TIP3    H230222   4.515   6.098   0.017
10096TIP3   OH230223   4.727   6.186   0.168
10096TIP3    H130224   4.650   6.202   0.223
10096TIP3    H230225   4.724   6.093   0.149
10097TIP3   OH230226   1.150   1.615   6.722
10097TIP3    H130227   1.142   1.617   6.817
10097TIP3    H230228   1.070   1.658   6.691
10098TIP3   OH230229   4.683   6.392   0.781
10098TIP3    H130230   4.713   6.348   0.702
10098TIP3    H230231   4.605   6.343   0.807
10099TIP3   OH230232   4.377   5.727   0.516
10099TIP3    H130233   4.288   5.755   0.536
10099TIP3    H230234   4.432   5.782   0.573
10100TIP3   OH230235   3.829   5.826   0.452
10100TIP3    H130236   3.750   5.877   0.435
10100TIP3    H230237   3.830   5.759   0.384
10101TIP3   OH230238   3.983   5.937   0.110
10101TIP3    H130239   4.071   5.953   0.074
10101TIP3    H230240   3.923   5.955   0.038
10102TIP3   OH230241   4.696   6.013   0.752
10102TIP3    H130242   4.768   5.974   0.801
10102TIP3    H230243   4.673   5.947   0.687
10103TIP3   OH230244   1.016   1.952   6.820
10103TIP3    H130245   0.976   1.884   6.766
10103TIP3    H230246   1.081   1.994   6.763
10104TIP3   OH230247   5.027   7.572   0.959
10104TIP3    H130248   4.970   7.562   0.883
10104TIP3    H230249   5.044   7.666   0.965
10105TIP3   OH230250   4.316   6.156   0.517
10105TIP3    H130251   4.295   6.081   0.462
10105TIP3    H230252   4.273   6.138   0.600
10106TIP3   OH230253   3.935   5.554   0.567
10106TIP3    H130254   3.880   5.507   0.504
10106TIP3    H230255   4.020   5.511   0.561
10107TIP3   OH230256   1.258   2.437   6.859
10107TIP3    H130257   1.180   2.384   6.846
10107TIP3    H230258   1.245   2.480   6.943
10108TIP3   OH230259   5.007   6.720   0.458
10108TIP3    H130260   5.040   6.786   0.396
10108TIP3    H230261   4.918   6.703   0.428
10109TIP3   OH230262   1.728   1.779   6.752
10109TIP3    H130263   1.634   1.759   6.747
10109TIP3    H230264   1.732   1.873   6.769
10110TIP3   OH230265   1.798   2.035   6.829
10110TIP3    H130266   1.894   2.029   6.832
10110TIP3    H230267   1.782   2.114   6.777
10111TIP3   OH230268   3.780   6.457   0.600
10111TIP3    H130269   3.818   6.463   0.512
10111TIP3    H230270   3.842   6.404   0.649
10112TIP3   OH230271   1.421   2.605   6.719
10112TIP3    H130272   1.375   2.688   6.717
10112TIP3    H230273   1.361   2.545   6.763
10113TIP3   OH230274   4.571   7.094   0.783
10113TIP3    H130275   4.509   7.104   0.856
10113TIP3    H230276   4.651   7.062   0.825
10114TIP3   OH230277   2.212   2.119   6.655
10114TIP3    H130278   2.153   2.076   6.594
10114TIP3    H230279   2.217   2.210   6.624
10115TIP3   OH230280   5.291   7.001   0.759
10115TIP3    H130281   5.235   6.941   0.810
10115TIP3    H230282   5.306   6.954   0.677
10116TIP3   OH230283   1.937   2.932   6.611
10116TIP3    H130284   1.906   2.870   6.678
10116TIP3    H230285   1.957   2.877   6.535
10117TIP3   OH230286   4.763   6.566   0.361
10117TIP3    H130287   4.679   6.529   0.387
10117TIP3    H230288   4.816   6.490   0.337
10118TIP3   OH230289   3.974   6.832   0.219
10118TIP3    H130290   3.931   6.862   0.138
10118TIP3    H230291   3.906   6.785   0.266
10119TIP3   OH230292   0.533   2.132   6.902
10119TIP3    H130293   0.599   2.201   6.898
10119TIP3    H230294   0.458   2.172   6.947
10120TIP3   OH230295   4.075   6.579   0.154
10120TIP3    H130296   4.062   6.673   0.160
10120TIP3    H230297   4.134   6.558   0.227
10121TIP3   OH230298   4.303   7.151   0.587
10121TIP3    H130299   4.289   7.241   0.558
10121TIP3    H230300   4.234   7.134   0.650
10122TIP3   OH230301   3.774   7.051   0.060
10122TIP3    H130302   3.690   7.067   0.103
10122TIP3    H230303   3.818   7.136   0.061
10123TIP3   OH230304   4.615   6.772   0.791
10123TIP3    H130305   4.546   6.706   0.790
10123TIP3    H230306   4.683   6.736   0.734
10124TIP3   OH230307   1.701   2.668   6.491
10124TIP3    H130308   1.755   2.639   6.565
10124TIP3    H230309   1.617   2.624   6.503
10125TIP3   OH230310   4.738   7.304   0.707
10125TIP3    H130311   4.685   7.225   0.699
10125TIP3    H230312   4.735   7.345   0.621
10126TIP3   OH230313   2.021   3.130   6.297
10126TIP3    H130314   2.043   3.191   6.226
10126TIP3    H230315   1.948   3.172   6.343
10127TIP3   OH230316   1.877   2.575   6.678
10127TIP3    H130317   1.864   2.527   6.760
10127TIP3    H230318   1.971   2.589   6.672
10128TIP3   OH230319   1.062   2.631   6.500
10128TIP3    H130320   1.072   2.539   6.474
10128TIP3    H230321   1.048   2.627   6.595
10129TIP3   OH230322   1.005   2.645   6.768
10129TIP3    H130323   1.045   2.611   6.848
10129TIP3    H230324   1.004   2.740   6.779
10130TIP3   OH230325   0.712   2.326   6.935
10130TIP3    H130326   0.661   2.401   6.966
10130TIP3    H230327   0.793   2.365   6.900
10131TIP3   OH230328   4.621   5.708   0.067
10131TIP3    H130329   4.600   5.735  -0.023
10131TIP3    H230330   4.660   5.786   0.107
10132TIP3   OH230331   1.277   2.834   6.713
10132TIP3    H130332   1.189   2.855   6.744
10132TIP3    H230333   1.300   2.907   6.655
10133TIP3   OH230334   4.255   5.912   0.061
10133TIP3    H130335   4.299   5.974   0.003
10133TIP3    H230336   4.273   5.944   0.149
10134TIP3   OH230337   4.461   5.607   0.262
10134TIP3    H130338   4.475   5.661   0.340
10134TIP3    H230339   4.520   5.644   0.197
10135TIP3   OH230340   1.023   2.919   6.776
10135TIP3    H130341   1.006   2.983   6.707
10135TIP3    H230342   0.994   2.962   6.856
10136TIP3   OH230343   3.986   5.664   0.050
10136TIP3    H130344   3.987   5.759   0.063
10136TIP3    H230345   4.078   5.638   0.057
10137TIP3   OH230346   4.898   6.333   0.323
10137TIP3    H130347   4.842   6.267   0.282
10137TIP3    H230348   4.975   6.284   0.352
10138TIP3   OH230349   0.749   2.543   6.733
10138TIP3    H130350   0.825   2.599   6.751
10138TIP3    H230351   0.785   2.469   6.684
10139TIP3   OH230352   0.697   1.798   6.801
10139TIP3    H130353   0.731   1.857   6.869
10139TIP3    H230354   0.679   1.717   6.847
10140TIP3   OH230355   4.845   7.280   0.242
10140TIP3    H130356   4.787   7.338   0.192
10140TIP3    H230357   4.933   7.312   0.221
10141TIP3   OH230358   3.385   6.805   0.233
10141TIP3    H130359   3.306   6.786   0.283
10141TIP3    H230360   3.354   6.829   0.146
10142TIP3   OH230361   1.217   2.832   6.395
10142TIP3    H130362   1.168   2.762   6.438
10142TIP3    H230363   1.291   2.788   6.354
10143TIP3   OH230364   1.655   2.873   6.316
10143TIP3    H130365   1.687   2.808   6.380
10143TIP3    H230366   1.715   2.865   6.242
10144TIP3   OH230367   0.880   2.331   6.616
10144TIP3    H130368   0.929   2.303   6.693
10144TIP3    H230369   0.947   2.344   6.548
10145TIP3   OH230370   1.442   2.549   6.450
10145TIP3    H130371   1.423   2.559   6.543
10145TIP3    H230372   1.427   2.456   6.433
10146TIP3   OH230373   4.883   6.771   0.901
10146TIP3    H130374   4.927   6.824   0.835
10146TIP3    H230375   4.789   6.788   0.888
10147TIP3   OH230376   1.048   2.259   6.824
10147TIP3    H130377   1.020   2.214   6.903
10147TIP3    H230378   1.104   2.196   6.778
10148TIP3   OH230379   1.202   2.087   6.672
10148TIP3    H130380   1.175   2.090   6.580
10148TIP3    H230381   1.298   2.092   6.668
10149TIP3   OH230382   1.988   2.375   6.352
10149TIP3    H130383   1.977   2.334   6.266
10149TIP3    H230384   1.962   2.466   6.338
10150TIP3   OH230385   1.022   3.130   6.600
10150TIP3    H130386   1.112   3.112   6.575
10150TIP3    H230387   0.984   3.175   6.524
10151TIP3   OH230388   0.480   2.521   6.691
10151TIP3    H130389   0.571   2.537   6.717
10151TIP3    H230390   0.473   2.425   6.687
10152TIP3   OH230391   3.134   7.041   0.233
10152TIP3    H130392   3.102   7.130   0.249
10152TIP3    H230393   3.192   7.023   0.307
10153TIP3   OH230394   3.228   7.047   0.496
10153TIP3    H130395   3.230   7.050   0.592
10153TIP3    H230396   3.183   7.128   0.471
10154TIP3   OH230397   5.086   7.397   0.210
10154TIP3    H130398   5.109   7.414   0.301
10154TIP3    H230399   5.168   7.410   0.162
10155TIP3   OH230400   5.097   7.418   0.483
10155TIP3    H130401   5.040   7.342   0.491
10155TIP3    H230402   5.177   7.392   0.529
10156TIP3   OH230403   2.155   2.593   6.672
10156TIP3    H130404   2.211   2.663   6.639
10156TIP3    H230405   2.206   2.551   6.741
10157TIP3   OH230406   2.308   2.448   6.846
10157TIP3    H130407   2.242   2.409   6.904
10157TIP3    H230408   2.371   2.488   6.906
10158TIP3   OH230409   5.174   6.885   0.322
10158TIP3    H130410   5.229   6.814   0.289
10158TIP3    H230411   5.191   6.958   0.263
10159TIP3   OH230412   4.978   7.165   0.500
10159TIP3    H130413   4.899   7.126   0.540
10159TIP3    H230414   4.977   7.133   0.410
10160TIP3   OH230415   2.197   2.361   6.528
10160TIP3    H130416   2.125   2.359   6.465
10160TIP3    H230417   2.182   2.440   6.579
10161TIP3   OH230418   2.045   2.012   6.470
10161TIP3    H130419   1.996   2.044   6.394
10161TIP3    H230420   2.042   1.916   6.462
10162TIP3   OH230421   4.942   6.330   0.046
10162TIP3    H130422   4.918   6.238   0.039
10162TIP3    H230423   4.933   6.351   0.138
10163TIP3   OH230424   5.173   6.803   0.918
10163TIP3    H130425   5.120   6.745   0.864
10163TIP3    H230426   5.114   6.831   0.988
10164TIP3   OH230427   5.336   6.456   0.978
10164TIP3    H130428   5.309   6.445   1.069
10164TIP3    H230429   5.417   6.406   0.971
10165TIP3   OH230430   2.014   1.743   6.436
10165TIP3    H130431   2.082   1.712   6.496
10165TIP3    H230432   1.935   1.697   6.465
10166TIP3   OH230433   2.100   2.003   6.880
10166TIP3    H130434   2.158   1.928   6.895
10166TIP3    H230435   2.141   2.050   6.807
10167TIP3   OH230436   5.108   6.202   0.439
10167TIP3    H130437   5.196   6.231   0.415
10167TIP3    H230438   5.119   6.156   0.522
10168TIP3   OH230439   5.187   6.338   0.697
10168TIP3    H130440   5.110   6.302   0.742
10168TIP3    H230441   5.154   6.364   0.611
10169TIP3   OH230442   5.056   5.755   0.011
10169TIP3    H130443   5.097   5.703   0.081
10169TIP3    H230444   4.982   5.702  -0.018
10170TIP3   OH230445   2.246   1.697   6.585
10170TIP3    H130446   2.291   1.637   6.526
10170TIP3    H230447   2.305   1.773   6.591
10171TIP3   OH230448   1.835   3.259   6.863
10171TIP3    H130449   1.884   3.240   6.784
10171TIP3    H230450   1.882   3.332   6.904
10172TIP3   OH230451   3.855   6.997   0.876
10172TIP3    H130452   3.851   7.079   0.828
10172TIP3    H230453   3.920   6.944   0.829
10173TIP3   OH230454   4.618   7.552   0.843
10173TIP3    H130455   4.678   7.478   0.848
10173TIP3    H230456   4.545   7.528   0.900
10174TIP3   OH230457   3.842   7.247   0.770
10174TIP3    H130458   3.804   7.325   0.809
10174TIP3    H230459   3.811   7.248   0.680
10175TIP3   OH230460   4.297   7.397   0.445
10175TIP3    H130461   4.241   7.396   0.368
10175TIP3    H230462   4.279   7.481   0.487
10176TIP3   OH230463   4.547   7.319   0.495
10176TIP3    H130464   4.462   7.347   0.462
10176TIP3    H230465   4.610   7.375   0.450
10177TIP3   OH230466   4.765   7.465   0.434
10177TIP3    H130467   4.769   7.542   0.378
10177TIP3    H230468   4.806   7.395   0.382
10178TIP3   OH230469   3.425   7.191   0.666
10178TIP3    H130470   3.480   7.202   0.743
10178TIP3    H230471   3.471   7.126   0.613
10179TIP3   OH230472   3.756   6.977   0.357
10179TIP3    H130473   3.757   6.884   0.381
10179TIP3    H230474   3.843   7.009   0.380
10180TIP3   OH230475   4.066   7.078   0.309
10180TIP3    H130476   4.030   6.999   0.268
10180TIP3    H230477   4.160   7.060   0.315
10181TIP3   OH230478   4.642   5.688   0.665
10181TIP3    H130479   4.613   5.597   0.670
10181TIP3    H230480   4.676   5.698   0.576
10182TIP3   OH230481   5.159   5.645   0.483
10182TIP3    H130482   5.219   5.676   0.415
10182TIP3    H230483   5.072   5.663   0.447
10183TIP3   OH230484   5.243   5.764   0.252
10183TIP3    H130485   5.296   5.700   0.205
10183TIP3    H230486   5.266   5.848   0.213
10184TIP3   OH230487   4.221   5.509   0.375
10184TIP3    H130488   4.308   5.551   0.374
10184TIP3    H230489   4.214   5.472   0.463
10185TIP3   OH230490   4.728   5.679   0.404
10185TIP3    H130491   4.806   5.723   0.372
10185TIP3    H230492   4.743   5.586   0.384
10186TIP3   OH230493   2.011   1.582   6.909
10186TIP3    H130494   1.928   1.615   6.941
10186TIP3    H230495   2.014   1.491   6.938
10187TIP3   OH230496   0.476   2.870   6.919
10187TIP3    H130497   0.399   2.832   6.876
10187TIP3    H230498   0.470   2.964   6.900
10188TIP3   OH230499   4.260   5.641   0.072
10188TIP3    H130500   4.328   5.615   0.135
10188TIP3    H230501   4.263   5.737   0.071
10189TIP3   OH230502   1.277   3.056   6.537
10189TIP3    H130503   1.360   3.083   6.499
10189TIP3    H230504   1.247   2.985   6.481
10190TIP3   OH230505   1.974   3.200   6.633
10190TIP3    H130506   1.968   3.105   6.629
10190TIP3    H230507   1.931   3.231   6.553
10191TIP3   OH230508   0.594   2.908   6.613
10191TIP3    H130509   0.591   2.912   6.708
10191TIP3    H230510   0.672   2.856   6.593
10192TIP3   OH230511   4.999   7.330   0.764
10192TIP3    H130512   4.913   7.291   0.750
10192TIP3    H230513   4.984   7.424   0.752
10193TIP3   OH230514   3.470   2.724   6.566
10193TIP3    H130515   3.436   2.811   6.542
10193TIP3    H230516   3.399   2.664   6.542
10194TIP3   OH230517   6.278   6.729   0.030
10194TIP3    H130518   6.341   6.714   0.100
10194TIP3    H230519   6.242   6.642   0.011
10195TIP3   OH230520   5.593   6.593   0.362
10195TIP3    H130521   5.622   6.524   0.421
10195TIP3    H230522   5.673   6.626   0.322
10196TIP3   OH230523   3.738   3.030   6.664
10196TIP3    H130524   3.727   2.962   6.730
10196TIP3    H230525   3.758   3.109   6.715
10197TIP3   OH230526   5.572   7.010   0.087
10197TIP3    H130527   5.561   6.915   0.083
10197TIP3    H230528   5.667   7.023   0.089
10198TIP3   OH230529   2.449   2.212   6.791
10198TIP3    H130530   2.414   2.299   6.806
10198TIP3    H230531   2.376   2.162   6.754
10199TIP3   OH230532   5.357   6.551   0.049
10199TIP3    H130533   5.402   6.472   0.079
10199TIP3    H230534   5.428   6.611   0.027
10200TIP3   OH230535   3.395   3.454   6.681
10200TIP3    H130536   3.418   3.392   6.612
10200TIP3    H230537   3.408   3.404   6.762
10201TIP3   OH230538   6.110   6.957   0.039
10201TIP3    H130539   6.152   6.875   0.011
10201TIP3    H230540   6.181   7.011   0.071
10202TIP3   OH230541   7.146   6.275   0.056
10202TIP3    H130542   7.162   6.360   0.098
10202TIP3    H230543   7.169   6.289  -0.036
10203TIP3   OH230544   6.524   6.435   0.076
10203TIP3    H130545   6.560   6.353   0.109
10203TIP3    H230546   6.477   6.410  -0.004
10204TIP3   OH230547   5.876   6.078   0.038
10204TIP3    H130548   5.860   6.149  -0.024
10204TIP3    H230549   5.823   6.005   0.005
10205TIP3   OH230550   3.732   2.190   6.621
10205TIP3    H130551   3.798   2.183   6.690
10205TIP3    H230552   3.780   2.223   6.545
10206TIP3   OH230553   5.488   6.334   0.149
10206TIP3    H130554   5.577   6.328   0.182
10206TIP3    H230555   5.484   6.269   0.078
10207TIP3   OH230556   3.087   2.499   6.919
10207TIP3    H130557   3.182   2.484   6.924
10207TIP3    H230558   3.051   2.416   6.889
10208TIP3   OH230559   7.203   6.491   0.232
10208TIP3    H130560   7.113   6.523   0.225
10208TIP3    H230561   7.235   6.527   0.314
10209TIP3   OH230562   5.836   6.112   0.440
10209TIP3    H130563   5.790   6.175   0.385
10209TIP3    H230564   5.817   6.141   0.530
10210TIP3   OH230565   3.348   2.936   6.438
10210TIP3    H130566   3.315   2.913   6.351
10210TIP3    H230567   3.302   3.017   6.461
10211TIP3   OH230568   5.962   6.872   0.252
10211TIP3    H130569   5.901   6.939   0.280
10211TIP3    H230570   6.011   6.912   0.180
10212TIP3   OH230571   3.902   2.213   6.831
10212TIP3    H130572   3.860   2.186   6.913
10212TIP3    H230573   3.957   2.287   6.854
10213TIP3   OH230574   5.742   6.245   0.213
10213TIP3    H130575   5.806   6.314   0.232
10213TIP3    H230576   5.789   6.185   0.153
10214TIP3   OH230577   5.777   7.064   0.322
10214TIP3    H130578   5.749   7.154   0.304
10214TIP3    H230579   5.702   7.023   0.364
10215TIP3   OH230580   2.333   2.775   6.561
10215TIP3    H130581   2.303   2.794   6.472
10215TIP3    H230582   2.357   2.860   6.596
10216TIP3   OH230583   3.771   3.275   6.809
10216TIP3    H130584   3.683   3.268   6.845
10216TIP3    H230585   3.771   3.358   6.761
10217TIP3   OH230586   6.948   6.173   0.227
10217TIP3    H130587   6.862   6.203   0.200
10217TIP3    H230588   7.007   6.200   0.157
10218TIP3   OH230589   6.232   5.773   0.146
10218TIP3    H130590   6.228   5.684   0.180
10218TIP3    H230591   6.211   5.829   0.221
10219TIP3   OH230592   3.475   3.303   6.461
10219TIP3    H130593   3.527   3.224   6.451
10219TIP3    H230594   3.532   3.374   6.431
10220TIP3   OH230595   3.629   3.085   6.416
10220TIP3    H130596   3.598   3.002   6.381
10220TIP3    H230597   3.673   3.061   6.498
10221TIP3   OH230598   6.852   7.167   0.204
10221TIP3    H130599   6.829   7.094   0.147
10221TIP3    H230600   6.838   7.245   0.151
10222TIP3   OH230601   3.294   2.564   6.417
10222TIP3    H130602   3.212   2.610   6.397
10222TIP3    H230603   3.342   2.563   6.334
10223TIP3   OH230604   3.265   2.370   6.106
10223TIP3    H130605   3.330   2.419   6.156
10223TIP3    H230606   3.315   2.302   6.062
10224TIP3   OH230607   7.021   6.833   0.067
10224TIP3    H130608   6.935   6.875   0.068
10224TIP3    H230609   7.053   6.848  -0.022
10225TIP3   OH230610   3.654   2.655   6.376
10225TIP3    H130611   3.600   2.681   6.450
10225TIP3    H230612   3.736   2.626   6.415
10226TIP3   OH230613   6.714   6.713   0.326
10226TIP3    H130614   6.714   6.789   0.384
10226TIP3    H230615   6.630   6.717   0.281
10227TIP3   OH230616   2.882   2.632   6.780
10227TIP3    H130617   2.846   2.571   6.715
10227TIP3    H230618   2.957   2.585   6.817
10228TIP3   OH230619   3.013   3.058   6.925
10228TIP3    H130620   2.988   3.042   6.833
10228TIP3    H230621   3.101   3.022   6.932
10229TIP3   OH230622   5.816   6.648   0.194
10229TIP3    H130623   5.856   6.613   0.115
10229TIP3    H230624   5.869   6.725   0.215
10230TIP3   OH230625   6.360   7.276  -0.009
10230TIP3    H130626   6.350   7.353   0.047
10230TIP3    H230627   6.349   7.202   0.051
10231TIP3   OH230628   5.978   7.188   0.462
10231TIP3    H130629   5.920   7.239   0.519
10231TIP3    H230630   5.918   7.135   0.409
10232TIP3   OH230631   3.482   2.515   6.211
10232TIP3    H130632   3.544   2.571   6.259
10232TIP3    H230633   3.511   2.521   6.120
10233TIP3   OH230634   5.762   6.774   0.506
10233TIP3    H130635   5.787   6.857   0.547
10233TIP3    H230636   5.669   6.785   0.486
10234TIP3   OH230637   3.225   3.187   6.467
10234TIP3    H130638   3.310   3.230   6.474
10234TIP3    H230639   3.172   3.247   6.416
10235TIP3   OH230640   5.784   7.335   0.597
10235TIP3    H130641   5.761   7.340   0.505
10235TIP3    H230642   5.700   7.326   0.642
10236TIP3   OH230643   3.997   1.741   6.267
10236TIP3    H130644   3.921   1.764   6.320
10236TIP3    H230645   4.010   1.816   6.209
10237TIP3   OH230646   2.756   2.473   6.583
10237TIP3    H130647   2.677   2.519   6.553
10237TIP3    H230648   2.728   2.383   6.598
10238TIP3   OH230649   3.819   3.118   5.823
10238TIP3    H130650   3.817   3.211   5.803
10238TIP3    H230651   3.908   3.091   5.801
10239TIP3   OH230652   5.335   6.837   0.541
10239TIP3    H130653   5.272   6.865   0.476
10239TIP3    H230654   5.345   6.743   0.526
10240TIP3   OH230655   5.291   7.081   0.172
10240TIP3    H130656   5.377   7.053   0.142
10240TIP3    H230657   5.309   7.151   0.235
10241TIP3   OH230658   7.085   7.549   0.269
10241TIP3    H130659   7.088   7.453   0.276
10241TIP3    H230660   6.999   7.572   0.306
10242TIP3   OH230661   6.192   7.329   0.375
10242TIP3    H130662   6.181   7.413   0.419
10242TIP3    H230663   6.121   7.275   0.410
10243TIP3   OH230664   3.121   3.399   6.297
10243TIP3    H130665   3.080   3.380   6.212
10243TIP3    H230666   3.086   3.485   6.322
10244TIP3   OH230667   2.555   3.266   6.671
10244TIP3    H130668   2.604   3.255   6.753
10244TIP3    H230669   2.507   3.184   6.661
10245TIP3   OH230670   3.323   3.337   5.923
10245TIP3    H130671   3.374   3.264   5.888
10245TIP3    H230672   3.359   3.352   6.010
10246TIP3   OH230673   3.376   3.382   6.191
10246TIP3    H130674   3.292   3.382   6.236
10246TIP3    H230675   3.438   3.347   6.256
10247TIP3   OH230676   6.986   6.637   0.503
10247TIP3    H130677   6.896   6.642   0.535
10247TIP3    H230678   7.002   6.544   0.490
10248TIP3   OH230679   5.559   6.982   0.463
10248TIP3    H130680   5.548   7.068   0.505
10248TIP3    H230681   5.479   6.934   0.486
10249TIP3   OH230682   5.932   5.865   0.303
10249TIP3    H130683   5.849   5.849   0.256
10249TIP3    H230684   5.953   5.956   0.283
10250TIP3   OH230685   6.451   5.967   0.520
10250TIP3    H130686   6.544   5.968   0.544
10250TIP3    H230687   6.412   6.038   0.571
10251TIP3   OH230688   6.754   6.465   0.424
10251TIP3    H130689   6.680   6.445   0.482
10251TIP3    H230690   6.732   6.549   0.384
10252TIP3   OH230691   3.559   2.506   5.950
10252TIP3    H130692   3.518   2.501   5.863
10252TIP3    H230693   3.644   2.548   5.934
10253TIP3   OH230694   3.267   1.922   6.261
10253TIP3    H130695   3.231   1.929   6.349
10253TIP3    H230696   3.235   1.838   6.228
10254TIP3   OH230697   5.932   6.422   0.308
10254TIP3    H130698   5.877   6.413   0.386
10254TIP3    H230699   5.910   6.508   0.272
10255TIP3   OH230700   2.944   2.279   6.826
10255TIP3    H130701   2.856   2.254   6.853
10255TIP3    H230702   2.951   2.248   6.736
10256TIP3   OH230703   3.418   2.358   6.549
10256TIP3    H130704   3.372   2.431   6.508
10256TIP3    H230705   3.478   2.327   6.481
10257TIP3   OH230706   6.444   6.683   0.622
10257TIP3    H130707   6.415   6.675   0.713
10257TIP3    H230708   6.536   6.659   0.624
10258TIP3   OH230709   3.578   2.367   6.775
10258TIP3    H130710   3.515   2.387   6.706
10258TIP3    H230711   3.631   2.296   6.739
10259TIP3   OH230712   5.740   6.386   0.492
10259TIP3    H130713   5.762   6.442   0.566
10259TIP3    H230714   5.667   6.333   0.522
10260TIP3   OH230715   2.935   1.894   6.244
10260TIP3    H130716   2.926   1.896   6.339
10260TIP3    H230717   2.857   1.940   6.211
10261TIP3   OH230718   5.314   5.989   0.122
10261TIP3    H130719   5.395   6.026   0.158
10261TIP3    H230720   5.340   5.951   0.039
10262TIP3   OH230721   2.403   1.924   6.608
10262TIP3    H130722   2.449   1.956   6.531
10262TIP3    H230723   2.338   1.992   6.627
10263TIP3   OH230724   6.462   6.654   0.221
10263TIP3    H130725   6.495   6.587   0.162
10263TIP3    H230726   6.427   6.606   0.296
10264TIP3   OH230727   3.311   2.079   6.871
10264TIP3    H130728   3.236   2.070   6.931
10264TIP3    H230729   3.388   2.072   6.927
10265TIP3   OH230730   2.703   2.153   6.881
10265TIP3    H130731   2.617   2.158   6.839
10265TIP3    H230732   2.736   2.066   6.858
10266TIP3   OH230733   2.952   2.162   6.578
10266TIP3    H130734   3.046   2.173   6.569
10266TIP3    H230735   2.917   2.180   6.491
10267TIP3   OH230736   6.595   6.169   0.123
10267TIP3    H130737   6.586   6.181   0.217
10267TIP3    H230738   6.523   6.111   0.098
10268TIP3   OH230739   2.837   2.189   6.331
10268TIP3    H130740   2.775   2.138   6.278
10268TIP3    H230741   2.893   2.233   6.266
10269TIP3   OH230742   6.779   7.882   0.360
10269TIP3    H130743   6.775   7.891   0.265
10269TIP3    H230744   6.859   7.928   0.384
10270TIP3   OH230745   5.832   6.967   0.682
10270TIP3    H130746   5.910   7.009   0.717
10270TIP3    H230747   5.759   7.019   0.717
10271TIP3   OH230748   6.195   6.453   0.018
10271TIP3    H130749   6.261   6.412  -0.038
10271TIP3    H230750   6.202   6.407   0.101
10272TIP3   OH230751   2.848   1.911   6.840
10272TIP3    H130752   2.811   1.831   6.878
10272TIP3    H230753   2.880   1.885   6.754
10273TIP3   OH230754   6.192   6.345   0.275
10273TIP3    H130755   6.105   6.383   0.290
10273TIP3    H230756   6.251   6.400   0.327
10274TIP3   OH230757   3.057   2.701   6.358
10274TIP3    H130758   2.982   2.645   6.336
10274TIP3    H230759   3.032   2.742   6.441
10275TIP3   OH230760   3.949   2.959   6.970
10275TIP3    H130761   3.985   3.007   6.895
10275TIP3    H230762   3.870   2.917   6.935
10276TIP3   OH230763   3.523   2.019   6.267
10276TIP3    H130764   3.429   2.000   6.263
10276TIP3    H230765   3.527   2.114   6.279
10277TIP3   OH230766   6.314   7.055   0.435
10277TIP3    H130767   6.360   7.027   0.514
10277TIP3    H230768   6.296   7.148   0.450
10278TIP3   OH230769   3.584   2.283   6.335
10278TIP3    H130770   3.680   2.285   6.345
10278TIP3    H230771   3.564   2.360   6.283
10279TIP3   OH230772   5.581   6.729   0.060
10279TIP3    H130773   5.621   6.710  -0.024
10279TIP3    H230774   5.646   6.700   0.125
10280TIP3   OH230775   3.212   2.860   6.201
10280TIP3    H130776   3.163   2.943   6.200
10280TIP3    H230777   3.157   2.802   6.255
10281TIP3   OH230778   5.608   6.545   0.680
10281TIP3    H130779   5.642   6.631   0.706
10281TIP3    H230780   5.513   6.552   0.691
10282TIP3   OH230781   6.194   6.810   0.637
10282TIP3    H130782   6.138   6.733   0.626
10282TIP3    H230783   6.281   6.780   0.610
10283TIP3   OH230784   6.456   7.335   0.301
10283TIP3    H130785   6.361   7.326   0.306
10283TIP3    H230786   6.480   7.386   0.379
10284TIP3   OH230787   4.000   2.374   6.157
10284TIP3    H130788   3.940   2.331   6.096
10284TIP3    H230789   4.009   2.463   6.123
10285TIP3   OH230790   7.093   7.273   0.290
10285TIP3    H130791   7.000   7.248   0.295
10285TIP3    H230792   7.124   7.234   0.208
10286TIP3   OH230793   3.736   3.187   6.086
10286TIP3    H130794   3.713   3.115   6.145
10286TIP3    H230795   3.757   3.144   6.003
10287TIP3   OH230796   3.723   2.824   6.860
10287TIP3    H130797   3.630   2.806   6.874
10287TIP3    H230798   3.759   2.742   6.826
10288TIP3   OH230799   2.876   3.059   6.679
10288TIP3    H130800   2.878   3.136   6.621
10288TIP3    H230801   2.783   3.043   6.694
10289TIP3   OH230802   2.434   2.345   6.387
10289TIP3    H130803   2.479   2.426   6.411
10289TIP3    H230804   2.353   2.346   6.439
10290TIP3   OH230805   2.958   2.813   6.582
10290TIP3    H130806   2.946   2.903   6.615
10290TIP3    H230807   2.935   2.758   6.656
10291TIP3   OH230808   5.991   7.394   0.188
10291TIP3    H130809   6.025   7.468   0.138
10291TIP3    H230810   6.067   7.360   0.235
10292TIP3   OH230811   2.790   3.284   6.528
10292TIP3    H130812   2.703   3.289   6.567
10292TIP3    H230813   2.823   3.374   6.532
10293TIP3   OH230814   6.343   7.051   0.161
10293TIP3    H130815   6.329   7.051   0.256
10293TIP3    H230816   6.425   7.003   0.149
10294TIP3   OH230817   3.504   2.924   5.983
10294TIP3    H130818   3.553   2.903   6.063
10294TIP3    H230819   3.420   2.879   5.995
10295TIP3   OH230820   6.606   7.548   0.197
10295TIP3    H130821   6.537   7.484   0.214
10295TIP3    H230822   6.570   7.603   0.127
10296TIP3   OH230823   3.824   3.392   5.787
10296TIP3    H130824   3.858   3.462   5.730
10296TIP3    H230825   3.748   3.432   5.830
10297TIP3   OH230826   5.756   6.137   0.707
10297TIP3    H130827   5.670   6.146   0.665
10297TIP3    H230828   5.736   6.106   0.796
10298TIP3   OH230829   3.675   2.861   6.192
10298TIP3    H130830   3.660   2.791   6.256
10298TIP3    H230831   3.770   2.862   6.178
10299TIP3   OH230832   5.390   7.282   0.335
10299TIP3    H130833   5.431   7.240   0.411
10299TIP3    H230834   5.405   7.376   0.349
10300TIP3   OH230835   2.851   2.889   5.992
10300TIP3    H130836   2.864   2.798   5.965
10300TIP3    H230837   2.839   2.884   6.087
10301TIP3   OH230838   2.797   2.905   6.265
10301TIP3    H130839   2.865   2.878   6.327
10301TIP3    H230840   2.797   3.001   6.269
10302TIP3   OH230841   2.530   2.593   6.474
10302TIP3    H130842   2.465   2.641   6.525
10302TIP3    H230843   2.551   2.652   6.401
10303TIP3   OH230844   6.548   6.203   0.384
10303TIP3    H130845   6.575   6.255   0.460
10303TIP3    H230846   6.527   6.117   0.421
10304TIP3   OH230847   3.587   1.970   6.534
10304TIP3    H130848   3.567   1.988   6.442
10304TIP3    H230849   3.630   2.049   6.565
10305TIP3   OH230850   3.064   3.087   6.199
10305TIP3    H130851   2.980   3.114   6.237
10305TIP3    H230852   3.090   3.161   6.144
10306TIP3   OH230853   3.230   2.173   6.624
10306TIP3    H130854   3.293   2.239   6.596
10306TIP3    H230855   3.257   2.150   6.713
10307TIP3   OH230856   6.375   6.496   0.422
10307TIP3    H130857   6.368   6.555   0.497
10307TIP3    H230858   6.440   6.431   0.450
10308TIP3   OH230859   3.393   1.870   6.701
10308TIP3    H130860   3.377   1.945   6.759
10308TIP3    H230861   3.466   1.899   6.646
10309TIP3   OH230862   2.816   3.179   6.277
10309TIP3    H130863   2.797   3.250   6.216
10309TIP3    H230864   2.806   3.217   6.364
10310TIP3   OH230865   2.907   1.888   6.526
10310TIP3    H130866   2.898   1.981   6.549
10310TIP3    H230867   3.001   1.873   6.527
10311TIP3   OH230868   6.996   6.359   0.446
10311TIP3    H130869   6.905   6.388   0.447
10311TIP3    H230870   6.999   6.294   0.376
10312TIP3   OH230871   3.815   2.565   6.777
10312TIP3    H130872   3.738   2.510   6.795
10312TIP3    H230873   3.884   2.527   6.831
10313TIP3   OH230874   2.553   2.771   6.257
10313TIP3    H130875   2.625   2.834   6.267
10313TIP3    H230876   2.585   2.708   6.193
10314TIP3   OH230877   2.464   2.067   6.385
10314TIP3    H130878   2.474   2.162   6.392
10314TIP3    H230879   2.408   2.055   6.308
10315TIP3   OH230880   3.793   3.539   6.719
10315TIP3    H130881   3.752   3.590   6.648
10315TIP3    H230882   3.887   3.553   6.707
10316TIP3   OH230883   5.672   5.822   0.229
10316TIP3    H130884   5.646   5.782   0.147
10316TIP3    H230885   5.655   5.754   0.295
10317TIP3   OH230886   2.383   3.043   6.646
10317TIP3    H130887   2.339   3.080   6.722
10317TIP3    H230888   2.340   3.084   6.571
10318TIP3   OH230889   5.456   7.487   0.617
10318TIP3    H130890   5.510   7.543   0.672
10318TIP3    H230891   5.374   7.478   0.666
10319TIP3   OH230892   5.855   7.567   0.740
10319TIP3    H130893   5.879   7.495   0.799
10319TIP3    H230894   5.833   7.524   0.657
10320TIP3   OH230895   3.009   3.089   5.882
10320TIP3    H130896   2.962   3.019   5.927
10320TIP3    H230897   3.083   3.046   5.841
10321TIP3   OH230898   6.516   7.482   0.523
10321TIP3    H130899   6.519   7.399   0.571
10321TIP3    H230900   6.596   7.526   0.548
10322TIP3   OH230901   3.451   3.127   5.805
10322TIP3    H130902   3.485   3.063   5.868
10322TIP3    H230903   3.510   3.120   5.730
10323TIP3   OH230904   5.428   6.990   1.006
10323TIP3    H130905   5.440   6.896   0.995
10323TIP3    H230906   5.382   7.018   0.927
10324TIP3   OH230907   2.675   2.581   6.104
10324TIP3    H130908   2.725   2.556   6.181
10324TIP3    H230909   2.740   2.595   6.035
10325TIP3   OH230910   6.115   7.071   0.659
10325TIP3    H130911   6.076   7.096   0.575
10325TIP3    H230912   6.151   6.983   0.642
10326TIP3   OH230913   3.241   2.803   5.935
10326TIP3    H130914   3.221   2.814   6.029
10326TIP3    H230915   3.226   2.710   5.918
10327TIP3   OH230916   6.616   7.111   0.339
10327TIP3    H130917   6.695   7.143   0.295
10327TIP3    H230918   6.552   7.181   0.325
10328TIP3   OH230919   5.670   6.562   0.982
10328TIP3    H130920   5.729   6.601   0.918
10328TIP3    H230921   5.661   6.629   1.050
10329TIP3   OH230922   2.848   2.522   6.315
10329TIP3    H130923   2.830   2.491   6.404
10329TIP3    H230924   2.898   2.451   6.275
10330TIP3   OH230925   5.964   6.602   0.552
10330TIP3    H130926   5.890   6.660   0.529
10330TIP3    H230927   6.028   6.618   0.483
10331TIP3   OH230928   2.991   2.340   6.160
10331TIP3    H130929   2.963   2.343   6.068
10331TIP3    H230930   3.087   2.346   6.155
10332TIP3   OH230931   6.476   6.984   0.667
10332TIP3    H130932   6.534   6.930   0.614
10332TIP3    H230933   6.496   6.961   0.757
10333TIP3   OH230934   3.783   2.631   5.844
10333TIP3    H130935   3.773   2.588   5.759
10333TIP3    H230936   3.759   2.722   5.828
10334TIP3   OH230937   6.146   6.387   0.605
10334TIP3    H130938   6.107   6.325   0.543
10334TIP3    H230939   6.084   6.460   0.607
10335TIP3   OH230940   6.102   6.157   0.466
10335TIP3    H130941   6.143   6.189   0.386
10335TIP3    H230942   6.013   6.135   0.441
10336TIP3   OH230943   6.133   6.686   0.359
10336TIP3    H130944   6.223   6.709   0.334
10336TIP3    H230945   6.080   6.758   0.325
10337TIP3   OH230946   6.809   6.673   0.721
10337TIP3    H130947   6.889   6.629   0.751
10337TIP3    H230948   6.827   6.766   0.734
10338TIP3   OH230949   6.736   6.931   0.498
10338TIP3    H130950   6.684   6.996   0.449
10338TIP3    H230951   6.826   6.946   0.469
10339TIP3   OH230952   5.950   6.483   0.992
10339TIP3    H130953   5.894   6.449   1.062
10339TIP3    H230954   5.908   6.454   0.911
10340TIP3   OH230955   6.176   5.975   0.661
10340TIP3    H130956   6.158   6.044   0.597
10340TIP3    H230957   6.094   5.927   0.670
10341TIP3   OH230958   6.384   6.437   0.785
10341TIP3    H130959   6.401   6.431   0.879
10341TIP3    H230960   6.294   6.470   0.780
10342TIP3   OH230961   6.564   6.389   0.595
10342TIP3    H130962   6.494   6.404   0.659
10342TIP3    H230963   6.635   6.351   0.647
10343TIP3   OH230964   6.992   6.259   0.862
10343TIP3    H130965   6.923   6.225   0.805
10343TIP3    H230966   6.949   6.325   0.916
10344TIP3   OH230967   5.815   6.260   1.114
10344TIP3    H130968   5.846   6.204   1.043
10344TIP3    H230969   5.872   6.241   1.188
10345TIP3   OH230970   6.280   5.931   0.906
10345TIP3    H130971   6.357   5.878   0.883
10345TIP3    H230972   6.237   5.949   0.823
10346TIP3   OH230973   6.360   6.159   1.045
10346TIP3    H130974   6.343   6.090   0.981
10346TIP3    H230975   6.301   6.229   1.021
10347TIP3   OH230976   2.815   3.391   6.096
10347TIP3    H130977   2.904   3.368   6.070
10347TIP3    H230978   2.778   3.434   6.019
10348TIP3   OH230979   2.279   2.770   6.272
10348TIP3    H130980   2.374   2.780   6.268
10348TIP3    H230981   2.263   2.683   6.235
10349TIP3   OH230982   2.178   3.357   6.725
10349TIP3    H130983   2.114   3.303   6.679
10349TIP3    H230984   2.223   3.296   6.783
10350TIP3   OH230985   2.325   3.190   6.887
10350TIP3    H130986   2.329   3.123   6.955
10350TIP3    H230987   2.376   3.263   6.922
10351TIP3   OH230988   4.061   3.593   6.703
10351TIP3    H130989   4.085   3.631   6.787
10351TIP3    H230990   4.122   3.633   6.640
10352TIP3   OH230991   6.919   7.638   0.041
10352TIP3    H130992   6.874   7.554   0.038
10352TIP3    H230993   6.994   7.623   0.098
10353TIP3   OH230994   6.966   7.352   0.608
10353TIP3    H130995   6.894   7.366   0.668
10353TIP3    H230996   7.018   7.432   0.614
10354TIP3   OH230997   3.953   2.841   6.173
10354TIP3    H130998   4.013   2.909   6.143
10354TIP3    H230999   3.997   2.800   6.247
10355TIP3   OH231000   4.078   2.694   6.373
10355TIP3    H131001   4.012   2.653   6.428
10355TIP3    H231002   4.144   2.727   6.434
10356TIP3   OH231003   4.132   3.097   6.811
10356TIP3    H131004   4.185   3.031   6.765
10356TIP3    H231005   4.131   3.172   6.752
10357TIP3   OH231006   6.783   7.390   0.056
10357TIP3    H131007   6.716   7.437   0.106
10357TIP3    H231008   6.735   7.348  -0.015
10358TIP3   OH231009   3.993   2.614   6.020
10358TIP3    H131010   3.921   2.611   5.958
10358TIP3    H231011   3.976   2.692   6.073
10359TIP3   OH231012   3.832   2.273   5.967
10359TIP3    H131013   3.800   2.302   5.881
10359TIP3    H231014   3.825   2.178   5.965
10360TIP3   OH231015   3.878   2.552   6.507
10360TIP3    H131016   3.885   2.458   6.493
10360TIP3    H231017   3.861   2.561   6.601
10361TIP3   OH231018   5.344   6.671   0.291
10361TIP3    H131019   5.335   6.638   0.202
10361TIP3    H231020   5.435   6.654   0.314
10362TIP3   OH231021   6.997   6.984   0.420
10362TIP3    H131022   7.069   6.922   0.408
10362TIP3    H231023   6.993   7.031   0.336
10363TIP3   OH231024   7.189   6.785   0.410
10363TIP3    H131025   7.112   6.734   0.433
10363TIP3    H231026   7.263   6.731   0.438
10364TIP3   OH231027   3.799   2.005   5.949
10364TIP3    H131028   3.873   1.969   5.998
10364TIP3    H231029   3.725   1.951   5.975
10365TIP3   OH231030   3.874   2.278   6.392
10365TIP3    H131031   3.920   2.195   6.407
10365TIP3    H231032   3.918   2.316   6.316
10366TIP3   OH231033   4.031   2.444   6.914
10366TIP3    H131034   4.113   2.460   6.867
10366TIP3    H231035   4.045   2.484   7.000
10367TIP3   OH231036   6.947   6.602   0.195
10367TIP3    H131037   6.875   6.629   0.252
10367TIP3    H231038   6.976   6.682   0.152
10368TIP3   OH231039   5.565   6.319   0.945
10368TIP3    H131040   5.619   6.396   0.957
10368TIP3    H231041   5.625   6.245   0.954
10369TIP3   OH231042   7.434   6.212   0.699
10369TIP3    H131043   7.472   6.136   0.655
10369TIP3    H231044   7.375   6.250   0.634
10370TIP3   OH231045   3.989   2.029   6.449
10370TIP3    H131046   4.033   2.014   6.532
10370TIP3    H231047   3.927   1.956   6.440
10371TIP3   OH231048   5.540   6.057   0.267
10371TIP3    H131049   5.589   5.976   0.258
10371TIP3    H231050   5.605   6.126   0.250
10372TIP3   OH231051   5.355   6.302   0.389
10372TIP3    H131052   5.394   6.312   0.303
10372TIP3    H231053   5.315   6.387   0.408
10373TIP3   OH231054   7.253   6.315   0.527
10373TIP3    H131055   7.166   6.354   0.542
10373TIP3    H231056   7.238   6.245   0.464
10374TIP3   OH231057   4.040   1.939   6.081
10374TIP3    H131058   4.088   1.880   6.024
10374TIP3    H231059   4.096   2.017   6.087
10375TIP3   OH231060   2.477   1.800   6.839
10375TIP3    H131061   2.390   1.780   6.874
10375TIP3    H231062   2.459   1.848   6.757
10376TIP3   OH231063   3.615   3.505   6.352
10376TIP3    H131064   3.674   3.492   6.277
10376TIP3    H231065   3.660   3.569   6.407
10377TIP3   OH231066   5.469   5.925   0.732
10377TIP3    H131067   5.441   6.008   0.772
10377TIP3    H231068   5.447   5.935   0.640
10378TIP3   OH231069   5.614   7.362   0.838
10378TIP3    H131070   5.607   7.269   0.857
10378TIP3    H231071   5.587   7.406   0.919
10379TIP3   OH231072   5.755   7.345   0.323
10379TIP3    H131073   5.709   7.423   0.292
10379TIP3    H231074   5.843   7.352   0.284
10380TIP3   OH231075   6.168   7.589   0.476
10380TIP3    H131076   6.210   7.581   0.562
10380TIP3    H231077   6.231   7.638   0.423
10381TIP3   OH231078   6.354   7.740   0.343
10381TIP3    H131079   6.413   7.680   0.297
10381TIP3    H231080   6.411   7.794   0.397
10382TIP3   OH231081   7.160   6.088   0.396
10382TIP3    H131082   7.076   6.094   0.350
10382TIP3    H231083   7.183   5.995   0.390
10383TIP3   OH231084   5.419   7.553   0.354
10383TIP3    H131085   5.349   7.615   0.336
10383TIP3    H231086   5.427   7.552   0.449
10384TIP3   OH231087   5.658   7.583   0.227
10384TIP3    H131088   5.574   7.581   0.273
10384TIP3    H231089   5.636   7.607   0.137
10385TIP3   OH231090   6.066   7.604   0.026
10385TIP3    H131091   5.994   7.614  -0.037
10385TIP3    H231092   6.076   7.691   0.064
10386TIP3   OH231093   6.324   7.533   0.091
10386TIP3    H131094   6.235   7.554   0.064
10386TIP3    H231095   6.379   7.595   0.043
10387TIP3   OH231096   3.683   3.690   6.922
10387TIP3    H131097   3.697   3.781   6.897
10387TIP3    H231098   3.720   3.639   6.849
10388TIP3   OH231099   5.335   7.381   0.080
10388TIP3    H131100   5.355   7.354   0.170
10388TIP3    H231101   5.407   7.345   0.028
10389TIP3   OH231102   2.708   3.246   6.899
10389TIP3    H131103   2.718   3.161   6.943
10389TIP3    H231104   2.795   3.286   6.904
10390TIP3   OH231105   5.806   7.341  -0.013
10390TIP3    H131106   5.826   7.248  -0.027
10390TIP3    H231107   5.862   7.366   0.061
10391TIP3   OH231108   6.379   5.994   0.050
10391TIP3    H131109   6.333   5.917   0.083
10391TIP3    H231110   6.450   5.958  -0.004
10392TIP3   OH231111   4.030   1.915   6.912
10392TIP3    H131112   4.066   1.960   6.836
10392TIP3    H231113   3.935   1.924   6.904
10393TIP3   OH231114   4.146   1.973   6.671
10393TIP3    H131115   4.215   1.913   6.642
10393TIP3    H231116   4.183   2.060   6.659
10394TIP3   OH231117   5.588   5.684   0.013
10394TIP3    H131118   5.499   5.653   0.030
10394TIP3    H231119   5.644   5.608   0.031
10395TIP3   OH231120   2.562   1.583   6.661
10395TIP3    H131121   2.604   1.625   6.585
10395TIP3    H231122   2.548   1.655   6.723
10396TIP3   OH231123   3.224   1.733   6.877
10396TIP3    H131124   3.273   1.774   6.805
10396TIP3    H231125   3.277   1.748   6.954
10397TIP3   OH231126   3.756   1.869   6.861
10397TIP3    H131127   3.773   1.832   6.774
10397TIP3    H231128   3.755   1.793   6.920
10398TIP3   OH231129   3.806   1.817   6.452
10398TIP3    H131130   3.726   1.863   6.476
10398TIP3    H231131   3.796   1.729   6.488
10399TIP3   OH231132   2.265   3.163   6.430
10399TIP3    H131133   2.182   3.129   6.398
10399TIP3    H231134   2.268   3.253   6.397
10400TIP3   OH231135   2.697   1.715   6.437
10400TIP3    H131136   2.744   1.652   6.382
10400TIP3    H231137   2.766   1.771   6.473
10401TIP3   OH231138   3.181   1.922   6.524
10401TIP3    H131139   3.243   1.868   6.573
10401TIP3    H231140   3.197   2.011   6.554
10402TIP3   OH231141   3.069   3.312   6.027
10402TIP3    H131142   3.153   3.339   5.989
10402TIP3    H231143   3.039   3.241   5.971
10403TIP3   OH231144   3.769   3.455   6.126
10403TIP3    H131145   3.764   3.360   6.118
10403TIP3    H231146   3.728   3.488   6.046
10404TIP3   OH231147   5.810   5.836   0.982
10404TIP3    H131148   5.814   5.796   1.069
10404TIP3    H231149   5.886   5.894   0.978
10405TIP3   OH231150   2.381   3.158   6.084
10405TIP3    H131151   2.383   3.162   6.180
10405TIP3    H231152   2.460   3.110   6.060
10406TIP3   OH231153   6.895   6.009   0.775
10406TIP3    H131154   6.928   6.018   0.864
10406TIP3    H231155   6.973   6.016   0.720
10407TIP3   OH231156   6.830   7.610   0.349
10407TIP3    H131157   6.756   7.576   0.299
10407TIP3    H231158   6.811   7.703   0.360
10408TIP3   OH231159   5.269   2.985   6.052
10408TIP3    H131160   5.238   3.071   6.025
10408TIP3    H231161   5.198   2.925   6.028
10409TIP3   OH231162   5.267   2.974   6.478
10409TIP3    H131163   5.320   2.954   6.555
10409TIP3    H231164   5.221   2.893   6.458
10410TIP3   OH231165   4.561   2.834   6.818
10410TIP3    H131166   4.598   2.782   6.889
10410TIP3    H231167   4.637   2.858   6.765
10411TIP3   OH231168   5.533   3.282   6.152
10411TIP3    H131169   5.520   3.215   6.219
10411TIP3    H231170   5.553   3.362   6.200
10412TIP3   OH231171   4.561   3.270   6.504
10412TIP3    H131172   4.542   3.177   6.513
10412TIP3    H231173   4.657   3.274   6.496
10413TIP3   OH231174   4.238   2.472   6.295
10413TIP3    H131175   4.194   2.554   6.317
10413TIP3    H231176   4.170   2.419   6.253
10414TIP3   OH231177   4.309   2.769   6.514
10414TIP3    H131178   4.360   2.693   6.540
10414TIP3    H231179   4.374   2.829   6.476
10415TIP3   OH231180   5.186   3.714   6.160
10415TIP3    H131181   5.215   3.651   6.095
10415TIP3    H231182   5.178   3.664   6.241
10416TIP3   OH231183   5.071   3.195   6.479
10416TIP3    H131184   5.115   3.114   6.451
10416TIP3    H231185   5.142   3.251   6.510
10417TIP3   OH231186   6.103   2.517   6.498
10417TIP3    H131187   6.119   2.601   6.540
10417TIP3    H231188   6.123   2.532   6.405
10418TIP3   OH231189   5.481   2.684   6.517
10418TIP3    H131190   5.512   2.598   6.545
10418TIP3    H231191   5.442   2.669   6.431
10419TIP3   OH231192   4.834   2.339   6.471
10419TIP3    H131193   4.810   2.412   6.414
10419TIP3    H231194   4.779   2.266   6.441
10420TIP3   OH231195   5.530   2.444   6.113
10420TIP3    H131196   5.593   2.437   6.184
10420TIP3    H231197   5.581   2.478   6.039
10421TIP3   OH231198   4.458   2.555   6.605
10421TIP3    H131199   4.541   2.536   6.648
10421TIP3    H231200   4.460   2.503   6.524
10422TIP3   OH231201   4.876   2.756   6.422
10422TIP3    H131202   4.970   2.740   6.427
10422TIP3    H231203   4.840   2.674   6.388
10423TIP3   OH231204   6.159   2.738   6.663
10423TIP3    H131205   6.069   2.771   6.657
10423TIP3    H231206   6.192   2.771   6.746
10424TIP3   OH231207   4.812   2.345   6.927
10424TIP3    H131208   4.760   2.379   6.854
10424TIP3    H231209   4.757   2.362   7.004
10425TIP3   OH231210   5.167   3.201   5.913
10425TIP3    H131211   5.125   3.170   5.833
10425TIP3    H231212   5.113   3.275   5.941
10426TIP3   OH231213   4.907   3.122   6.691
10426TIP3    H131214   4.852   3.192   6.726
10426TIP3    H231215   4.954   3.162   6.618
10427TIP3   OH231216   5.688   2.464   6.335
10427TIP3    H131217   5.646   2.442   6.417
10427TIP3    H231218   5.743   2.540   6.356
10428TIP3   OH231219   4.706   2.450   6.694
10428TIP3    H131220   4.762   2.525   6.717
10428TIP3    H231221   4.752   2.408   6.621
10429TIP3   OH231222   4.750   3.324   6.800
10429TIP3    H131223   4.735   3.413   6.769
10429TIP3    H231224   4.673   3.303   6.852
10430TIP3   OH231225   4.128   3.026   6.054
10430TIP3    H131226   4.094   3.045   5.967
10430TIP3    H231227   4.153   3.111   6.090
10431TIP3   OH231228   5.570   3.531   6.291
10431TIP3    H131229   5.484   3.522   6.331
10431TIP3    H231230   5.567   3.614   6.245
10432TIP3   OH231231   5.899   2.413   6.666
10432TIP3    H131232   5.813   2.432   6.627
10432TIP3    H231233   5.962   2.438   6.599
10433TIP3   OH231234   5.157   2.039   6.661
10433TIP3    H131235   5.148   1.946   6.685
10433TIP3    H231236   5.080   2.081   6.699
10434TIP3   OH231237   5.276   3.565   5.943
10434TIP3    H131238   5.328   3.484   5.935
10434TIP3    H231239   5.336   3.634   5.916
10435TIP3   OH231240   5.414   3.333   5.907
10435TIP3    H131241   5.341   3.272   5.904
10435TIP3    H231242   5.464   3.307   5.984
10436TIP3   OH231243   5.808   3.414   6.636
10436TIP3    H131244   5.786   3.341   6.579
10436TIP3    H231245   5.792   3.492   6.582
10437TIP3   OH231246   5.093   2.823   5.907
10437TIP3    H131247   5.009   2.865   5.890
10437TIP3    H231248   5.137   2.820   5.822
10438TIP3   OH231249   5.058   2.629   5.595
10438TIP3    H131250   5.124   2.676   5.645
10438TIP3    H231251   5.106   2.560   5.550
10439TIP3   OH231252   5.982   3.079   6.501
10439TIP3    H131253   5.897   3.123   6.499
10439TIP3    H231254   6.018   3.092   6.413
10440TIP3   OH231255   5.452   2.911   5.863
10440TIP3    H131256   5.397   2.940   5.936
10440TIP3    H231257   5.534   2.885   5.904
10441TIP3   OH231258   5.681   2.940   6.809
10441TIP3    H131259   5.675   3.023   6.858
10441TIP3    H231260   5.599   2.936   6.760
10442TIP3   OH231261   4.676   2.888   6.271
10442TIP3    H131262   4.638   2.828   6.207
10442TIP3    H231263   4.748   2.839   6.311
10443TIP3   OH231264   4.823   3.316   6.407
10443TIP3    H131265   4.796   3.299   6.317
10443TIP3    H231266   4.909   3.274   6.415
10444TIP3   OH231267   4.778   2.883   6.648
10444TIP3    H131268   4.816   2.847   6.567
10444TIP3    H231269   4.826   2.965   6.662
10445TIP3   OH231270   5.336   3.525   6.427
10445TIP3    H131271   5.320   3.604   6.480
10445TIP3    H231272   5.319   3.452   6.487
10446TIP3   OH231273   7.780   7.428   0.029
10446TIP3    H131274   7.720   7.487   0.074
10446TIP3    H231275   7.724   7.377  -0.030
10447TIP3   OH231276   5.281   2.769   5.698
10447TIP3    H131277   5.340   2.828   5.745
10447TIP3    H231278   5.311   2.773   5.607
10448TIP3   OH231279   7.538   6.970   0.167
10448TIP3    H131280   7.543   7.062   0.193
10448TIP3    H231281   7.444   6.953   0.157
10449TIP3   OH231282   5.031   3.438   5.959
10449TIP3    H131283   5.110   3.492   5.960
10449TIP3    H231284   4.967   3.489   5.909
10450TIP3   OH231285   7.575   7.591   0.115
10450TIP3    H131286   7.546   7.599   0.024
10450TIP3    H231287   7.494   7.572   0.164
10451TIP3   OH231288   5.790   1.996   5.758
10451TIP3    H131289   5.714   2.015   5.812
10451TIP3    H231290   5.800   2.074   5.702
10452TIP3   OH231291   4.549   2.730   6.072
10452TIP3    H131292   4.470   2.775   6.041
10452TIP3    H231293   4.521   2.639   6.085
10453TIP3   OH231294   5.618   3.373   5.311
10453TIP3    H131295   5.610   3.466   5.291
10453TIP3    H231296   5.707   3.350   5.285
10454TIP3   OH231297   7.170   7.147   0.062
10454TIP3    H131298   7.100   7.129  -0.001
10454TIP3    H231299   7.205   7.060   0.083
10455TIP3   OH231300   4.163   3.330   6.661
10455TIP3    H131301   4.256   3.354   6.669
10455TIP3    H231302   4.116   3.410   6.682
10456TIP3   OH231303   6.034   3.787   6.704
10456TIP3    H131304   6.041   3.692   6.714
10456TIP3    H231305   5.954   3.811   6.751
10457TIP3   OH231306   5.139   3.562   6.832
10457TIP3    H131307   5.131   3.653   6.860
10457TIP3    H231308   5.070   3.515   6.879
10458TIP3   OH231309   4.920   3.669   5.780
10458TIP3    H131310   4.870   3.646   5.701
10458TIP3    H231311   4.879   3.750   5.811
10459TIP3   OH231312   4.350   3.529   6.162
10459TIP3    H131313   4.396   3.524   6.246
10459TIP3    H231314   4.302   3.446   6.156
10460TIP3   OH231315   5.122   3.596   5.411
10460TIP3    H131316   5.172   3.523   5.376
10460TIP3    H231317   5.155   3.609   5.500
10461TIP3   OH231318   5.173   3.640   5.681
10461TIP3    H131319   5.086   3.646   5.718
10461TIP3    H231320   5.227   3.601   5.750
10462TIP3   OH231321   0.257   6.900   0.028
10462TIP3    H131322   0.175   6.909  -0.020
10462TIP3    H231323   0.275   6.806   0.028
10463TIP3   OH231324   7.370   7.335   0.036
10463TIP3    H131325   7.422   7.316   0.114
10463TIP3    H231326   7.297   7.272   0.039
10464TIP3   OH231327   4.919   2.132   6.783
10464TIP3    H131328   4.836   2.098   6.749
10464TIP3    H231329   4.895   2.211   6.830
10465TIP3   OH231330   8.291   6.261   0.041
10465TIP3    H131331   8.358   6.233   0.103
10465TIP3    H231332   8.208   6.243   0.085
10466TIP3   OH231333   5.685   2.677   6.904
10466TIP3    H131334   5.640   2.672   6.989
10466TIP3    H231335   5.666   2.765   6.872
10467TIP3   OH231336   5.365   2.750   5.437
10467TIP3    H131337   5.315   2.753   5.355
10467TIP3    H231338   5.445   2.799   5.418
10468TIP3   OH231339   5.076   2.169   5.759
10468TIP3    H131340   5.034   2.179   5.844
10468TIP3    H231341   5.038   2.089   5.722
10469TIP3   OH231342   4.858   2.661   6.795
10469TIP3    H131343   4.810   2.666   6.877
10469TIP3    H231344   4.835   2.742   6.749
10470TIP3   OH231345   4.736   2.542   6.314
10470TIP3    H131346   4.647   2.516   6.339
10470TIP3    H231347   4.746   2.509   6.225
10471TIP3   OH231348   5.218   2.620   6.045
10471TIP3    H131349   5.169   2.692   6.004
10471TIP3    H231350   5.274   2.586   5.975
10472TIP3   OH231351   8.232   6.891   0.178
10472TIP3    H131352   8.204   6.822   0.238
10472TIP3    H231353   8.324   6.904   0.197
10473TIP3   OH231354   5.387   2.632   6.265
10473TIP3    H131355   5.318   2.653   6.202
10473TIP3    H231356   5.433   2.558   6.226
10474TIP3   OH231357   7.526   6.684   0.073
10474TIP3    H131358   7.533   6.750   0.142
10474TIP3    H231359   7.507   6.603   0.119
10475TIP3   OH231360   4.740   2.149   5.726
10475TIP3    H131361   4.725   2.146   5.821
10475TIP3    H231362   4.659   2.184   5.690
10476TIP3   OH231363   4.275   2.197   6.597
10476TIP3    H131364   4.353   2.231   6.642
10476TIP3    H231365   4.306   2.172   6.510
10477TIP3   OH231366   4.189   2.174   6.108
10477TIP3    H131367   4.238   2.206   6.033
10477TIP3    H231368   4.123   2.242   6.125
10478TIP3   OH231369   5.430   2.885   6.691
10478TIP3    H131370   5.455   2.818   6.627
10478TIP3    H231371   5.385   2.836   6.761
10479TIP3   OH231372   5.103   2.335   6.368
10479TIP3    H131373   5.023   2.332   6.420
10479TIP3    H231374   5.173   2.324   6.432
10480TIP3   OH231375   4.497   2.416   6.372
10480TIP3    H131376   4.409   2.422   6.336
10480TIP3    H231377   4.523   2.325   6.356
10481TIP3   OH231378   4.751   2.423   6.068
10481TIP3    H131379   4.846   2.429   6.053
10481TIP3    H231380   4.713   2.438   5.982
10482TIP3   OH231381   5.548   2.421   6.575
10482TIP3    H131382   5.529   2.439   6.667
10482TIP3    H231383   5.480   2.360   6.549
10483TIP3   OH231384   4.635   2.447   5.822
10483TIP3    H131385   4.576   2.391   5.771
10483TIP3    H231386   4.690   2.490   5.757
10484TIP3   OH231387   5.745   4.125   6.795
10484TIP3    H131388   5.742   4.137   6.700
10484TIP3    H231389   5.824   4.171   6.823
10485TIP3   OH231390   7.525   7.241   0.262
10485TIP3    H131391   7.605   7.258   0.311
10485TIP3    H231392   7.455   7.245   0.327
10486TIP3   OH231393   5.150   2.706   6.472
10486TIP3    H131394   5.212   2.651   6.423
10486TIP3    H231395   5.146   2.666   6.559
10487TIP3   OH231396   4.641   2.166   6.355
10487TIP3    H131397   4.612   2.091   6.408
10487TIP3    H231398   4.651   2.130   6.267
10488TIP3   OH231399   5.123   2.608   6.735
10488TIP3    H131400   5.035   2.638   6.759
10488TIP3    H231401   5.182   2.660   6.789
10489TIP3   OH231402   4.854   2.955   5.853
10489TIP3    H131403   4.780   2.900   5.829
10489TIP3    H231404   4.827   2.997   5.935
10490TIP3   OH231405   5.746   3.214   6.457
10490TIP3    H131406   5.780   3.263   6.383
10490TIP3    H231407   5.666   3.172   6.424
10491TIP3   OH231408   5.325   2.276   5.754
10491TIP3    H131409   5.233   2.250   5.754
10491TIP3    H231410   5.324   2.370   5.770
10492TIP3   OH231411   5.268   3.300   6.865
10492TIP3    H131412   5.311   3.288   6.949
10492TIP3    H231413   5.223   3.384   6.872
10493TIP3   OH231414   5.379   2.540   5.828
10493TIP3    H131415   5.474   2.545   5.837
10493TIP3    H231416   5.356   2.618   5.776
10494TIP3   OH231417   4.554   2.986   6.500
10494TIP3    H131418   4.589   2.961   6.414
10494TIP3    H231419   4.616   2.949   6.563
10495TIP3   OH231420   5.005   3.119   5.697
10495TIP3    H131421   4.958   3.203   5.695
10495TIP3    H231422   4.950   3.062   5.749
10496TIP3   OH231423   7.265   6.909   0.178
10496TIP3    H131424   7.260   6.881   0.269
10496TIP3    H231425   7.191   6.865   0.136
10497TIP3   OH231426   8.001   7.047   0.218
10497TIP3    H131427   7.930   6.988   0.192
10497TIP3    H231428   8.081   7.004   0.188
10498TIP3   OH231429   5.410   3.589   6.755
10498TIP3    H131430   5.316   3.571   6.760
10498TIP3    H231431   5.432   3.623   6.842
10499TIP3   OH231432   5.797   2.625   5.641
10499TIP3    H131433   5.742   2.578   5.577
10499TIP3    H231434   5.800   2.715   5.608
10500TIP3   OH231435   6.052   3.512   6.722
10500TIP3    H131436   5.959   3.489   6.723
10500TIP3    H231437   6.084   3.477   6.639
10501TIP3   OH231438   5.540   3.441   5.579
10501TIP3    H131439   5.507   3.374   5.639
10501TIP3    H231440   5.555   3.395   5.497
10502TIP3   OH231441   5.518   3.078   6.354
10502TIP3    H131442   5.428   3.055   6.379
10502TIP3    H231443   5.553   2.998   6.315
10503TIP3   OH231444   4.668   3.315   6.170
10503TIP3    H131445   4.661   3.390   6.111
10503TIP3    H231446   4.582   3.309   6.211
10504TIP3   OH231447   4.227   2.596   5.873
10504TIP3    H131448   4.271   2.678   5.896
10504TIP3    H231449   4.148   2.595   5.927
10505TIP3   OH231450   4.757   3.071   6.077
10505TIP3    H131451   4.735   3.160   6.106
10505TIP3    H231452   4.730   3.015   6.149
10506TIP3   OH231453   4.957   3.639   6.625
10506TIP3    H131454   4.993   3.712   6.575
10506TIP3    H231455   5.031   3.604   6.674
10507TIP3   OH231456   4.584   3.538   6.017
10507TIP3    H131457   4.497   3.545   6.056
10507TIP3    H231458   4.620   3.627   6.023
10508TIP3   OH231459   5.306   3.300   6.592
10508TIP3    H131460   5.294   3.296   6.687
10508TIP3    H231461   5.375   3.236   6.573
10509TIP3   OH231462   5.302   3.179   5.459
10509TIP3    H131463   5.351   3.150   5.535
10509TIP3    H231464   5.218   3.134   5.466
10510TIP3   OH231465   5.565   3.796   6.635
10510TIP3    H131466   5.495   3.735   6.655
10510TIP3    H231467   5.530   3.851   6.565
10511TIP3   OH231468   5.609   3.646   5.266
10511TIP3    H131469   5.615   3.704   5.190
10511TIP3    H231470   5.541   3.686   5.321
10512TIP3   OH231471   7.475   6.431   0.192
10512TIP3    H131472   7.380   6.441   0.198
10512TIP3    H231473   7.498   6.377   0.267
10513TIP3   OH231474   5.475   3.092   5.652
10513TIP3    H131475   5.459   3.040   5.730
10513TIP3    H231476   5.571   3.100   5.648
10514TIP3   OH231477   4.386   3.519   6.789
10514TIP3    H131478   4.440   3.467   6.849
10514TIP3    H231479   4.396   3.609   6.821
10515TIP3   OH231480   4.653   3.143   5.477
10515TIP3    H131481   4.662   3.051   5.451
10515TIP3    H231482   4.636   3.139   5.571
10516TIP3   OH231483   4.591   3.162   5.748
10516TIP3    H131484   4.651   3.135   5.818
10516TIP3    H231485   4.590   3.258   5.754
10517TIP3   OH231486   4.324   2.848   5.959
10517TIP3    H131487   4.259   2.895   6.011
10517TIP3    H231488   4.342   2.907   5.886
10518TIP3   OH231489   5.492   2.485   6.837
10518TIP3    H131490   5.570   2.528   6.872
10518TIP3    H231491   5.480   2.407   6.891
10519TIP3   OH231492   5.382   2.226   6.024
10519TIP3    H131493   5.360   2.244   5.933
10519TIP3    H231494   5.424   2.306   6.055
10520TIP3   OH231495   4.866   3.352   5.693
10520TIP3    H131496   4.779   3.373   5.728
10520TIP3    H231497   4.885   3.423   5.632
10521TIP3   OH231498   5.035   2.425   6.114
10521TIP3    H131499   5.095   2.495   6.089
10521TIP3    H231500   5.055   2.406   6.205
10522TIP3   OH231501   5.330   2.720   6.888
10522TIP3    H131502   5.352   2.760   6.972
10522TIP3    H231503   5.378   2.638   6.887
10523TIP3   OH231504   5.194   2.125   6.204
10523TIP3    H131505   5.170   2.203   6.253
10523TIP3    H231506   5.262   2.155   6.143
10524TIP3   OH231507   4.613   3.435   5.765
10524TIP3    H131508   4.593   3.507   5.705
10524TIP3    H231509   4.600   3.472   5.852
10525TIP3   OH231510   4.702   2.147   6.002
10525TIP3    H131511   4.689   2.237   6.031
10525TIP3    H231512   4.796   2.133   6.011
10526TIP3   OH231513   5.946   2.612   6.879
10526TIP3    H131514   5.853   2.627   6.894
10526TIP3    H231515   5.950   2.550   6.806
10527TIP3   OH231516   5.610   2.820   6.264
10527TIP3    H131517   5.532   2.765   6.275
10527TIP3    H231518   5.676   2.780   6.321
10528TIP3   OH231519   4.346   3.027   5.743
10528TIP3    H131520   4.417   3.092   5.751
10528TIP3    H231521   4.379   2.964   5.679
10529TIP3   OH231522   4.273   2.318   5.894
10529TIP3    H131523   4.268   2.412   5.878
10529TIP3    H231524   4.279   2.280   5.806
10530TIP3   OH231525   5.590   3.800   6.211
10530TIP3    H131526   5.547   3.851   6.142
10530TIP3    H231527   5.683   3.809   6.194
10531TIP3   OH231528   4.660   2.044   6.741
10531TIP3    H131529   4.628   2.012   6.656
10531TIP3    H231530   4.651   1.969   6.799
10532TIP3   OH231531   4.181   3.296   6.138
10532TIP3    H131532   4.139   3.333   6.215
10532TIP3    H231533   4.139   3.340   6.064
10533TIP3   OH231534   7.207   7.820   0.284
10533TIP3    H131535   7.294   7.814   0.323
10533TIP3    H231536   7.179   7.729   0.271
10534TIP3   OH231537   7.686   7.751   0.308
10534TIP3    H131538   7.776   7.718   0.314
10534TIP3    H231539   7.646   7.701   0.237
10535TIP3   OH231540   4.806   3.344   5.367
10535TIP3    H131541   4.758   3.274   5.411
10535TIP3    H231542   4.880   3.300   5.325
10536TIP3   OH231543   8.297   7.692   0.067
10536TIP3    H131544   8.312   7.621   0.130
10536TIP3    H231545   8.372   7.750   0.079
10537TIP3   OH231546   5.250   3.387   5.290
10537TIP3    H131547   5.282   3.321   5.351
10537TIP3    H231548   5.308   3.379   5.213
10538TIP3   OH231549   7.316   7.255   0.452
10538TIP3    H131550   7.339   7.162   0.462
10538TIP3    H231551   7.232   7.255   0.407
10539TIP3   OH231552   4.473   2.840   5.591
10539TIP3    H131553   4.523   2.814   5.669
10539TIP3    H231554   4.539   2.852   5.523
10540TIP3   OH231555   7.936   7.323   0.231
10540TIP3    H131556   7.888   7.343   0.151
10540TIP3    H231557   7.968   7.234   0.219
10541TIP3   OH231558   5.051   3.060   5.432
10541TIP3    H131559   5.025   3.072   5.524
10541TIP3    H231560   5.029   2.969   5.413
10542TIP3   OH231561   5.584   3.364   6.794
10542TIP3    H131562   5.660   3.391   6.743
10542TIP3    H231563   5.517   3.430   6.775
10543TIP3   OH231564   7.435   7.009   0.457
10543TIP3    H131565   7.491   6.946   0.413
10543TIP3    H231566   7.476   7.022   0.543
10544TIP3   OH231567   4.645   2.779   5.805
10544TIP3    H131568   4.622   2.748   5.892
10544TIP3    H231569   4.691   2.706   5.764
10545TIP3   OH231570   7.798   6.872   0.122
10545TIP3    H131571   7.710   6.908   0.131
10545TIP3    H231572   7.827   6.899   0.035
10546TIP3   OH231573   4.786   2.596   5.648
10546TIP3    H131574   4.754   2.598   5.558
10546TIP3    H231575   4.881   2.604   5.641
10547TIP3   OH231576   8.296   7.245   0.206
10547TIP3    H131577   8.361   7.203   0.148
10547TIP3    H231578   8.292   7.187   0.282
10548TIP3   OH231579   5.582   2.884   5.323
10548TIP3    H131580   5.567   2.844   5.238
10548TIP3    H231581   5.558   2.976   5.312
10549TIP3   OH231582   7.900   6.637   0.222
10549TIP3    H131583   7.899   6.566   0.157
10549TIP3    H231584   7.864   6.712   0.176
10550TIP3   OH231585   5.071   2.431   6.960
10550TIP3    H131586   5.096   2.468   6.875
10550TIP3    H231587   4.980   2.405   6.948
10551TIP3   OH231588   5.075   2.957   6.832
10551TIP3    H131589   5.164   2.989   6.816
10551TIP3    H231590   5.019   3.017   6.783
10552TIP3   OH231591   0.002   6.921   0.273
10552TIP3    H131592   0.038   6.832   0.279
10552TIP3    H231593   0.077   6.976   0.254
10553TIP3   OH231594   5.700   3.181   6.957
10553TIP3    H131595   5.648   3.245   6.908
10553TIP3    H231596   5.789   3.194   6.926
10554TIP3   OH231597   7.794   6.725   0.469
10554TIP3    H131598   7.710   6.684   0.490
10554TIP3    H231599   7.814   6.696   0.380
10555TIP3   OH231600   8.027   6.206   0.114
10555TIP3    H131601   7.985   6.286   0.083
10555TIP3    H231602   7.960   6.138   0.104
10556TIP3   OH231603   8.151   6.677   0.329
10556TIP3    H131604   8.138   6.664   0.423
10556TIP3    H231605   8.066   6.656   0.290
10557TIP3   OH231606   8.395   6.636   0.198
10557TIP3    H131607   8.316   6.634   0.253
10557TIP3    H231608   8.465   6.606   0.255
10558TIP3   OH231609   0.135   6.596   0.336
10558TIP3    H131610   0.148   6.502   0.344
10558TIP3    H231611   0.130   6.627   0.427
10559TIP3   OH231612   7.611   6.506   0.512
10559TIP3    H131613   7.616   6.419   0.473
10559TIP3    H231614   7.661   6.498   0.593
10560TIP3   OH231615   8.103   6.194   0.376
10560TIP3    H131616   8.167   6.122   0.374
10560TIP3    H231617   8.072   6.200   0.285
10561TIP3   OH231618   8.193   6.398   0.536
10561TIP3    H131619   8.165   6.329   0.477
10561TIP3    H231620   8.120   6.460   0.538
10562TIP3   OH231621   4.613   3.647   5.584
10562TIP3    H131622   4.700   3.623   5.554
10562TIP3    H231623   4.572   3.690   5.508
10563TIP3   OH231624   4.073   3.025   5.762
10563TIP3    H131625   4.168   3.036   5.758
10563TIP3    H231626   4.057   2.939   5.722
10564TIP3   OH231627   3.976   3.611   6.220
10564TIP3    H131628   3.911   3.555   6.176
10564TIP3    H231629   4.023   3.552   6.277
10565TIP3   OH231630   4.116   3.432   6.381
10565TIP3    H131631   4.097   3.365   6.446
10565TIP3    H231632   4.173   3.494   6.426
10566TIP3   OH231633   5.863   3.841   6.197
10566TIP3    H131634   5.885   3.867   6.287
10566TIP3    H231635   5.921   3.893   6.142
10567TIP3   OH231636   5.886   3.871   6.478
10567TIP3    H131637   5.836   3.789   6.473
10567TIP3    H231638   5.953   3.854   6.543
10568TIP3   OH231639   0.266   7.587   0.108
10568TIP3    H131640   0.194   7.595   0.171
10568TIP3    H231641   0.313   7.670   0.116
10569TIP3   OH231642   5.756   3.092   5.657
10569TIP3    H131643   5.813   3.164   5.630
10569TIP3    H231644   5.799   3.054   5.733
10570TIP3   OH231645   5.881   2.949   5.860
10570TIP3    H131646   5.813   2.911   5.916
10570TIP3    H231647   5.945   2.985   5.922
10571TIP3   OH231648   5.928   3.353   6.296
10571TIP3    H131649   5.980   3.284   6.254
10571TIP3    H231650   5.929   3.424   6.232
10572TIP3   OH231651   5.738   3.636   6.487
10572TIP3    H131652   5.671   3.682   6.537
10572TIP3    H231653   5.690   3.596   6.414
10573TIP3   OH231654   5.788   2.865   5.505
10573TIP3    H131655   5.717   2.865   5.441
10573TIP3    H231656   5.773   2.943   5.558
10574TIP3   OH231657   5.653   2.510   5.437
10574TIP3    H131658   5.601   2.550   5.368
10574TIP3    H231659   5.642   2.416   5.425
10575TIP3   OH231660   5.678   2.811   5.995
10575TIP3    H131661   5.681   2.716   5.981
10575TIP3    H231662   5.658   2.821   6.088
10576TIP3   OH231663   4.298   2.878   6.764
10576TIP3    H131664   4.288   2.843   6.676
10576TIP3    H231665   4.393   2.873   6.781
10577TIP3   OH231666   5.955   3.225   6.856
10577TIP3    H131667   6.024   3.161   6.841
10577TIP3    H231668   5.954   3.279   6.777
10578TIP3   OH231669   6.138   3.017   6.850
10578TIP3    H131670   6.063   2.975   6.892
10578TIP3    H231671   6.212   2.962   6.872
10579TIP3   OH231672   5.609   2.238   5.410
10579TIP3    H131673   5.669   2.217   5.481
10579TIP3    H231674   5.524   2.207   5.440
10580TIP3   OH231675   5.672   2.535   5.883
10580TIP3    H131676   5.717   2.451   5.895
10580TIP3    H231677   5.714   2.572   5.805
10581TIP3   OH231678   5.824   2.698   6.406
10581TIP3    H131679   5.905   2.715   6.358
10581TIP3    H231680   5.838   2.738   6.492
10582TIP3   OH231681   5.899   2.849   6.633
10582TIP3    H131682   5.825   2.877   6.687
10582TIP3    H231683   5.929   2.929   6.590
10583TIP3   OH231684   7.348   6.569   0.468
10583TIP3    H131685   7.443   6.570   0.484
10583TIP3    H231686   7.318   6.487   0.506
10584TIP3   OH231687   0.692   6.462   0.229
10584TIP3    H131688   0.753   6.400   0.190
10584TIP3    H231689   0.653   6.508   0.155
10585TIP3   OH231690   5.787   2.284   5.933
10585TIP3    H131691   5.831   2.269   6.016
10585TIP3    H231692   5.723   2.213   5.927
10586TIP3   OH231693   4.495   2.268   6.756
10586TIP3    H131694   4.547   2.188   6.762
10586TIP3    H231695   4.559   2.337   6.737
10587TIP3   OH231696   4.277   2.531   6.820
10587TIP3    H131697   4.328   2.521   6.740
10587TIP3    H231698   4.302   2.617   6.854
10588TIP3   OH231699   0.542   6.567   0.026
10588TIP3    H131700   0.457   6.606   0.045
10588TIP3    H231701   0.522   6.489  -0.026
10589TIP3   OH231702   5.832   2.198   5.574
10589TIP3    H131703   5.881   2.137   5.518
10589TIP3    H231704   5.887   2.276   5.578
10590TIP3   OH231705   4.263   2.053   6.340
10590TIP3    H131706   4.175   2.034   6.373
10590TIP3    H231707   4.248   2.100   6.258
10591TIP3   OH231708   5.429   3.761   5.842
10591TIP3    H131709   5.483   3.748   5.764
10591TIP3    H231710   5.470   3.834   5.887
10592TIP3   OH231711   7.334   6.114   0.181
10592TIP3    H131712   7.282   6.105   0.261
10592TIP3    H231713   7.278   6.163   0.121
10593TIP3   OH231714   7.361   7.556   0.291
10593TIP3    H131715   7.269   7.542   0.270
10593TIP3    H231716   7.370   7.529   0.382
10594TIP3   OH231717   4.727   3.600   6.772
10594TIP3    H131718   4.674   3.674   6.741
10594TIP3    H231719   4.811   3.611   6.728
10595TIP3   OH231720   5.126   3.828   6.909
10595TIP3    H131721   5.162   3.823   6.997
10595TIP3    H231722   5.187   3.883   6.860
10596TIP3   OH231723   5.311   3.987   6.781
10596TIP3    H131724   5.369   3.934   6.726
10596TIP3    H231725   5.370   4.041   6.834
10597TIP3   OH231726   6.124   2.308   6.867
10597TIP3    H131727   6.035   2.297   6.835
10597TIP3    H231728   6.163   2.221   6.862
10598TIP3   OH231729   4.397   3.803   6.835
10598TIP3    H131730   4.333   3.841   6.775
10598TIP3    H231731   4.409   3.869   6.903
10599TIP3   OH231732   4.619   3.833   6.668
10599TIP3    H131733   4.539   3.831   6.719
10599TIP3    H231734   4.590   3.852   6.578
10600TIP3   OH231735   5.033   3.849   6.459
10600TIP3    H131736   4.959   3.856   6.399
10600TIP3    H231737   5.040   3.936   6.499
10601TIP3   OH231738   5.298   3.792   6.511
10601TIP3    H131739   5.206   3.807   6.490
10601TIP3    H231740   5.345   3.856   6.457
10602TIP3   OH231741   5.509   3.969   6.414
10602TIP3    H131742   5.499   4.053   6.370
10602TIP3    H231743   5.535   3.908   6.344
10603TIP3   OH231744   4.292   3.582   6.537
10603TIP3    H131745   4.326   3.565   6.625
10603TIP3    H231746   4.368   3.574   6.480
10604TIP3   OH231747   4.509   3.511   6.387
10604TIP3    H131748   4.519   3.427   6.433
10604TIP3    H231749   4.596   3.551   6.393
10605TIP3   OH231750   4.778   3.592   6.415
10605TIP3    H131751   4.795   3.499   6.400
10605TIP3    H231752   4.828   3.613   6.494
10606TIP3   OH231753   5.330   2.241   6.511
10606TIP3    H131754   5.289   2.170   6.560
10606TIP3    H231755   5.397   2.198   6.458
10607TIP3   OH231756   5.830   2.156   6.393
10607TIP3    H131757   5.864   2.206   6.319
10607TIP3    H231758   5.736   2.174   6.393
10608TIP3   OH231759   5.945   2.232   6.155
10608TIP3    H131760   6.014   2.172   6.129
10608TIP3    H231761   5.983   2.319   6.142
10609TIP3   OH231762   4.567   1.941   6.503
10609TIP3    H131763   4.477   1.909   6.510
10609TIP3    H231764   4.620   1.862   6.492
10610TIP3   OH231765   4.390   1.845   6.180
10610TIP3    H131766   4.413   1.886   6.097
10610TIP3    H231767   4.354   1.916   6.234
10611TIP3   OH231768   5.053   1.977   6.400
10611TIP3    H131769   5.098   2.027   6.332
10611TIP3    H231770   5.092   2.008   6.482
10612TIP3   OH231771   5.544   2.126   6.375
10612TIP3    H131772   5.545   2.092   6.286
10612TIP3    H231773   5.549   2.049   6.431
10613TIP3   OH231774   5.601   2.074   5.943
10613TIP3    H131775   5.521   2.121   5.966
10613TIP3    H231776   5.590   1.987   5.981
10614TIP3   OH231777   4.066   3.420   5.922
10614TIP3    H131778   3.983   3.385   5.892
10614TIP3    H231779   4.068   3.511   5.890
10615TIP3   OH231780   4.463   1.970   5.945
10615TIP3    H131781   4.429   1.980   5.856
10615TIP3    H231782   4.540   2.027   5.948
10616TIP3   OH231783   4.979   2.175   6.018
10616TIP3    H131784   5.034   2.119   6.072
10616TIP3    H231785   4.997   2.264   6.048
10617TIP3   OH231786   4.865   3.567   5.511
10617TIP3    H131787   4.949   3.595   5.473
10617TIP3    H231788   4.836   3.497   5.454
10618TIP3   OH231789   5.575   3.710   5.610
10618TIP3    H131790   5.567   3.615   5.604
10618TIP3    H231791   5.527   3.743   5.534
10619TIP3   OH231792   7.634   6.240   0.422
10619TIP3    H131793   7.601   6.170   0.478
10619TIP3    H231794   7.725   6.250   0.447
10620TIP3   OH231795   7.886   6.261   0.534
10620TIP3    H131796   7.960   6.237   0.478
10620TIP3    H231797   7.898   6.207   0.613
10621TIP3   OH231798   4.174   3.413   5.570
10621TIP3    H131799   4.175   3.420   5.665
10621TIP3    H231800   4.254   3.366   5.548
10622TIP3   OH231801   0.197   6.326   0.342
10622TIP3    H131802   0.211   6.296   0.432
10622TIP3    H231803   0.283   6.321   0.301
10623TIP3   OH231804   5.783   3.851   6.801
10623TIP3    H131805   5.710   3.820   6.748
10623TIP3    H231806   5.769   3.945   6.809
10624TIP3   OH231807   7.062   3.240   5.539
10624TIP3    H131808   7.031   3.327   5.512
10624TIP3    H231809   6.991   3.181   5.514
10625TIP3   OH231810   7.056   3.231   5.966
10625TIP3    H131811   7.110   3.213   6.043
10625TIP3    H231812   7.013   3.147   5.947
10626TIP3   OH231813   6.357   3.092   6.307
10626TIP3    H131814   6.395   3.040   6.378
10626TIP3    H231815   6.432   3.116   6.253
10627TIP3   OH231816   7.324   3.540   5.639
10627TIP3    H131817   7.315   3.473   5.706
10627TIP3    H231818   7.348   3.619   5.688
10628TIP3   OH231819   6.352   3.522   5.996
10628TIP3    H131820   6.333   3.429   6.003
10628TIP3    H231821   6.447   3.528   5.988
10629TIP3   OH231822   6.033   2.724   5.778
10629TIP3    H131823   5.993   2.808   5.804
10629TIP3    H231824   5.960   2.675   5.739
10630TIP3   OH231825   6.111   3.033   6.003
10630TIP3    H131826   6.161   2.955   6.029
10630TIP3    H231827   6.177   3.095   5.974
10631TIP3   OH231828   6.987   3.966   5.654
10631TIP3    H131829   7.012   3.903   5.586
10631TIP3    H231830   6.995   3.918   5.736
10632TIP3   OH231831   6.867   3.453   5.968
10632TIP3    H131832   6.911   3.372   5.943
10632TIP3    H231833   6.937   3.511   5.998
10633TIP3   OH231834   7.900   2.778   5.983
10633TIP3    H131835   7.910   2.868   6.014
10633TIP3    H231836   7.933   2.779   5.893
10634TIP3   OH231837   7.270   2.945   6.003
10634TIP3    H131838   7.302   2.860   6.032
10634TIP3    H231839   7.234   2.928   5.916
10635TIP3   OH231840   6.627   2.599   5.963
10635TIP3    H131841   6.606   2.672   5.905
10635TIP3    H231842   6.571   2.527   5.932
10636TIP3   OH231843   7.326   2.699   5.601
10636TIP3    H131844   7.388   2.693   5.673
10636TIP3    H231845   7.378   2.734   5.528
10637TIP3   OH231846   6.253   2.813   6.094
10637TIP3    H131847   6.336   2.794   6.137
10637TIP3    H231848   6.256   2.761   6.013
10638TIP3   OH231849   6.672   3.013   5.909
10638TIP3    H131850   6.766   2.997   5.916
10638TIP3    H231851   6.637   2.931   5.875
10639TIP3   OH231852   7.945   3.000   6.155
10639TIP3    H131853   7.855   3.032   6.146
10639TIP3    H231854   7.975   3.036   6.238
10640TIP3   OH231855   6.608   2.604   6.417
10640TIP3    H131856   6.558   2.640   6.343
10640TIP3    H231857   6.553   2.620   6.493
10641TIP3   OH231858   6.959   3.457   5.399
10641TIP3    H131859   6.920   3.427   5.317
10641TIP3    H231860   6.905   3.532   5.425
10642TIP3   OH231861   6.703   3.378   6.180
10642TIP3    H131862   6.650   3.450   6.214
10642TIP3    H231863   6.753   3.417   6.107
10643TIP3   OH231864   7.481   2.723   5.825
10643TIP3    H131865   7.436   2.703   5.907
10643TIP3    H231866   7.538   2.797   5.846
10644TIP3   OH231867   6.501   2.710   6.184
10644TIP3    H131868   6.556   2.785   6.208
10644TIP3    H231869   6.547   2.667   6.113
10645TIP3   OH231870   6.548   3.581   6.286
10645TIP3    H131871   6.533   3.671   6.255
10645TIP3    H231872   6.470   3.560   6.337
10646TIP3   OH231873   5.925   3.285   5.539
10646TIP3    H131874   5.886   3.303   5.453
10646TIP3    H231875   5.948   3.371   5.574
10647TIP3   OH231876   7.361   3.787   5.780
10647TIP3    H131877   7.273   3.780   5.816
10647TIP3    H231878   7.361   3.871   5.733
10648TIP3   OH231879   7.721   2.694   6.173
10648TIP3    H131880   7.634   2.676   6.137
10648TIP3    H231881   7.774   2.719   6.098
10649TIP3   OH231882   6.944   2.298   6.141
10649TIP3    H131883   6.934   2.206   6.165
10649TIP3    H231884   6.870   2.342   6.182
10650TIP3   OH231885   7.070   3.819   5.433
10650TIP3    H131886   7.123   3.740   5.423
10650TIP3    H231887   7.128   3.890   5.404
10651TIP3   OH231888   7.208   3.588   5.394
10651TIP3    H131889   7.136   3.526   5.391
10651TIP3    H231890   7.258   3.565   5.471
10652TIP3   OH231891   7.594   3.676   6.121
10652TIP3    H131892   7.576   3.601   6.064
10652TIP3    H231893   7.582   3.752   6.065
10653TIP3   OH231894   6.888   3.078   5.392
10653TIP3    H131895   6.806   3.122   5.372
10653TIP3    H231896   6.935   3.076   5.309
10654TIP3   OH231897   6.857   2.883   5.081
10654TIP3    H131898   6.922   2.932   5.132
10654TIP3    H231899   6.907   2.816   5.036
10655TIP3   OH231900   7.771   3.336   5.994
10655TIP3    H131901   7.688   3.382   5.991
10655TIP3    H231902   7.808   3.346   5.907
10656TIP3   OH231903   7.247   3.166   5.351
10656TIP3    H131904   7.193   3.196   5.425
10656TIP3    H231905   7.330   3.141   5.391
10657TIP3   OH231906   7.473   3.198   6.300
10657TIP3    H131907   7.469   3.282   6.346
10657TIP3    H231908   7.391   3.195   6.251
10658TIP3   OH231909   6.475   3.147   5.757
10658TIP3    H131910   6.439   3.086   5.693
10658TIP3    H231911   6.547   3.099   5.798
10659TIP3   OH231912   6.614   3.571   5.898
10659TIP3    H131913   6.590   3.555   5.806
10659TIP3    H231914   6.701   3.531   5.907
10660TIP3   OH231915   6.572   3.141   6.134
10660TIP3    H131916   6.611   3.105   6.054
10660TIP3    H231917   6.621   3.222   6.149
10661TIP3   OH231918   7.119   3.783   5.906
10661TIP3    H131919   7.111   3.862   5.960
10661TIP3    H231920   7.107   3.711   5.967
10662TIP3   OH231921   6.746   3.679   6.454
10662TIP3    H131922   6.685   3.735   6.501
10662TIP3    H231923   6.690   3.627   6.396
10663TIP3   OH231924   7.076   3.027   5.185
10663TIP3    H131925   7.137   3.085   5.233
10663TIP3    H231926   7.104   3.033   5.094
10664TIP3   OH231927   6.498   3.222   6.600
10664TIP3    H131928   6.502   3.317   6.617
10664TIP3    H231929   6.404   3.204   6.593
10665TIP3   OH231930   6.823   3.697   5.438
10665TIP3    H131931   6.905   3.746   5.445
10665TIP3    H231932   6.764   3.757   5.391
10666TIP3   OH231933   6.535   3.836   6.539
10666TIP3    H131934   6.510   3.846   6.447
10666TIP3    H231935   6.452   3.821   6.585
10667TIP3   OH231936   7.591   2.258   5.246
10667TIP3    H131937   7.513   2.280   5.297
10667TIP3    H231938   7.603   2.333   5.188
10668TIP3   OH231939   6.348   2.988   5.557
10668TIP3    H131940   6.270   3.036   5.528
10668TIP3    H231941   6.317   2.900   5.576
10669TIP3   OH231942   7.389   3.633   4.798
10669TIP3    H131943   7.392   3.727   4.778
10669TIP3    H231944   7.477   3.602   4.777
10670TIP3   OH231945   6.130   3.393   6.490
10670TIP3    H131946   6.060   3.375   6.427
10670TIP3    H231947   6.163   3.307   6.514
10671TIP3   OH231948   5.973   3.585   6.138
10671TIP3    H131949   6.065   3.606   6.155
10671TIP3    H231950   5.925   3.662   6.170
10672TIP3   OH231951   7.832   4.039   6.193
10672TIP3    H131952   7.836   3.943   6.202
10672TIP3    H231953   7.752   4.063   6.240
10673TIP3   OH231954   6.934   3.823   6.317
10673TIP3    H131955   6.925   3.914   6.346
10673TIP3    H231956   6.867   3.776   6.366
10674TIP3   OH231957   6.713   3.920   5.268
10674TIP3    H131958   6.665   3.901   5.187
10674TIP3    H231959   6.678   4.004   5.298
10675TIP3   OH231960   6.150   3.776   5.647
10675TIP3    H131961   6.193   3.768   5.732
10675TIP3    H231962   6.099   3.696   5.638
10676TIP3   OH231963   6.914   3.851   4.898
10676TIP3    H131964   6.964   3.778   4.863
10676TIP3    H231965   6.949   3.865   4.986
10677TIP3   OH231966   6.968   3.897   5.166
10677TIP3    H131967   6.881   3.899   5.208
10677TIP3    H231968   7.025   3.860   5.233
10678TIP3   OH231969   7.712   3.153   6.468
10678TIP3    H131970   7.632   3.165   6.415
10678TIP3    H231971   7.733   3.060   6.458
10679TIP3   OH231972   6.329   3.580   6.456
10679TIP3    H131973   6.380   3.567   6.536
10679TIP3    H231974   6.258   3.517   6.463
10680TIP3   OH231975   6.711   2.388   6.274
10680TIP3    H131976   6.628   2.354   6.243
10680TIP3    H231977   6.689   2.468   6.321
10681TIP3   OH231978   7.262   2.484   6.447
10681TIP3    H131979   7.333   2.455   6.504
10681TIP3    H231980   7.182   2.471   6.499
10682TIP3   OH231981   7.472   2.932   6.387
10682TIP3    H131982   7.428   2.928   6.472
10682TIP3    H231983   7.458   3.021   6.356
10683TIP3   OH231984   7.153   3.013   4.922
10683TIP3    H131985   7.110   3.013   4.837
10683TIP3    H231986   7.235   3.059   4.908
10684TIP3   OH231987   6.863   2.429   5.240
10684TIP3    H131988   6.828   2.435   5.329
10684TIP3    H231989   6.827   2.347   5.206
10685TIP3   OH231990   6.653   2.920   6.282
10685TIP3    H131991   6.607   2.927   6.366
10685TIP3    H231992   6.632   3.001   6.236
10686TIP3   OH231993   6.531   2.799   5.801
10686TIP3    H131994   6.442   2.775   5.826
10686TIP3    H231995   6.541   2.765   5.712
10687TIP3   OH231996   7.012   2.872   5.528
10687TIP3    H131997   6.965   2.946   5.488
10687TIP3    H231998   7.071   2.841   5.459
10688TIP3   OH231999   7.197   3.142   6.602
10688TIP3    H132000   7.169   3.074   6.664
10688TIP3    H232001   7.290   3.155   6.621
10689TIP3   OH232002   7.179   2.887   5.751
10689TIP3    H132003   7.112   2.907   5.687
10689TIP3    H232004   7.227   2.813   5.714
10690TIP3   OH232005   6.489   2.935   6.502
10690TIP3    H132006   6.501   3.000   6.572
10690TIP3    H232007   6.470   2.853   6.547
10691TIP3   OH232008   6.531   2.408   5.216
10691TIP3    H132009   6.523   2.412   5.311
10691TIP3    H232010   6.453   2.452   5.182
10692TIP3   OH232011   6.078   2.453   6.080
10692TIP3    H132012   6.151   2.489   6.131
10692TIP3    H232013   6.117   2.434   5.994
10693TIP3   OH232014   5.987   2.430   5.584
10693TIP3    H132015   6.031   2.465   5.507
10693TIP3    H232016   5.924   2.497   5.609
10694TIP3   OH232017   7.221   3.143   6.180
10694TIP3    H132018   7.246   3.078   6.115
10694TIP3    H232019   7.179   3.093   6.250
10695TIP3   OH232020   6.892   2.588   5.849
10695TIP3    H132021   6.815   2.588   5.905
10695TIP3    H232022   6.966   2.580   5.910
10696TIP3   OH232023   6.292   2.674   5.860
10696TIP3    H132024   6.204   2.679   5.823
10696TIP3    H232025   6.320   2.584   5.845
10697TIP3   OH232026   6.546   2.675   5.556
10697TIP3    H132027   6.640   2.686   5.546
10697TIP3    H232028   6.510   2.692   5.469
10698TIP3   OH232029   7.330   2.681   6.059
10698TIP3    H132030   7.315   2.695   6.152
10698TIP3    H232031   7.261   2.621   6.032
10699TIP3   OH232032   6.434   2.699   5.307
10699TIP3    H132033   6.370   2.650   5.255
10699TIP3    H232034   6.487   2.744   5.242
10700TIP3   OH232035   7.542   4.381   6.283
10700TIP3    H132036   7.539   4.394   6.188
10700TIP3    H232037   7.621   4.426   6.311
10701TIP3   OH232038   6.483   3.491   6.689
10701TIP3    H132039   6.564   3.511   6.737
10701TIP3    H232040   6.414   3.500   6.755
10702TIP3   OH232041   6.945   2.960   5.959
10702TIP3    H132042   7.012   2.911   5.911
10702TIP3    H232043   6.943   2.919   6.045
10703TIP3   OH232044   6.436   2.425   5.847
10703TIP3    H132045   6.408   2.350   5.899
10703TIP3    H232046   6.459   2.388   5.762
10704TIP3   OH232047   6.919   2.863   6.223
10704TIP3    H132048   6.832   2.894   6.248
10704TIP3    H232049   6.980   2.913   6.277
10705TIP3   OH232050   6.651   3.214   5.334
10705TIP3    H132051   6.577   3.158   5.311
10705TIP3    H232052   6.626   3.255   5.417
10706TIP3   OH232053   7.538   3.474   5.944
10706TIP3    H132054   7.574   3.522   5.869
10706TIP3    H232055   7.460   3.430   5.908
10707TIP3   OH232056   7.116   2.532   5.243
10707TIP3    H132057   7.022   2.512   5.240
10707TIP3    H232058   7.119   2.627   5.255
10708TIP3   OH232059   7.061   3.556   6.351
10708TIP3    H132060   7.113   3.544   6.431
10708TIP3    H232061   7.021   3.642   6.361
10709TIP3   OH232062   7.176   2.796   5.312
10709TIP3    H132063   7.271   2.799   5.324
10709TIP3    H232064   7.156   2.874   5.261
10710TIP3   OH232065   6.344   3.235   5.986
10710TIP3    H132066   6.382   3.215   5.900
10710TIP3    H232067   6.409   3.203   6.048
10711TIP3   OH232068   6.805   3.376   5.177
10711TIP3    H132069   6.756   3.458   5.174
10711TIP3    H232070   6.750   3.318   5.230
10712TIP3   OH232071   6.223   3.159   6.620
10712TIP3    H132072   6.225   3.132   6.712
10712TIP3    H232073   6.149   3.112   6.582
10713TIP3   OH232074   6.966   3.296   6.642
10713TIP3    H132075   6.897   3.235   6.615
10713TIP3    H232076   7.047   3.254   6.612
10714TIP3   OH232077   7.205   3.846   6.239
10714TIP3    H132078   7.110   3.831   6.244
10714TIP3    H232079   7.228   3.881   6.325
10715TIP3   OH232080   7.586   2.885   5.129
10715TIP3    H132081   7.529   2.840   5.066
10715TIP3    H232082   7.590   2.975   5.097
10716TIP3   OH232083   7.839   3.760   6.210
10716TIP3    H132084   7.745   3.744   6.207
10716TIP3    H232085   7.871   3.726   6.126
10717TIP3   OH232086   7.327   3.701   5.067
10717TIP3    H132087   7.302   3.630   5.128
10717TIP3    H232088   7.339   3.657   4.983
10718TIP3   OH232089   7.312   3.336   5.839
10718TIP3    H132090   7.222   3.313   5.863
10718TIP3    H232091   7.348   3.255   5.802
10719TIP3   OH232092   6.467   3.572   5.654
10719TIP3    H132093   6.463   3.647   5.595
10719TIP3    H232094   6.378   3.562   5.687
10720TIP3   OH232095   6.029   2.855   5.371
10720TIP3    H132096   6.071   2.939   5.393
10720TIP3    H232097   5.947   2.856   5.421
10721TIP3   OH232098   6.553   3.327   5.559
10721TIP3    H132099   6.535   3.416   5.589
10721TIP3    H232100   6.528   3.271   5.632
10722TIP3   OH232101   6.750   3.895   6.109
10722TIP3    H132102   6.787   3.968   6.059
10722TIP3    H232103   6.824   3.861   6.160
10723TIP3   OH232104   6.382   3.795   5.499
10723TIP3    H132105   6.296   3.800   5.541
10723TIP3    H232106   6.417   3.884   5.507
10724TIP3   OH232107   7.102   3.560   6.078
10724TIP3    H132108   7.089   3.555   6.173
10724TIP3    H232109   7.177   3.504   6.061
10725TIP3   OH232110   7.090   3.435   4.955
10725TIP3    H132111   7.145   3.408   5.029
10725TIP3    H232112   7.005   3.393   4.972
10726TIP3   OH232113   7.360   4.054   6.122
10726TIP3    H132114   7.291   3.991   6.141
10726TIP3    H232115   7.325   4.108   6.051
10727TIP3   OH232116   7.411   3.905   4.759
10727TIP3    H132117   7.444   3.971   4.698
10727TIP3    H232118   7.337   3.948   4.803
10728TIP3   OH232119   6.434   2.683   6.621
10728TIP3    H132120   6.338   2.692   6.625
10728TIP3    H232121   6.455   2.629   6.697
10729TIP3   OH232122   7.269   3.351   5.143
10729TIP3    H132123   7.254   3.297   5.221
10729TIP3    H232124   7.364   3.359   5.138
10730TIP3   OH232125   6.180   3.782   6.272
10730TIP3    H132126   6.231   3.719   6.323
10730TIP3    H232127   6.196   3.866   6.315
10731TIP3   OH232128   6.439   3.407   4.960
10731TIP3    H132129   6.452   3.316   4.934
10731TIP3    H232130   6.426   3.405   5.054
10732TIP3   OH232131   6.388   3.421   5.234
10732TIP3    H132132   6.453   3.393   5.299
10732TIP3    H232133   6.388   3.516   5.240
10733TIP3   OH232134   6.122   3.108   5.448
10733TIP3    H132135   6.056   3.156   5.500
10733TIP3    H232136   6.141   3.166   5.374
10734TIP3   OH232137   7.282   2.735   6.324
10734TIP3    H132138   7.361   2.777   6.357
10734TIP3    H232139   7.277   2.652   6.373
10735TIP3   OH232140   7.177   2.483   5.511
10735TIP3    H132141   7.155   2.504   5.420
10735TIP3    H232142   7.220   2.562   5.543
10736TIP3   OH232143   6.657   3.603   5.168
10736TIP3    H132144   6.573   3.628   5.207
10736TIP3    H232145   6.681   3.677   5.113
10737TIP3   OH232146   6.825   2.682   5.597
10737TIP3    H132147   6.887   2.750   5.572
10737TIP3    H232148   6.847   2.662   5.688
10738TIP3   OH232149   7.126   2.972   6.375
10738TIP3    H132150   7.152   3.013   6.458
10738TIP3    H232151   7.175   2.890   6.373
10739TIP3   OH232152   6.992   2.377   5.688
10739TIP3    H132153   6.968   2.455   5.739
10739TIP3    H232154   7.062   2.408   5.629
10740TIP3   OH232155   6.408   3.694   5.245
10740TIP3    H132156   6.385   3.765   5.185
10740TIP3    H232157   6.397   3.732   5.332
10741TIP3   OH232158   6.504   2.401   5.495
10741TIP3    H132159   6.492   2.492   5.524
10741TIP3    H232160   6.598   2.386   5.502
10742TIP3   OH232161   7.738   2.884   6.383
10742TIP3    H132162   7.643   2.890   6.393
10742TIP3    H232163   7.751   2.828   6.307
10743TIP3   OH232164   7.404   3.078   5.752
10743TIP3    H132165   7.328   3.022   5.764
10743TIP3    H232166   7.473   3.039   5.807
10744TIP3   OH232167   6.146   3.284   5.231
10744TIP3    H132168   6.218   3.347   5.240
10744TIP3    H232169   6.177   3.220   5.167
10745TIP3   OH232170   6.047   2.577   5.360
10745TIP3    H132171   6.063   2.670   5.371
10745TIP3    H232172   5.975   2.572   5.297
10746TIP3   OH232173   7.380   4.053   5.695
10746TIP3    H132174   7.340   4.105   5.625
10746TIP3    H232175   7.474   4.068   5.684
10747TIP3   OH232176   6.452   2.299   6.232
10747TIP3    H132177   6.422   2.266   6.148
10747TIP3    H232178   6.441   2.225   6.292
10748TIP3   OH232179   5.971   3.558   5.613
10748TIP3    H132180   5.921   3.592   5.687
10748TIP3    H232181   5.930   3.599   5.536
10749TIP3   OH232182   6.175   4.091   6.696
10749TIP3    H132183   6.258   4.094   6.744
10749TIP3    H232184   6.158   3.998   6.683
10750TIP3   OH232185   6.640   4.000   6.733
10750TIP3    H132186   6.732   3.975   6.742
10750TIP3    H232187   6.607   3.946   6.662
10751TIP3   OH232188   6.590   3.606   4.837
10751TIP3    H132189   6.544   3.537   4.884
10751TIP3    H232190   6.666   3.562   4.799
10752TIP3   OH232191   7.261   3.941   6.490
10752TIP3    H132192   7.275   3.871   6.553
10752TIP3    H232193   7.336   3.999   6.503
10753TIP3   OH232194   7.042   3.640   4.780
10753TIP3    H132195   7.073   3.576   4.844
10753TIP3    H232196   7.104   3.634   4.707
10754TIP3   OH232197   6.279   3.494   6.881
10754TIP3    H132198   6.297   3.401   6.892
10754TIP3    H232199   6.192   3.497   6.839
10755TIP3   OH232200   6.269   3.094   5.079
10755TIP3    H132201   6.320   3.070   5.156
10755TIP3    H232202   6.335   3.109   5.010
10756TIP3   OH232203   6.899   3.571   6.658
10756TIP3    H132204   6.855   3.592   6.576
10756TIP3    H232205   6.934   3.483   6.645
10757TIP3   OH232206   6.824   3.319   4.909
10757TIP3    H132207   6.806   3.329   5.002
10757TIP3    H232208   6.812   3.225   4.892
10758TIP3   OH232209   7.374   3.620   6.278
10758TIP3    H132210   7.451   3.646   6.228
10758TIP3    H232211   7.309   3.688   6.259
10759TIP3   OH232212   6.394   3.239   6.889
10759TIP3    H132213   6.469   3.218   6.833
10759TIP3    H232214   6.433   3.257   6.975
10760TIP3   OH232215   6.443   3.036   5.291
10760TIP3    H132216   6.421   3.006   5.379
10760TIP3    H232217   6.491   2.963   5.252
10761TIP3   OH232218   6.758   3.120   6.550
10761TIP3    H132219   6.672   3.160   6.559
10761TIP3    H232220   6.788   3.147   6.463
10762TIP3   OH232221   6.584   2.852   5.136
10762TIP3    H132222   6.555   2.858   5.045
10762TIP3    H232223   6.680   2.860   5.130
10763TIP3   OH232224   7.259   3.493   6.628
10763TIP3    H132225   7.328   3.456   6.573
10763TIP3    H232226   7.255   3.435   6.704
10764TIP3   OH232227   7.372   3.145   4.816
10764TIP3    H132228   7.360   3.103   4.730
10764TIP3    H232229   7.347   3.236   4.802
10765TIP3   OH232230   6.858   2.886   6.655
10765TIP3    H132231   6.862   2.816   6.590
10765TIP3    H232232   6.825   2.961   6.607
10766TIP3   OH232233   6.869   2.687   6.451
10766TIP3    H132234   6.896   2.724   6.367
10766TIP3    H232235   6.778   2.661   6.438
10767TIP3   OH232236   6.872   3.212   6.321
10767TIP3    H132237   6.961   3.242   6.307
10767TIP3    H232238   6.817   3.274   6.272
10768TIP3   OH232239   7.468   3.167   6.700
10768TIP3    H132240   7.503   3.080   6.718
10768TIP3    H232241   7.544   3.218   6.672
10769TIP3   OH232242   7.497   3.442   6.442
10769TIP3    H132243   7.444   3.504   6.392
10769TIP3    H232244   7.586   3.455   6.410
10770TIP3   OH232245   6.741   2.971   6.896
10770TIP3    H132246   6.671   2.909   6.917
10770TIP3    H232247   6.770   2.947   6.808
10771TIP3   OH232248   6.994   2.452   6.543
10771TIP3    H132249   6.953   2.533   6.512
10771TIP3    H232250   6.926   2.386   6.532
10772TIP3   OH232251   7.111   2.933   6.758
10772TIP3    H132252   7.103   2.920   6.853
10772TIP3    H232253   7.026   2.910   6.723
10773TIP3   OH232254   7.350   2.883   6.621
10773TIP3    H132255   7.275   2.883   6.680
10773TIP3    H232256   7.424   2.857   6.676
10774TIP3   OH232257   7.595   2.847   6.751
10774TIP3    H132258   7.605   2.752   6.757
10774TIP3    H232259   7.589   2.876   6.842
10775TIP3   OH232260   0.909   6.756   0.019
10775TIP3    H132261   0.915   6.668  -0.018
10775TIP3    H232262   0.949   6.749   0.106
10776TIP3   OH232263   7.052   2.439   6.810
10776TIP3    H132264   7.126   2.379   6.804
10776TIP3    H232265   7.022   2.450   6.720
10777TIP3   OH232266   7.148   2.656   6.949
10777TIP3    H132267   7.117   2.584   6.894
10777TIP3    H232268   7.074   2.717   6.953
10778TIP3   OH232269   6.398   3.898   5.051
10778TIP3    H132270   6.489   3.876   5.029
10778TIP3    H232271   6.362   3.935   4.970
10779TIP3   OH232272   5.872   3.285   5.240
10779TIP3    H132273   5.967   3.294   5.242
10779TIP3    H232274   5.856   3.198   5.205
10780TIP3   OH232275   5.776   3.867   5.707
10780TIP3    H132276   5.712   3.813   5.662
10780TIP3    H232277   5.820   3.807   5.768
10781TIP3   OH232278   5.918   3.701   5.875
10781TIP3    H132279   5.909   3.629   5.938
10781TIP3    H232280   5.971   3.766   5.920
10782TIP3   OH232281   7.645   4.119   5.686
10782TIP3    H132282   7.678   4.139   5.774
10782TIP3    H232283   7.713   4.150   5.627
10783TIP3   OH232284   7.681   4.134   5.969
10783TIP3    H132285   7.632   4.052   5.959
10783TIP3    H232286   7.748   4.114   6.033
10784TIP3   OH232287   7.717   3.829   6.537
10784TIP3    H132288   7.647   3.835   6.601
10784TIP3    H232289   7.757   3.917   6.537
10785TIP3   OH232290   7.547   3.352   5.146
10785TIP3    H132291   7.605   3.422   5.119
10785TIP3    H232292   7.591   3.312   5.221
10786TIP3   OH232293   7.673   3.206   5.344
10786TIP3    H132294   7.607   3.168   5.403
10786TIP3    H232295   7.737   3.245   5.402
10787TIP3   OH232296   7.712   3.612   5.777
10787TIP3    H132297   7.762   3.538   5.741
10787TIP3    H232298   7.723   3.681   5.712
10788TIP3   OH232299   7.534   3.898   5.970
10788TIP3    H132300   7.467   3.942   6.021
10788TIP3    H232301   7.486   3.856   5.898
10789TIP3   OH232302   7.577   3.125   4.996
10789TIP3    H132303   7.506   3.126   4.933
10789TIP3    H232304   7.563   3.204   5.049
10790TIP3   OH232305   7.432   2.779   4.932
10790TIP3    H132306   7.385   2.811   4.855
10790TIP3    H232307   7.424   2.684   4.927
10791TIP3   OH232308   7.472   3.068   5.483
10791TIP3    H132309   7.478   2.973   5.471
10791TIP3    H232310   7.454   3.078   5.577
10792TIP3   OH232311   6.093   3.132   6.257
10792TIP3    H132312   6.083   3.099   6.168
10792TIP3    H232313   6.188   3.127   6.274
10793TIP3   OH232314   7.752   3.486   6.343
10793TIP3    H132315   7.816   3.417   6.327
10793TIP3    H232316   7.762   3.545   6.268
10794TIP3   OH232317   7.920   3.272   6.334
10794TIP3    H132318   7.848   3.231   6.383
10794TIP3    H232319   7.997   3.220   6.356
10795TIP3   OH232320   7.393   2.510   4.915
10795TIP3    H132321   7.461   2.479   4.975
10795TIP3    H232322   7.313   2.465   4.944
10796TIP3   OH232323   7.466   2.791   5.370
10796TIP3    H132324   7.513   2.708   5.382
10796TIP3    H232325   7.507   2.830   5.292
10797TIP3   OH232326   7.618   2.958   5.892
10797TIP3    H132327   7.700   2.977   5.846
10797TIP3    H232328   7.630   2.996   5.979
10798TIP3   OH232329   7.687   3.107   6.122
10798TIP3    H132330   7.614   3.136   6.176
10798TIP3    H232331   7.719   3.186   6.080
10799TIP3   OH232332   6.312   2.810   6.902
10799TIP3    H132333   6.406   2.805   6.919
10799TIP3    H232334   6.278   2.728   6.938
10800TIP3   OH232335   8.147   2.711   6.674
10800TIP3    H132336   8.206   2.648   6.633
10800TIP3    H232337   8.109   2.760   6.600
10801TIP3   OH232338   7.584   2.543   5.420
10801TIP3    H132339   7.631   2.528   5.502
10801TIP3    H232340   7.521   2.471   5.414
10802TIP3   OH232341   6.290   2.525   6.245
10802TIP3    H132342   6.343   2.446   6.253
10802TIP3    H232343   6.354   2.595   6.229
10803TIP3   OH232344   6.070   2.784   6.310
10803TIP3    H132345   6.121   2.775   6.229
10803TIP3    H232346   6.098   2.868   6.347
10804TIP3   OH232347   8.001   2.817   6.470
10804TIP3    H132348   7.918   2.858   6.496
10804TIP3    H232349   7.974   2.744   6.414
10805TIP3   OH232350   7.627   2.454   5.057
10805TIP3    H132351   7.677   2.395   5.001
10805TIP3    H232352   7.682   2.533   5.062
10806TIP3   OH232353   6.057   2.297   5.813
10806TIP3    H132354   5.971   2.285   5.854
10806TIP3    H232355   6.040   2.352   5.736
10807TIP3   OH232356   7.211   4.022   5.326
10807TIP3    H132357   7.268   4.009   5.249
10807TIP3    H232358   7.256   4.088   5.378
10808TIP3   OH232359   6.281   2.353   6.634
10808TIP3    H132360   6.228   2.344   6.714
10808TIP3    H232361   6.225   2.403   6.575
10809TIP3   OH232362   6.310   3.811   6.704
10809TIP3    H132363   6.217   3.791   6.697
10809TIP3    H232364   6.331   3.796   6.796
10810TIP3   OH232365   6.521   3.858   6.257
10810TIP3    H132366   6.471   3.933   6.226
10810TIP3    H232367   6.606   3.866   6.214
10811TIP3   OH232368   6.918   4.090   6.395
10811TIP3    H132369   6.956   4.082   6.483
10811TIP3    H232370   6.981   4.143   6.347
10812TIP3   OH232371   7.110   4.242   6.267
10812TIP3    H132372   7.170   4.187   6.218
10812TIP3    H232373   7.166   4.297   6.321
10813TIP3   OH232374   7.907   2.590   6.348
10813TIP3    H132375   7.829   2.612   6.297
10813TIP3    H232376   7.916   2.495   6.338
10814TIP3   OH232377   6.183   4.102   6.304
10814TIP3    H132378   6.091   4.119   6.283
10814TIP3    H232379   6.204   4.167   6.371
10815TIP3   OH232380   6.413   4.090   6.155
10815TIP3    H132381   6.330   4.095   6.202
10815TIP3    H232382   6.391   4.113   6.064
10816TIP3   OH232383   6.828   4.106   5.946
10816TIP3    H132384   6.756   4.116   5.883
10816TIP3    H232385   6.837   4.192   5.987
10817TIP3   OH232386   7.093   4.046   5.997
10817TIP3    H132387   7.001   4.063   5.976
10817TIP3    H232388   7.142   4.112   5.948
10818TIP3   OH232389   7.296   4.218   5.898
10818TIP3    H132390   7.293   4.304   5.857
10818TIP3    H232391   7.325   4.159   5.829
10819TIP3   OH232392   6.095   3.875   6.024
10819TIP3    H132393   6.121   3.849   6.112
10819TIP3    H232394   6.165   3.843   5.967
10820TIP3   OH232395   6.297   3.763   5.881
10820TIP3    H132396   6.308   3.678   5.925
10820TIP3    H232397   6.383   3.803   5.885
10821TIP3   OH232398   6.565   3.847   5.905
10821TIP3    H132399   6.584   3.755   5.889
10821TIP3    H232400   6.619   3.871   5.981
10822TIP3   OH232401   7.118   2.501   5.988
10822TIP3    H132402   7.083   2.426   6.036
10822TIP3    H232403   7.186   2.464   5.932
10823TIP3   OH232404   7.622   2.394   5.862
10823TIP3    H132405   7.667   2.444   5.794
10823TIP3    H232406   7.541   2.441   5.877
10824TIP3   OH232407   7.747   2.490   5.637
10824TIP3    H132408   7.816   2.429   5.613
10824TIP3    H232409   7.783   2.577   5.620
10825TIP3   OH232410   6.364   2.198   5.990
10825TIP3    H132411   6.275   2.165   6.000
10825TIP3    H232412   6.418   2.120   5.980
10826TIP3   OH232413   6.186   2.106   5.645
10826TIP3    H132414   6.210   2.157   5.567
10826TIP3    H232415   6.148   2.170   5.705
10827TIP3   OH232416   6.844   2.235   5.881
10827TIP3    H132417   6.893   2.283   5.814
10827TIP3    H232418   6.881   2.266   5.964
10828TIP3   OH232419   7.328   2.399   5.841
10828TIP3    H132420   7.353   2.367   5.755
10828TIP3    H232421   7.327   2.321   5.897
10829TIP3   OH232422   7.395   2.337   5.422
10829TIP3    H132423   7.316   2.385   5.448
10829TIP3    H232424   7.381   2.248   5.456
10830TIP3   OH232425   5.862   3.673   5.383
10830TIP3    H132426   5.775   3.645   5.356
10830TIP3    H232427   5.865   3.766   5.361
10831TIP3   OH232428   6.292   2.235   5.405
10831TIP3    H132429   6.339   2.173   5.349
10831TIP3    H232430   6.361   2.291   5.441
10832TIP3   OH232431   6.780   2.429   5.505
10832TIP3    H132432   6.840   2.378   5.559
10832TIP3    H232433   6.793   2.520   5.532
10833TIP3   OH232434   6.657   3.823   4.992
10833TIP3    H132435   6.742   3.848   4.958
10833TIP3    H232436   6.627   3.753   4.933
10834TIP3   OH232437   7.363   3.969   5.098
10834TIP3    H132438   7.356   3.874   5.092
10834TIP3    H232439   7.320   4.001   5.019
10835TIP3   OH232440   6.591   2.478   6.875
10835TIP3    H132441   6.555   2.411   6.933
10835TIP3    H232442   6.683   2.485   6.900
10836TIP3   OH232443   1.174   6.492   0.054
10836TIP3    H132444   1.249   6.475  -0.003
10836TIP3    H232445   1.175   6.420   0.117
10837TIP3   OH232446   5.950   3.652   5.074
10837TIP3    H132447   5.948   3.650   5.170
10837TIP3    H232448   6.035   3.613   5.051
10838TIP3   OH232449   7.644   2.572   6.750
10838TIP3    H132450   7.652   2.554   6.844
10838TIP3    H232451   7.734   2.565   6.718
10839TIP3   OH232452   7.581   4.107   6.288
10839TIP3    H132453   7.507   4.076   6.235
10839TIP3    H232454   7.567   4.201   6.296
10840TIP3   OH232455   8.114   3.330   5.821
10840TIP3    H132456   8.155   3.293   5.899
10840TIP3    H232457   8.188   3.354   5.765
10841TIP3   OH232458   8.095   3.785   5.514
10841TIP3    H132459   8.084   3.690   5.512
10841TIP3    H232460   8.185   3.799   5.487
10842TIP3   OH232461   7.816   2.974   5.267
10842TIP3    H132462   7.784   3.061   5.291
10842TIP3    H232463   7.740   2.932   5.226
10843TIP3   OH232464   7.894   3.299   5.483
10843TIP3    H132465   7.945   3.220   5.505
10843TIP3    H232466   7.961   3.365   5.464
10844TIP3   OH232467   0.327   4.280   5.166
10844TIP3    H132468   0.395   4.221   5.200
10844TIP3    H232469   0.255   4.222   5.142
10845TIP3   OH232470   0.254   3.573   5.396
10845TIP3    H132471   0.238   3.619   5.313
10845TIP3    H232472   0.323   3.624   5.438
10846TIP3   OH232473   8.315   2.799   5.550
10846TIP3    H132474   8.331   2.869   5.487
10846TIP3    H232475   8.360   2.723   5.514
10847TIP3   OH232476   8.022   3.071   5.569
10847TIP3    H132477   8.097   3.054   5.626
10847TIP3    H232478   8.032   3.009   5.497
10848TIP3   OH232479   8.370   3.296   5.383
10848TIP3    H132480   8.464   3.317   5.389
10848TIP3    H232481   8.365   3.202   5.399
10849TIP3   OH232482   8.374   2.858   5.927
10849TIP3    H132483   8.326   2.904   5.858
10849TIP3    H232484   8.314   2.854   6.000
10850TIP3   OH232485   8.462   3.628   5.683
10850TIP3    H132486   8.401   3.692   5.720
10850TIP3    H232487   8.452   3.638   5.589
10851TIP3   OH232488   8.232   2.982   5.725
10851TIP3    H132489   8.296   3.053   5.735
10851TIP3    H232490   8.270   2.924   5.659
10852TIP3   OH232491   8.301   3.827   5.774
10852TIP3    H132492   8.290   3.915   5.739
10852TIP3    H232493   8.224   3.812   5.829
10853TIP3   OH232494   7.716   3.540   5.031
10853TIP3    H132495   7.674   3.561   4.948
10853TIP3    H232496   7.742   3.625   5.067
10854TIP3   OH232497   8.200   3.443   5.236
10854TIP3    H132498   8.166   3.391   5.163
10854TIP3    H232499   8.256   3.381   5.284
10855TIP3   OH232500   8.329   3.856   5.374
10855TIP3    H132501   8.306   3.832   5.285
10855TIP3    H232502   8.407   3.803   5.394
10856TIP3   OH232503   8.320   3.388   5.643
10856TIP3    H132504   8.350   3.355   5.558
10856TIP3    H232505   8.375   3.464   5.660
10857TIP3   OH232506   8.499   3.897   5.948
10857TIP3    H132507   8.449   3.968   5.988
10857TIP3    H232508   8.438   3.857   5.886
10858TIP3   OH232509   8.297   3.513   6.055
10858TIP3    H132510   8.291   3.599   6.096
10858TIP3    H232511   8.207   3.478   6.059
10859TIP3   OH232512  -0.016   3.940   5.004
10859TIP3    H132513   0.055   3.996   5.035
10859TIP3    H232514  -0.031   3.968   4.913
10860TIP3   OH232515   8.326   4.094   6.027
10860TIP3    H132516   8.296   4.102   5.937
10860TIP3    H232517   8.246   4.083   6.078
10861TIP3   OH232518   8.144   3.280   5.021
10861TIP3    H132519   8.055   3.293   4.987
10861TIP3    H232520   8.136   3.203   5.077
10862TIP3   OH232521   7.914   3.646   5.974
10862TIP3    H132522   7.846   3.624   5.910
10862TIP3    H232523   7.951   3.562   6.000
10863TIP3   OH232524   7.797   3.828   5.612
10863TIP3    H132525   7.891   3.822   5.595
10863TIP3    H232526   7.787   3.903   5.669
10864TIP3   OH232527   0.170   4.063   5.787
10864TIP3    H132528   0.143   4.128   5.852
10864TIP3    H232529   0.124   3.983   5.813
10865TIP3   OH232530   8.481   4.201   4.831
10865TIP3    H132531   8.458   4.126   4.775
10865TIP3    H232532   8.415   4.267   4.810
10866TIP3   OH232533   7.937   4.027   5.129
10866TIP3    H132534   7.977   4.022   5.215
10866TIP3    H232535   7.890   3.944   5.119
10867TIP3   OH232536   0.359   4.162   4.773
10867TIP3    H132537   0.308   4.198   4.700
10867TIP3    H232538   0.384   4.074   4.744
10868TIP3   OH232539   8.097   3.848   5.954
10868TIP3    H132540   8.148   3.835   6.033
10868TIP3    H232541   8.030   3.779   5.957
10869TIP3   OH232542   8.453   2.632   5.795
10869TIP3    H132543   8.372   2.603   5.754
10869TIP3    H232544   8.432   2.717   5.834
10870TIP3   OH232545   8.403   3.178   5.808
10870TIP3    H132546   8.355   3.194   5.889
10870TIP3    H232547   8.386   3.256   5.754
10871TIP3   OH232548   8.187   3.095   5.215
10871TIP3    H132549   8.143   3.033   5.274
10871TIP3    H232550   8.279   3.070   5.218
10872TIP3   OH232551   8.241   3.191   6.030
10872TIP3    H132552   8.272   3.230   6.112
10872TIP3    H232553   8.211   3.104   6.055
10873TIP3   OH232554   8.315   2.670   4.683
10873TIP3    H132555   8.265   2.633   4.755
10873TIP3    H232556   8.250   2.685   4.614
10874TIP3   OH232557   7.869   2.716   5.554
10874TIP3    H132558   7.924   2.747   5.626
10874TIP3    H232559   7.918   2.737   5.475
10875TIP3   OH232560   7.780   2.690   5.075
10875TIP3    H132561   7.832   2.730   5.006
10875TIP3    H232562   7.715   2.756   5.099
10876TIP3   OH232563   8.060   2.895   5.360
10876TIP3    H132564   7.976   2.910   5.316
10876TIP3    H232565   8.094   2.815   5.321
10877TIP3   OH232566   8.377   2.881   4.984
10877TIP3    H132567   8.440   2.897   4.914
10877TIP3    H232568   8.298   2.927   4.956
10878TIP3   OH232569   8.134   2.957   4.900
10878TIP3    H132570   8.047   2.917   4.910
10878TIP3    H232571   8.142   2.974   4.807
10879TIP3   OH232572   8.255   3.764   6.181
10879TIP3    H132573   8.333   3.779   6.234
10879TIP3    H232574   8.184   3.758   6.245
10880TIP3   OH232575   8.193   2.665   5.265
10880TIP3    H132576   8.177   2.598   5.331
10880TIP3    H232577   8.193   2.618   5.182
10881TIP3   OH232578   0.165   3.124   5.852
10881TIP3    H132579   0.073   3.150   5.855
10881TIP3    H232580   0.185   3.116   5.759
10882TIP3   OH232581   8.505   3.415   4.873
10882TIP3    H132582   8.420   3.414   4.828
10882TIP3    H232583   8.492   3.472   4.948
10883TIP3   OH232584   0.405   3.767   5.770
10883TIP3    H132585   0.437   3.690   5.818
10883TIP3    H232586   0.358   3.819   5.835
10884TIP3   OH232587   8.103   3.503   5.487
10884TIP3    H132588   8.135   3.497   5.397
10884TIP3    H232589   8.172   3.464   5.541
10885TIP3   OH232590   0.141   3.594   4.662
10885TIP3    H132591   0.061   3.632   4.626
10885TIP3    H232592   0.118   3.570   4.751
10886TIP3   OH232593   8.031   3.438   6.118
10886TIP3    H132594   8.058   3.439   6.210
10886TIP3    H232595   7.967   3.367   6.112
10887TIP3   OH232596   0.221   3.528   6.140
10887TIP3    H132597   0.139   3.482   6.158
10887TIP3    H232598   0.289   3.461   6.152
10888TIP3   OH232599   8.256   3.798   5.116
10888TIP3    H132600   8.288   3.877   5.073
10888TIP3    H232601   8.172   3.779   5.073
10889TIP3   OH232602   7.810   3.110   4.853
10889TIP3    H132603   7.852   3.195   4.869
10889TIP3    H232604   7.729   3.114   4.905
10890TIP3   OH232605   8.427   3.561   5.135
10890TIP3    H132606   8.400   3.644   5.095
10890TIP3    H232607   8.345   3.520   5.164
10891TIP3   OH232608   0.001   4.143   5.591
10891TIP3    H132609   0.031   4.232   5.570
10891TIP3    H232610   0.076   4.104   5.636
10892TIP3   OH232611   8.167   4.052   4.982
10892TIP3    H132612   8.085   4.046   5.030
10892TIP3    H232613   8.192   4.144   4.987
10893TIP3   OH232614   8.206   2.905   6.143
10893TIP3    H132615   8.113   2.929   6.142
10893TIP3    H232616   8.212   2.833   6.205
10894TIP3   OH232617   7.956   4.046   5.770
10894TIP3    H132618   8.005   3.982   5.822
10894TIP3    H232619   7.971   4.129   5.815
10895TIP3   OH232620   8.149   3.615   4.369
10895TIP3    H132621   8.097   3.540   4.398
10895TIP3    H232622   8.205   3.636   4.444
10896TIP3   OH232623   8.120   3.711   4.802
10896TIP3    H132624   8.191   3.688   4.742
10896TIP3    H232625   8.113   3.806   4.795
10897TIP3   OH232626   7.901   3.365   4.918
10897TIP3    H132627   7.843   3.406   4.982
10897TIP3    H232628   7.905   3.428   4.845
10898TIP3   OH232629   8.450   3.948   4.729
10898TIP3    H132630   8.361   3.929   4.700
10898TIP3    H232631   8.503   3.939   4.649
10899TIP3   OH232632   8.165   3.969   4.725
10899TIP3    H132633   8.152   4.044   4.668
10899TIP3    H232634   8.168   4.005   4.813
10900TIP3   OH232635   8.273   2.623   4.977
10900TIP3    H132636   8.277   2.718   4.981
10900TIP3    H232637   8.365   2.595   4.979
10901TIP3   OH232638   7.899   3.571   4.727
10901TIP3    H132639   7.967   3.631   4.757
10901TIP3    H232640   7.943   3.515   4.663
10902TIP3   OH232641   7.879   2.847   4.869
10902TIP3    H132642   7.851   2.938   4.872
10902TIP3    H232643   7.853   2.816   4.782
10903TIP3   OH232644   8.203   2.547   5.712
10903TIP3    H132645   8.190   2.523   5.621
10903TIP3    H232646   8.208   2.464   5.759
10904TIP3   OH232647   7.764   3.806   5.111
10904TIP3    H132648   7.722   3.845   5.188
10904TIP3    H232649   7.722   3.851   5.037
10905TIP3   OH232650   7.969   4.347   6.182
10905TIP3    H132651   8.049   4.352   6.235
10905TIP3    H232652   7.956   4.254   6.169
10906TIP3   OH232653   8.424   4.279   6.208
10906TIP3    H132654   8.506   4.241   6.239
10906TIP3    H232655   8.395   4.220   6.139
10907TIP3   OH232656   8.424   3.798   4.331
10907TIP3    H132657   8.380   3.785   4.415
10907TIP3    H232658   8.503   3.743   4.336
10908TIP3   OH232659   8.058   3.743   6.376
10908TIP3    H132660   8.081   3.650   6.383
10908TIP3    H232661   7.974   3.743   6.331
10909TIP3   OH232662   8.025   3.370   4.596
10909TIP3    H132663   8.084   3.352   4.669
10909TIP3    H232664   8.074   3.341   4.518
10910TIP3   OH232665   0.071   3.755   6.173
10910TIP3    H132666   0.035   3.787   6.091
10910TIP3    H232667   0.118   3.675   6.150
10911TIP3   OH232668   0.103   3.591   4.373
10911TIP3    H132669   0.163   3.611   4.445
10911TIP3    H232670   0.068   3.505   4.394
10912TIP3   OH232671   8.173   3.486   6.366
10912TIP3    H132672   8.225   3.412   6.333
10912TIP3    H232673   8.214   3.510   6.449
10913TIP3   OH232674   0.020   3.351   6.043
10913TIP3    H132675  -0.061   3.402   6.052
10913TIP3    H232676   0.050   3.369   5.953
10914TIP3   OH232677   0.142   3.190   6.230
10914TIP3    H132678   0.098   3.106   6.217
10914TIP3    H232679   0.107   3.247   6.162
10915TIP3   OH232680   0.162   2.870   5.958
10915TIP3    H132681   0.165   2.956   5.916
10915TIP3    H232682   0.077   2.835   5.933
10916TIP3   OH232683   0.117   3.432   5.798
10916TIP3    H132684   0.202   3.472   5.820
10916TIP3    H232685   0.066   3.504   5.761
10917TIP3   OH232686   8.324   3.261   6.291
10917TIP3    H132687   8.353   3.177   6.327
10917TIP3    H232688   8.402   3.317   6.297
10918TIP3   OH232689   8.353   3.010   6.426
10918TIP3    H132690   8.356   2.919   6.398
10918TIP3    H232691   8.407   3.013   6.505
10919TIP3   OH232692   8.172   4.184   4.558
10919TIP3    H132693   8.264   4.162   4.542
10919TIP3    H232694   8.141   4.217   4.474
10920TIP3   OH232695   7.634   3.531   4.739
10920TIP3    H132696   7.727   3.552   4.736
10920TIP3    H232697   7.628   3.443   4.701
10921TIP3   OH232698   7.568   4.121   5.196
10921TIP3    H132699   7.504   4.068   5.150
10921TIP3    H232700   7.612   4.060   5.255
10922TIP3   OH232701   7.710   3.953   5.364
10922TIP3    H132702   7.706   3.882   5.428
10922TIP3    H232703   7.758   4.023   5.409
10923TIP3   OH232704   7.866   3.389   5.740
10923TIP3    H132705   7.860   3.358   5.650
10923TIP3    H232706   7.957   3.377   5.764
10924TIP3   OH232707   8.087   3.065   6.392
10924TIP3    H132708   8.183   3.062   6.399
10924TIP3    H232709   8.058   2.984   6.434
10925TIP3   OH232710   8.050   2.773   5.753
10925TIP3    H132711   8.106   2.697   5.741
10925TIP3    H232712   8.108   2.848   5.744
10926TIP3   OH232713   7.862   3.052   5.800
10926TIP3    H132714   7.902   3.047   5.714
10926TIP3    H232715   7.901   3.130   5.840
10927TIP3   OH232716   7.852   2.525   5.282
10927TIP3    H132717   7.775   2.528   5.339
10927TIP3    H232718   7.835   2.591   5.215
10928TIP3   OH232719   8.072   2.610   6.120
10928TIP3    H132720   8.021   2.608   6.201
10928TIP3    H232721   8.019   2.662   6.060
10929TIP3   OH232722   8.109   4.074   6.195
10929TIP3    H132723   8.016   4.049   6.194
10929TIP3    H232724   8.137   4.058   6.285
10930TIP3   OH232725   8.286   4.103   5.751
10930TIP3    H132726   8.230   4.172   5.716
10930TIP3    H232727   8.366   4.109   5.699
10931TIP3   OH232728   0.168   4.303   5.927
10931TIP3    H132729   0.236   4.255   5.976
10931TIP3    H232730   0.214   4.337   5.850
10932TIP3   OH232731   0.500   4.625   5.688
10932TIP3    H132732   0.520   4.564   5.617
10932TIP3    H232733   0.514   4.574   5.768
10933TIP3   OH232734   7.964   4.352   5.802
10933TIP3    H132735   7.873   4.376   5.780
10933TIP3    H232736   7.991   4.418   5.866
10934TIP3   OH232737   8.175   4.324   5.634
10934TIP3    H132738   8.092   4.333   5.681
10934TIP3    H232739   8.154   4.350   5.544
10935TIP3   OH232740   0.049   4.395   5.511
10935TIP3    H132741   0.051   4.426   5.421
10935TIP3    H232742  -0.016   4.450   5.554
10936TIP3   OH232743   0.324   4.251   5.481
10936TIP3    H132744   0.287   4.329   5.439
10936TIP3    H232745   0.380   4.212   5.414
10937TIP3   OH232746   7.874   4.140   5.522
10937TIP3    H132747   7.905   4.113   5.609
10937TIP3    H232748   7.940   4.105   5.462
10938TIP3   OH232749   8.060   4.020   5.372
10938TIP3    H132750   8.072   3.936   5.415
10938TIP3    H232751   8.147   4.061   5.375
10939TIP3   OH232752   8.315   4.125   5.392
10939TIP3    H132753   8.333   4.033   5.371
10939TIP3    H232754   8.375   4.145   5.464
10940TIP3   OH232755   8.164   2.453   5.449
10940TIP3    H132756   8.074   2.424   5.463
10940TIP3    H232757   8.217   2.374   5.461
10941TIP3   OH232758   7.991   2.347   5.121
10941TIP3    H132759   7.995   2.404   5.044
10941TIP3    H232760   7.946   2.399   5.187
10942TIP3   OH232761   7.655   3.931   4.892
10942TIP3    H132762   7.571   3.897   4.862
10942TIP3    H232763   7.655   4.022   4.862
10943TIP3   OH232764   8.046   2.495   4.891
10943TIP3    H132765   8.086   2.428   4.836
10943TIP3    H232766   8.120   2.544   4.927
10944TIP3   OH232767   8.426   4.117   4.490
10944TIP3    H132768   8.508   4.167   4.490
10944TIP3    H232769   8.421   4.080   4.402
10945TIP3   OH232770   8.362   2.726   6.356
10945TIP3    H132771   8.339   2.665   6.426
10945TIP3    H232772   8.457   2.727   6.356
10946TIP3   OH232773   7.739   3.932   4.559
10946TIP3    H132774   7.750   3.938   4.654
10946TIP3    H232775   7.818   3.887   4.529
10947TIP3   OH232776   1.326   4.271   6.727
10947TIP3    H132777   1.294   4.302   6.812
10947TIP3    H232778   1.249   4.234   6.684
10948TIP3   OH232779   6.976   0.280   0.160
10948TIP3    H132780   7.025   0.264   0.241
10948TIP3    H232781   6.933   0.197   0.141
10949TIP3   OH232782   6.290   0.190   0.501
10949TIP3    H132783   6.251   0.103   0.504
10949TIP3    H232784   6.378   0.176   0.465
10950TIP3   OH232785   1.562   4.588   6.805
10950TIP3    H132786   1.563   4.518   6.870
10950TIP3    H232787   1.595   4.665   6.853
10951TIP3   OH232788   6.265   0.568   0.173
10951TIP3    H132789   6.237   0.479   0.194
10951TIP3    H232790   6.359   0.569   0.191
10952TIP3   OH232791   6.034   0.094   0.198
10952TIP3    H132792   6.081   0.025   0.244
10952TIP3    H232793   6.089   0.172   0.207
10953TIP3   OH232794   1.231   5.008   6.815
10953TIP3    H132795   1.255   4.941   6.751
10953TIP3    H232796   1.246   4.966   6.900
10954TIP3   OH232797   6.791   0.495   0.205
10954TIP3    H132798   6.833   0.414   0.175
10954TIP3    H232799   6.863   0.549   0.238
10955TIP3   OH232800   4.984   7.837   0.191
10955TIP3    H132801   5.001   7.921   0.234
10955TIP3    H232802   5.017   7.849   0.102
10956TIP3   OH232803   4.349   7.985   0.234
10956TIP3    H132804   4.399   7.908   0.261
10956TIP3    H232805   4.319   7.964   0.146
10957TIP3   OH232806   3.746   7.640   0.173
10957TIP3    H132807   3.711   7.716   0.126
10957TIP3    H232808   3.690   7.567   0.147
10958TIP3   OH232809   1.577   3.742   6.764
10958TIP3    H132810   1.646   3.735   6.830
10958TIP3    H232811   1.622   3.776   6.686
10959TIP3   OH232812   3.359   7.900   0.292
10959TIP3    H132813   3.422   7.851   0.346
10959TIP3    H232814   3.332   7.838   0.225
10960TIP3   OH232815   6.590   0.042   0.138
10960TIP3    H132816   6.684   0.029   0.125
10960TIP3    H232817   6.550  -0.040   0.108
10961TIP3   OH232818   7.887   0.029   0.376
10961TIP3    H132819   7.801   0.005   0.411
10961TIP3    H232820   7.926   0.084   0.444
10962TIP3   OH232821   3.694   7.697   0.684
10962TIP3    H132822   3.617   7.749   0.664
10962TIP3    H232823   3.661   7.608   0.697
10963TIP3   OH232824   1.150   4.566   6.566
10963TIP3    H132825   1.126   4.511   6.491
10963TIP3    H232826   1.087   4.544   6.634
10964TIP3   OH232827   6.634   0.425   0.426
10964TIP3    H132828   6.572   0.490   0.458
10964TIP3    H232829   6.677   0.467   0.352
10965TIP3   OH232830   4.590   7.779   0.023
10965TIP3    H132831   4.549   7.751   0.106
10965TIP3    H232832   4.641   7.856   0.046
10966TIP3   OH232833   3.583   7.744   0.391
10966TIP3    H132834   3.611   7.821   0.441
10966TIP3    H232835   3.647   7.737   0.321
10967TIP3   OH232836   6.456   0.609   0.546
10967TIP3    H132837   6.420   0.692   0.517
10967TIP3    H232838   6.394   0.579   0.613
10968TIP3   OH232839   7.273   0.825   0.007
10968TIP3    H132840   7.185   0.819   0.045
10968TIP3    H232841   7.278   0.912  -0.030
10969TIP3   OH232842   4.770   7.719   0.322
10969TIP3    H132843   4.683   7.718   0.281
10969TIP3    H232844   4.828   7.755   0.254
10970TIP3   OH232845   4.109   7.350   0.249
10970TIP3    H132846   4.091   7.256   0.263
10970TIP3    H232847   4.041   7.394   0.301
10971TIP3   OH232848   1.367   4.848   6.614
10971TIP3    H132849   1.443   4.836   6.671
10971TIP3    H232850   1.392   4.919   6.555
10972TIP3   OH232851   1.459   4.576   6.548
10972TIP3    H132852   1.499   4.521   6.481
10972TIP3    H232853   1.512   4.562   6.626
10973TIP3   OH232854   7.520   0.713   0.355
10973TIP3    H132855   7.499   0.638   0.300
10973TIP3    H232856   7.505   0.789   0.299
10974TIP3   OH232857   1.137   4.138   6.571
10974TIP3    H132858   1.043   4.135   6.556
10974TIP3    H232859   1.176   4.129   6.484
10975TIP3   OH232860   1.115   3.919   6.256
10975TIP3    H132861   1.180   3.971   6.303
10975TIP3    H232862   1.165   3.852   6.211
10976TIP3   OH232863   7.702   0.389   0.228
10976TIP3    H132864   7.615   0.429   0.224
10976TIP3    H232865   7.735   0.394   0.138
10977TIP3   OH232866   1.501   4.197   6.530
10977TIP3    H132867   1.449   4.228   6.604
10977TIP3    H232868   1.584   4.170   6.569
10978TIP3   OH232869   7.376   0.278   0.512
10978TIP3    H132870   7.361   0.359   0.560
10978TIP3    H232871   7.300   0.270   0.454
10979TIP3   OH232872   6.402   0.193   0.008
10979TIP3    H132873   6.364   0.133  -0.056
10979TIP3    H232874   6.471   0.142   0.051
10980TIP3   OH232875   6.546   0.613   0.131
10980TIP3    H132876   6.523   0.586   0.042
10980TIP3    H232877   6.631   0.571   0.148
10981TIP3   OH232878   6.533   0.169   0.379
10981TIP3    H132879   6.560   0.134   0.295
10981TIP3    H232880   6.575   0.255   0.384
10982TIP3   OH232881   7.028   0.815   0.130
10982TIP3    H132882   7.027   0.895   0.183
10982TIP3    H232883   7.023   0.744   0.194
10983TIP3   OH232884   6.667   0.717   0.687
10983TIP3    H132885   6.608   0.776   0.734
10983TIP3    H232886   6.608   0.661   0.635
10984TIP3   OH232887   1.322   4.073   6.362
10984TIP3    H132888   1.385   4.125   6.413
10984TIP3    H232889   1.351   4.083   6.272
10985TIP3   OH232890   6.377   0.274   0.760
10985TIP3    H132891   6.370   0.363   0.794
10985TIP3    H232892   6.328   0.276   0.677
10986TIP3   OH232893   6.462   0.881   0.767
10986TIP3    H132894   6.443   0.898   0.675
10986TIP3    H232895   6.377   0.879   0.810
10987TIP3   OH232896   1.835   3.296   6.415
10987TIP3    H132897   1.759   3.317   6.470
10987TIP3    H232898   1.846   3.373   6.359
10988TIP3   OH232899   0.632   4.025   6.744
10988TIP3    H132900   0.562   4.089   6.731
10988TIP3    H232901   0.587   3.941   6.751
10989TIP3   OH232902   1.653   4.696   5.981
10989TIP3    H132903   1.655   4.789   5.958
10989TIP3    H232904   1.741   4.665   5.962
10990TIP3   OH232905   7.750   1.077   0.420
10990TIP3    H132906   7.756   0.982   0.431
10990TIP3    H232907   7.668   1.101   0.462
10991TIP3   OH232908   6.853   0.844   0.536
10991TIP3    H132909   6.853   0.935   0.568
10991TIP3    H232910   6.787   0.800   0.589
10992TIP3   OH232911   0.988   4.994   6.428
10992TIP3    H132912   0.954   4.975   6.340
10992TIP3    H232913   0.937   5.070   6.457
10993TIP3   OH232914   1.185   4.907   6.073
10993TIP3    H132915   1.221   4.823   6.045
10993TIP3    H232916   1.262   4.962   6.089
10994TIP3   OH232917   7.601   0.273   0.698
10994TIP3    H132918   7.529   0.272   0.634
10994TIP3    H232919   7.622   0.181   0.712
10995TIP3   OH232920   3.714   7.486   0.487
10995TIP3    H132921   3.651   7.418   0.461
10995TIP3    H232922   3.665   7.568   0.479
10996TIP3   OH232923   4.295   7.563   0.672
10996TIP3    H132924   4.360   7.502   0.707
10996TIP3    H232925   4.278   7.624   0.744
10997TIP3   OH232926   7.396   0.010   0.583
10997TIP3    H132927   7.348   0.007   0.665
10997TIP3    H232928   7.388   0.101   0.553
10998TIP3   OH232929   1.406   4.078   6.105
10998TIP3    H132930   1.362   4.068   6.021
10998TIP3    H232931   1.489   4.120   6.084
10999TIP3   OH232932   1.119   3.472   6.414
10999TIP3    H132933   1.075   3.482   6.499
10999TIP3    H232934   1.087   3.389   6.379
11000TIP3   OH232935   3.681   7.961   0.540
11000TIP3    H132936   3.660   7.990   0.629
11000TIP3    H232937   3.700   8.042   0.492
11001TIP3   OH232938   3.608   7.836   0.044
11001TIP3    H132939   3.518   7.818   0.070
11001TIP3    H232940   3.611   7.810  -0.049
11002TIP3   OH232941   1.267   3.929   6.698
11002TIP3    H132942   1.224   4.005   6.659
11002TIP3    H232943   1.323   3.895   6.629
11003TIP3   OH232944   7.128   0.238   0.831
11003TIP3    H132945   7.094   0.176   0.895
11003TIP3    H232946   7.223   0.237   0.845
11004TIP3   OH232947   1.437   3.927   6.917
11004TIP3    H132948   1.369   3.948   6.854
11004TIP3    H232949   1.484   3.853   6.879
11005TIP3   OH232950   6.361   0.001   0.790
11005TIP3    H132951   6.366   0.096   0.790
11005TIP3    H232952   6.341  -0.023   0.880
11006TIP3   OH232953   0.802   3.452   6.405
11006TIP3    H132954   0.783   3.447   6.499
11006TIP3    H232955   0.725   3.494   6.368
11007TIP3   OH232956   3.191   7.566   0.278
11007TIP3    H132957   3.227   7.589   0.364
11007TIP3    H232958   3.138   7.488   0.295
11008TIP3   OH232959   0.319   3.559   6.877
11008TIP3    H132960   0.372   3.555   6.797
11008TIP3    H232961   0.365   3.621   6.933
11009TIP3   OH232962   7.145   0.202   0.372
11009TIP3    H132963   7.167   0.125   0.319
11009TIP3    H232964   7.105   0.166   0.451
11010TIP3   OH232965   4.003   7.653   0.056
11010TIP3    H132966   3.926   7.650   0.113
11010TIP3    H232967   4.077   7.652   0.117
11011TIP3   OH232968   3.364   7.684   0.104
11011TIP3    H132969   3.302   7.641   0.163
11011TIP3    H232970   3.427   7.616   0.081
11012TIP3   OH232971   0.792   3.726   6.727
11012TIP3    H132972   0.887   3.739   6.719
11012TIP3    H232973   0.758   3.744   6.639
11013TIP3   OH232974   4.468   7.723   0.261
11013TIP3    H132975   4.452   7.742   0.354
11013TIP3    H232976   4.393   7.670   0.234
11014TIP3   OH232977   0.664   3.754   6.477
11014TIP3    H132978   0.623   3.692   6.417
11014TIP3    H232979   0.728   3.800   6.422
11015TIP3   OH232980   7.467   1.413   0.509
11015TIP3    H132981   7.460   1.427   0.415
11015TIP3    H232982   7.547   1.460   0.534
11016TIP3   OH232983   6.375   0.527   0.875
11016TIP3    H132984   6.453   0.563   0.919
11016TIP3    H232985   6.308   0.526   0.942
11017TIP3   OH232986   4.035   8.035   0.142
11017TIP3    H132987   4.102   7.973   0.113
11017TIP3    H232988   4.038   8.031   0.237
11018TIP3   OH232989   3.550   7.477   0.059
11018TIP3    H132990   3.506   7.409   0.109
11018TIP3    H232991   3.565   7.439  -0.027
11019TIP3   OH232992   6.857   0.041   0.418
11019TIP3    H132993   6.812  -0.043   0.430
11019TIP3    H232994   6.928   0.039   0.482
11020TIP3   OH232995   0.880   4.332   6.522
11020TIP3    H132996   0.853   4.241   6.520
11020TIP3    H232997   0.880   4.355   6.616
11021TIP3   OH232998   7.453   0.507   0.185
11021TIP3    H132999   7.495   0.553   0.113
11021TIP3    H233000   7.377   0.463   0.146
11022TIP3   OH233001   1.369   3.579   6.415
11022TIP3    H133002   1.276   3.555   6.413
11022TIP3    H233003   1.369   3.673   6.428
11023TIP3   OH233004   6.984   0.593   0.584
11023TIP3    H133005   7.027   0.578   0.668
11023TIP3    H233006   6.944   0.679   0.591
11024TIP3   OH233007   1.427   3.843   6.485
11024TIP3    H133008   1.523   3.843   6.493
11024TIP3    H233009   1.407   3.918   6.430
11025TIP3   OH233010   6.241   0.292   0.223
11025TIP3    H133011   6.297   0.252   0.157
11025TIP3    H233012   6.272   0.256   0.306
11026TIP3   OH233013   1.053   4.430   6.338
11026TIP3    H133014   1.013   4.516   6.329
11026TIP3    H233015   0.994   4.381   6.395
11027TIP3   OH233016   6.889   0.366   0.839
11027TIP3    H133017   6.850   0.337   0.757
11027TIP3    H233018   6.980   0.336   0.835
11028TIP3   OH233019   7.119   0.876   0.449
11028TIP3    H133020   7.026   0.855   0.456
11028TIP3    H233021   7.141   0.921   0.530
11029TIP3   OH233022   1.842   3.931   6.304
11029TIP3    H133023   1.783   3.886   6.243
11029TIP3    H233024   1.850   4.020   6.269
11030TIP3   OH233025   7.762   0.804   0.446
11030TIP3    H133026   7.668   0.786   0.440
11030TIP3    H233027   7.798   0.770   0.364
11031TIP3   OH233028   1.518   4.735   6.231
11031TIP3    H133029   1.581   4.798   6.267
11031TIP3    H233030   1.555   4.711   6.146
11032TIP3   OH233031   7.233   0.376   0.063
11032TIP3    H133032   7.144   0.355   0.092
11032TIP3    H233033   7.269   0.293   0.032
11033TIP3   OH233034   0.711   4.615   6.833
11033TIP3    H133035   0.685   4.686   6.774
11033TIP3    H233036   0.641   4.609   6.897
11034TIP3   OH233037   0.229   3.955   6.509
11034TIP3    H133038   0.296   3.952   6.577
11034TIP3    H233039   0.171   3.881   6.529
11035TIP3   OH233040   0.860   4.393   6.786
11035TIP3    H133041   0.804   4.470   6.796
11035TIP3    H233042   0.820   4.327   6.843
11036TIP3   OH233043   6.662   0.940   0.350
11036TIP3    H133044   6.704   1.010   0.300
11036TIP3    H233045   6.734   0.898   0.397
11037TIP3   OH233046   0.601   4.850   6.701
11037TIP3    H133047   0.566   4.854   6.790
11037TIP3    H233048   0.651   4.931   6.692
11038TIP3   OH233049   7.027   0.596   0.311
11038TIP3    H133050   7.011   0.591   0.406
11038TIP3    H233051   7.111   0.552   0.300
11039TIP3   OH233052   1.348   4.468   6.136
11039TIP3    H133053   1.405   4.456   6.212
11039TIP3    H233054   1.266   4.425   6.161
11040TIP3   OH233055   7.276   1.096   0.352
11040TIP3    H133056   7.204   1.033   0.359
11040TIP3    H233057   7.250   1.153   0.279
11041TIP3   OH233058   1.663   4.971   5.936
11041TIP3    H133059   1.702   5.051   5.901
11041TIP3    H233060   1.578   4.998   5.971
11042TIP3   OH233061   1.522   4.397   6.344
11042TIP3    H133062   1.515   4.322   6.402
11042TIP3    H233063   1.616   4.402   6.323
11043TIP3   OH233064   0.693   4.468   6.126
11043TIP3    H133065   0.708   4.379   6.092
11043TIP3    H233066   0.673   4.455   6.219
11044TIP3   OH233067   0.669   4.472   6.406
11044TIP3    H133068   0.744   4.428   6.447
11044TIP3    H233069   0.685   4.565   6.422
11045TIP3   OH233070   0.421   4.187   6.702
11045TIP3    H133071   0.350   4.216   6.760
11045TIP3    H233072   0.395   4.217   6.615
11046TIP3   OH233073   4.409   7.806   0.511
11046TIP3    H133074   4.462   7.883   0.531
11046TIP3    H233075   4.457   7.733   0.550
11047TIP3   OH233076   1.432   3.524   6.678
11047TIP3    H133077   1.411   3.544   6.586
11047TIP3    H233078   1.475   3.603   6.711
11048TIP3   OH233079   0.936   4.672   6.356
11048TIP3    H133080   0.854   4.695   6.400
11048TIP3    H233081   0.961   4.752   6.309
11049TIP3   OH233082   1.073   3.742   6.759
11049TIP3    H133083   1.135   3.810   6.732
11049TIP3    H233084   1.104   3.714   6.845
11050TIP3   OH233085   7.054   0.084   0.607
11050TIP3    H133086   7.031   0.162   0.656
11050TIP3    H233087   7.122   0.042   0.659
11051TIP3   OH233088   1.239   3.422   6.842
11051TIP3    H133089   1.225   3.498   6.898
11051TIP3    H233090   1.312   3.448   6.785
11052TIP3   OH233091   0.687   4.744   6.451
11052TIP3    H133092   0.664   4.811   6.387
11052TIP3    H233093   0.657   4.780   6.535
11053TIP3   OH233094   0.754   3.441   6.683
11053TIP3    H133095   0.728   3.530   6.708
11053TIP3    H233096   0.850   3.442   6.687
11054TIP3   OH233097   4.822   7.942   0.484
11054TIP3    H133098   4.739   7.976   0.518
11054TIP3    H233099   4.797   7.864   0.435
11055TIP3   OH233100   7.318   0.117  -0.013
11055TIP3    H133101   7.246   0.055  -0.005
11055TIP3    H233102   7.389   0.078   0.039
11056TIP3   OH233103   0.421   4.531   6.513
11056TIP3    H133104   0.509   4.497   6.497
11056TIP3    H233105   0.392   4.564   6.428
11057TIP3   OH233106   0.478   3.594   6.657
11057TIP3    H133107   0.527   3.671   6.627
11057TIP3    H233108   0.424   3.569   6.582
11058TIP3   OH233109   1.635   5.094   6.868
11058TIP3    H133110   1.593   5.139   6.794
11058TIP3    H233111   1.729   5.105   6.851
11059TIP3   OH233112   3.478   7.359   0.437
11059TIP3    H133113   3.453   7.333   0.349
11059TIP3    H233114   3.442   7.291   0.494
11060TIP3   OH233115   6.499   1.093   0.954
11060TIP3    H133116   6.562   1.079   1.024
11060TIP3    H233117   6.515   1.021   0.893
11061TIP3   OH233118   0.873   4.657   6.044
11061TIP3    H133119   0.818   4.589   6.083
11061TIP3    H233120   0.947   4.609   6.007
11062TIP3   OH233121   7.171   0.994   0.687
11062TIP3    H133122   7.169   0.917   0.743
11062TIP3    H233123   7.253   1.038   0.710
11063TIP3   OH233124   1.294   4.680   5.965
11063TIP3    H133125   1.330   4.619   6.028
11063TIP3    H233126   1.356   4.679   5.892
11064TIP3   OH233127   0.570   4.216   6.250
11064TIP3    H133128   0.579   4.146   6.314
11064TIP3    H233129   0.635   4.196   6.183
11065TIP3   OH233130   6.815   0.622   0.897
11065TIP3    H133131   6.774   0.644   0.812
11065TIP3    H233132   6.850   0.534   0.884
11066TIP3   OH233133   1.055   4.358   6.072
11066TIP3    H133134   1.047   4.369   6.166
11066TIP3    H233135   1.053   4.263   6.058
11067TIP3   OH233136   7.289   0.658   0.497
11067TIP3    H133137   7.368   0.685   0.451
11067TIP3    H233138   7.224   0.726   0.476
11068TIP3   OH233139   0.826   4.070   6.540
11068TIP3    H133140   0.760   4.047   6.605
11068TIP3    H233141   0.810   4.008   6.468
11069TIP3   OH233142   6.623   0.157   0.748
11069TIP3    H133143   6.542   0.208   0.755
11069TIP3    H233144   6.678   0.208   0.688
11070TIP3   OH233145   0.842   3.896   6.318
11070TIP3    H133146   0.814   3.904   6.227
11070TIP3    H233147   0.937   3.896   6.315
11071TIP3   OH233148   7.175   0.532   0.861
11071TIP3    H133149   7.248   0.501   0.807
11071TIP3    H233150   7.171   0.470   0.934
11072TIP3   OH233151   1.629   4.195   5.990
11072TIP3    H133152   1.615   4.153   5.905
11072TIP3    H233153   1.607   4.287   5.975
11073TIP3   OH233154   3.948   8.013   0.895
11073TIP3    H133155   3.934   7.936   0.839
11073TIP3    H233156   3.890   8.080   0.859
11074TIP3   OH233157   3.937   7.759   0.774
11074TIP3    H133158   3.995   7.776   0.700
11074TIP3    H233159   3.852   7.742   0.734
11075TIP3   OH233160   6.806   0.276   0.582
11075TIP3    H133161   6.823   0.207   0.518
11075TIP3    H233162   6.759   0.343   0.532
11076TIP3   OH233163   7.390   0.225   0.923
11076TIP3    H133164   7.436   0.144   0.946
11076TIP3    H233165   7.459   0.284   0.892
11077TIP3   OH233166   7.402   0.502   0.686
11077TIP3    H133167   7.353   0.563   0.630
11077TIP3    H233168   7.492   0.508   0.654
11078TIP3   OH233169   3.984   7.502   0.869
11078TIP3    H133170   3.977   7.590   0.832
11078TIP3    H233171   3.895   7.483   0.900
11079TIP3   OH233172   7.034   0.036   0.988
11079TIP3    H133173   7.031   0.028   1.083
11079TIP3    H233174   6.943   0.031   0.961
11080TIP3   OH233175   4.383   7.978   0.790
11080TIP3    H133176   4.318   7.999   0.858
11080TIP3    H233177   4.440   7.913   0.831
11081TIP3   OH233178   4.716   7.918   1.121
11081TIP3    H133179   4.747   7.828   1.119
11081TIP3    H233180   4.676   7.929   1.207
11082TIP3   OH233181   4.188   7.349   0.979
11082TIP3    H133182   4.146   7.318   1.060
11082TIP3    H233183   4.122   7.403   0.937
11083TIP3   OH233184   0.663   4.937   6.256
11083TIP3    H133185   0.751   4.931   6.220
11083TIP3    H233186   0.614   4.987   6.190
11084TIP3   OH233187   1.907   5.136   6.850
11084TIP3    H133188   1.940   5.168   6.934
11084TIP3    H233189   1.969   5.169   6.785
11085TIP3   OH233190   7.593   1.169   0.196
11085TIP3    H133191   7.548   1.084   0.187
11085TIP3    H233192   7.666   1.151   0.254
11086TIP3   OH233193   7.635   0.874   0.782
11086TIP3    H133194   7.568   0.881   0.849
11086TIP3    H233195   7.681   0.958   0.784
11087TIP3   OH233196   1.798   4.387   6.326
11087TIP3    H133197   1.852   4.460   6.296
11087TIP3    H233198   1.847   4.350   6.399
11088TIP3   OH233199   1.931   4.251   6.526
11088TIP3    H133200   1.866   4.211   6.584
11088TIP3    H233201   1.997   4.288   6.585
11089TIP3   OH233202   1.968   4.645   6.969
11089TIP3    H133203   2.023   4.581   6.925
11089TIP3    H233204   1.976   4.724   6.916
11090TIP3   OH233205   7.448   0.930   0.204
11090TIP3    H133206   7.380   0.977   0.252
11090TIP3    H233207   7.401   0.890   0.130
11091TIP3   OH233208   1.839   4.169   6.165
11091TIP3    H133209   1.767   4.169   6.101
11091TIP3    H233210   1.822   4.245   6.220
11092TIP3   OH233211   1.681   3.825   6.111
11092TIP3    H133212   1.640   3.859   6.032
11092TIP3    H233213   1.673   3.730   6.105
11093TIP3   OH233214   1.730   4.108   6.661
11093TIP3    H133215   1.737   4.013   6.648
11093TIP3    H233216   1.710   4.117   6.754
11094TIP3   OH233217   7.656   0.539   0.572
11094TIP3    H133218   7.722   0.473   0.554
11094TIP3    H233219   7.657   0.595   0.494
11095TIP3   OH233220   7.842   0.332   0.573
11095TIP3    H133221   7.765   0.300   0.620
11095TIP3    H233222   7.911   0.270   0.595
11096TIP3   OH233223   1.646   3.556   6.088
11096TIP3    H133224   1.714   3.524   6.146
11096TIP3    H233225   1.567   3.509   6.115
11097TIP3   OH233226   1.717   3.833   6.539
11097TIP3    H133227   1.764   3.751   6.553
11097TIP3    H233228   1.760   3.873   6.463
11098TIP3   OH233229   7.536  -0.003   0.116
11098TIP3    H133230   7.621   0.015   0.075
11098TIP3    H233231   7.538   0.046   0.198
11099TIP3   OH233232   7.558   0.173   0.324
11099TIP3    H133233   7.501   0.217   0.386
11099TIP3    H233234   7.624   0.238   0.300
11100TIP3   OH233235   5.254   7.766   0.913
11100TIP3    H133236   5.334   7.731   0.873
11100TIP3    H233237   5.258   7.860   0.897
11101TIP3   OH233238   1.833   3.585   6.596
11101TIP3    H133239   1.877   3.573   6.680
11101TIP3    H233240   1.772   3.512   6.590
11102TIP3   OH233241   3.341   7.587   0.507
11102TIP3    H133242   3.397   7.523   0.463
11102TIP3    H233243   3.395   7.666   0.513
11103TIP3   OH233244   5.048   7.886   0.660
11103TIP3    H133245   4.974   7.947   0.657
11103TIP3    H233246   5.027   7.819   0.595
11104TIP3   OH233247   1.877   3.499   6.235
11104TIP3    H133248   1.924   3.438   6.178
11104TIP3    H233249   1.934   3.576   6.238
11105TIP3   OH233250   3.161   7.318   0.063
11105TIP3    H133251   3.110   7.322   0.144
11105TIP3    H233252   3.147   7.403   0.021
11106TIP3   OH233253   1.476   5.048   6.460
11106TIP3    H133254   1.556   5.039   6.409
11106TIP3    H233255   1.498   5.114   6.527
11107TIP3   OH233256   6.428   0.900   0.493
11107TIP3    H133257   6.376   0.970   0.453
11107TIP3    H233258   6.513   0.905   0.449
11108TIP3   OH233259   6.854   1.105   0.613
11108TIP3    H133260   6.881   1.103   0.704
11108TIP3    H233261   6.921   1.157   0.569
11109TIP3   OH233262   7.042   1.263   0.492
11109TIP3    H133263   7.103   1.207   0.443
11109TIP3    H233264   7.098   1.312   0.551
11110TIP3   OH233265   4.993   7.672   0.491
11110TIP3    H133266   4.926   7.680   0.423
11110TIP3    H233267   5.029   7.584   0.478
11111TIP3   OH233268   6.313   1.113   0.340
11111TIP3    H133269   6.249   1.178   0.370
11111TIP3    H233270   6.265   1.062   0.273
11112TIP3   OH233271   6.761   1.137   0.180
11112TIP3    H133272   6.698   1.145   0.109
11112TIP3    H233273   6.764   1.224   0.220
11113TIP3   OH233274   7.022   1.076   0.221
11113TIP3    H133275   6.930   1.096   0.206
11113TIP3    H233276   7.069   1.147   0.178
11114TIP3   OH233277   7.216   1.255   0.128
11114TIP3    H133278   7.213   1.342   0.088
11114TIP3    H233279   7.247   1.198   0.058
11115TIP3   OH233280   6.234   0.818   0.052
11115TIP3    H133281   6.218   0.738   0.102
11115TIP3    H233282   6.320   0.848   0.082
11116TIP3   OH233283   6.494   0.887   0.137
11116TIP3    H133284   6.512   0.794   0.123
11116TIP3    H233285   6.543   0.910   0.215
11117TIP3   OH233286   4.247   7.577   0.174
11117TIP3    H133287   4.195   7.500   0.199
11117TIP3    H233288   4.312   7.544   0.113
11118TIP3   OH233289   4.708   7.483   0.120
11118TIP3    H133290   4.751   7.525   0.045
11118TIP3    H233291   4.614   7.492   0.101
11119TIP3   OH233292   1.990   3.535   6.819
11119TIP3    H133293   2.059   3.475   6.790
11119TIP3    H233294   2.027   3.622   6.806
11120TIP3   OH233295   3.413   7.277   0.184
11120TIP3    H133296   3.325   7.274   0.147
11120TIP3    H233297   3.445   7.187   0.179
11121TIP3   OH233298   0.441   3.126   6.821
11121TIP3    H133299   0.463   3.176   6.742
11121TIP3    H233300   0.396   3.189   6.878
11122TIP3   OH233301   3.891   7.299   0.067
11122TIP3    H133302   3.941   7.335  -0.006
11122TIP3    H233303   3.941   7.323   0.145
11123TIP3   OH233304   4.444   7.452   0.036
11123TIP3    H133305   4.467   7.412  -0.048
11123TIP3    H233306   4.435   7.377   0.096
11124TIP3   OH233307   1.651   3.372   6.605
11124TIP3    H133308   1.570   3.419   6.626
11124TIP3    H233309   1.638   3.284   6.642
11125TIP3   OH233310   0.554   3.267   6.585
11125TIP3    H133311   0.608   3.204   6.536
11125TIP3    H233312   0.617   3.325   6.627
11126TIP3   OH233313   1.025   3.486   6.674
11126TIP3    H133314   1.090   3.437   6.723
11126TIP3    H233315   1.040   3.577   6.698
11127TIP3   OH233316   0.924   4.895   6.167
11127TIP3    H133317   1.014   4.913   6.138
11127TIP3    H233318   0.899   4.816   6.120
11128TIP3   OH233319   4.788   7.660   1.094
11128TIP3    H133320   4.783   7.600   1.168
11128TIP3    H233321   4.861   7.628   1.042
11129TIP3   OH233322   7.499   1.139   0.513
11129TIP3    H133323   7.424   1.112   0.459
11129TIP3    H233324   7.491   1.234   0.520
11130TIP3   OH233325   3.075   4.526   6.184
11130TIP3    H133326   3.038   4.613   6.170
11130TIP3    H233327   3.008   4.465   6.153
11131TIP3   OH233328   3.096   4.527   6.632
11131TIP3    H133329   3.153   4.514   6.707
11131TIP3    H233330   3.060   4.441   6.613
11132TIP3   OH233331   8.071   0.402   0.037
11132TIP3    H133332   8.098   0.338   0.103
11132TIP3    H233333   8.147   0.458   0.024
11133TIP3   OH233334   3.362   4.840   6.294
11133TIP3    H133335   3.358   4.774   6.363
11133TIP3    H233336   3.389   4.920   6.339
11134TIP3   OH233337   2.387   4.818   6.665
11134TIP3    H133338   2.371   4.727   6.691
11134TIP3    H233339   2.481   4.820   6.643
11135TIP3   OH233340   2.082   4.030   6.436
11135TIP3    H133341   2.040   4.111   6.465
11135TIP3    H233342   2.010   3.978   6.399
11136TIP3   OH233343   2.162   4.337   6.663
11136TIP3    H133344   2.208   4.258   6.689
11136TIP3    H233345   2.231   4.399   6.642
11137TIP3   OH233346   3.023   5.282   6.300
11137TIP3    H133347   3.051   5.219   6.234
11137TIP3    H233348   3.013   5.231   6.380
11138TIP3   OH233349   2.915   4.749   6.633
11138TIP3    H133350   2.961   4.668   6.612
11138TIP3    H233351   2.983   4.810   6.661
11139TIP3   OH233352   3.925   4.058   6.690
11139TIP3    H133353   3.950   4.148   6.712
11139TIP3    H233354   4.007   4.016   6.665
11140TIP3   OH233355   3.321   4.239   6.670
11140TIP3    H133356   3.367   4.158   6.693
11140TIP3    H233357   3.284   4.221   6.583
11141TIP3   OH233358   2.659   3.905   6.632
11141TIP3    H133359   2.642   3.976   6.569
11141TIP3    H233360   2.608   3.831   6.598
11142TIP3   OH233361   3.372   4.001   6.261
11142TIP3    H133362   3.436   3.998   6.332
11142TIP3    H233363   3.421   4.033   6.186
11143TIP3   OH233364   2.297   4.115   6.752
11143TIP3    H133365   2.379   4.097   6.797
11143TIP3    H233366   2.300   4.062   6.673
11144TIP3   OH233367   2.738   4.314   6.568
11144TIP3    H133368   2.831   4.294   6.581
11144TIP3    H233369   2.698   4.231   6.541
11145TIP3   OH233370   3.977   4.303   6.824
11145TIP3    H133371   3.895   4.346   6.799
11145TIP3    H233372   3.959   4.266   6.910
11146TIP3   OH233373   5.494   7.906   0.129
11146TIP3    H133374   5.439   7.942   0.059
11146TIP3    H233375   5.444   7.921   0.209
11147TIP3   OH233376   2.952   4.753   6.075
11147TIP3    H133377   3.039   4.791   6.063
11147TIP3    H233378   2.896   4.828   6.095
11148TIP3   OH233379   2.756   4.685   6.850
11148TIP3    H133380   2.700   4.756   6.881
11148TIP3    H233381   2.804   4.723   6.776
11149TIP3   OH233382   3.533   4.034   6.478
11149TIP3    H133383   3.505   4.012   6.567
11149TIP3    H233384   3.594   4.106   6.490
11150TIP3   OH233385   2.538   4.015   6.851
11150TIP3    H133386   2.595   4.088   6.875
11150TIP3    H233387   2.584   3.972   6.779
11151TIP3   OH233388   8.258   0.877   0.008
11151TIP3    H133389   8.244   0.966  -0.024
11151TIP3    H233390   8.181   0.859   0.062
11152TIP3   OH233391   1.958   4.583   6.211
11152TIP3    H133392   1.922   4.604   6.125
11152TIP3    H233393   1.976   4.668   6.251
11153TIP3   OH233394   3.410   5.085   6.437
11153TIP3    H133395   3.324   5.077   6.479
11153TIP3    H233396   3.408   5.170   6.393
11154TIP3   OH233397   3.730   3.955   6.842
11154TIP3    H133398   3.646   3.977   6.803
11154TIP3    H233399   3.795   3.983   6.778
11155TIP3   OH233400   2.995   3.591   6.804
11155TIP3    H133401   2.990   3.499   6.831
11155TIP3    H233402   2.918   3.632   6.843
11156TIP3   OH233403   3.106   5.107   6.096
11156TIP3    H133404   3.146   5.020   6.088
11156TIP3    H233405   3.176   5.168   6.070
11157TIP3   OH233406   3.213   4.853   6.062
11157TIP3    H133407   3.262   4.810   5.992
11157TIP3    H233408   3.268   4.845   6.139
11158TIP3   OH233409   3.647   4.972   6.787
11158TIP3    H133410   3.628   4.899   6.728
11158TIP3    H233411   3.632   5.050   6.734
11159TIP3   OH233412   2.922   4.347   6.033
11159TIP3    H133413   2.844   4.322   5.982
11159TIP3    H233414   2.989   4.362   5.966
11160TIP3   OH233415   2.913   4.186   5.754
11160TIP3    H133416   2.984   4.236   5.793
11160TIP3    H233417   2.957   4.116   5.706
11161TIP3   OH233418   3.823   4.640   6.649
11161TIP3    H133419   3.740   4.686   6.642
11161TIP3    H233420   3.859   4.642   6.560
11162TIP3   OH233421   3.290   4.479   6.018
11162TIP3    H133422   3.230   4.498   6.090
11162TIP3    H233423   3.370   4.448   6.061
11163TIP3   OH233424   0.683   0.492   0.021
11163TIP3    H133425   0.678   0.574   0.070
11163TIP3    H233426   0.600   0.489  -0.027
11164TIP3   OH233427   2.574   4.415   6.372
11164TIP3    H133428   2.502   4.403   6.434
11164TIP3    H233429   2.653   4.403   6.425
11165TIP3   OH233430   2.647   4.835   6.554
11165TIP3    H133431   2.632   4.836   6.459
11165TIP3    H233432   2.739   4.811   6.564
11166TIP3   OH233433   2.640   4.445   6.792
11166TIP3    H133434   2.683   4.410   6.715
11166TIP3    H233435   2.687   4.526   6.811
11167TIP3   OH233436   3.178   5.079   6.577
11167TIP3    H133437   3.162   5.160   6.625
11167TIP3    H233438   3.159   5.010   6.641
11168TIP3   OH233439   8.457   0.973   0.178
11168TIP3    H133440   8.396   1.031   0.224
11168TIP3    H233441   8.401   0.922   0.118
11169TIP3   OH233442   3.130   4.334   5.849
11169TIP3    H133443   3.191   4.391   5.896
11169TIP3    H233444   3.157   4.341   5.757
11170TIP3   OH233445   8.210   0.534   0.302
11170TIP3    H133446   8.210   0.627   0.328
11170TIP3    H233447   8.118   0.508   0.307
11171TIP3   OH233448   2.848   5.008   6.113
11171TIP3    H133449   2.933   5.051   6.116
11171TIP3    H233450   2.793   5.067   6.062
11172TIP3   OH233451   8.248   1.133   0.262
11172TIP3    H133452   8.225   1.144   0.170
11172TIP3    H233453   8.164   1.119   0.306
11173TIP3   OH233454   3.632   3.554   5.905
11173TIP3    H133455   3.556   3.575   5.959
11173TIP3    H233456   3.643   3.629   5.847
11174TIP3   OH233457   2.352   4.293   6.224
11174TIP3    H133458   2.277   4.336   6.185
11174TIP3    H233459   2.317   4.211   6.259
11175TIP3   OH233460   3.458   4.932   5.456
11175TIP3    H133461   3.453   5.024   5.431
11175TIP3    H233462   3.548   4.906   5.436
11176TIP3   OH233463   7.844   0.689   0.215
11176TIP3    H133464   7.774   0.669   0.153
11176TIP3    H233465   7.878   0.603   0.240
11177TIP3   OH233466   2.019   4.873   6.828
11177TIP3    H133467   2.104   4.900   6.793
11177TIP3    H233468   1.968   4.954   6.833
11178TIP3   OH233469   3.875   5.347   6.853
11178TIP3    H133470   3.882   5.252   6.861
11178TIP3    H233471   3.795   5.370   6.900
11179TIP3   OH233472   0.147   1.116   0.040
11179TIP3    H133473   0.137   1.207   0.068
11179TIP3    H233474   0.079   1.069   0.088
11180TIP3   OH233475   2.732   5.212   5.938
11180TIP3    H133476   2.698   5.203   5.849
11180TIP3    H233477   2.669   5.270   5.982
11181TIP3   OH233478   2.190   5.067   6.312
11181TIP3    H133479   2.231   5.066   6.398
11181TIP3    H233480   2.130   4.992   6.313
11182TIP3   OH233481   2.961   5.157   5.565
11182TIP3    H133482   3.012   5.083   5.534
11182TIP3    H233483   2.991   5.172   5.655
11183TIP3   OH233484   2.996   5.208   5.841
11183TIP3    H133485   2.909   5.213   5.879
11183TIP3    H233486   3.052   5.177   5.912
11184TIP3   OH233487   0.930   0.448   0.178
11184TIP3    H133488   0.850   0.457   0.126
11184TIP3    H233489   0.950   0.355   0.177
11185TIP3   OH233490   8.044   0.875   0.183
11185TIP3    H133491   8.094   0.861   0.263
11185TIP3    H233492   7.971   0.814   0.188
11186TIP3   OH233493   2.760   3.686   6.924
11186TIP3    H133494   2.676   3.657   6.891
11186TIP3    H233495   2.740   3.766   6.973
11187TIP3   OH233496   6.137   7.823   0.185
11187TIP3    H133497   6.207   7.794   0.244
11187TIP3    H233498   6.056   7.801   0.232
11188TIP3   OH233499   0.698   0.227   0.107
11188TIP3    H133500   0.656   0.224   0.193
11188TIP3    H233501   0.679   0.316   0.075
11189TIP3   OH233502   3.198   4.328   5.586
11189TIP3    H133503   3.154   4.321   5.501
11189TIP3    H233504   3.283   4.367   5.566
11190TIP3   OH233505   2.907   3.734   5.910
11190TIP3    H133506   2.873   3.737   6.000
11190TIP3    H233507   2.873   3.652   5.874
11191TIP3   OH233508   8.362   0.215   0.001
11191TIP3    H133509   8.315   0.223   0.084
11191TIP3    H233510   8.342   0.296  -0.046
11192TIP3   OH233511   2.573   4.105   6.461
11192TIP3    H133512   2.486   4.076   6.488
11192TIP3    H233513   2.585   4.068   6.374
11193TIP3   OH233514   3.063   4.168   6.189
11193TIP3    H133515   3.014   4.237   6.144
11193TIP3    H233516   3.125   4.135   6.123
11194TIP3   OH233517   0.419   0.454   0.311
11194TIP3    H133518   0.389   0.384   0.370
11194TIP3    H233519   0.511   0.465   0.333
11195TIP3   OH233520   3.227   4.185   6.416
11195TIP3    H133521   3.159   4.205   6.352
11195TIP3    H233522   3.276   4.112   6.377
11196TIP3   OH233523   8.195   0.232   0.218
11196TIP3    H133524   8.228   0.287   0.289
11196TIP3    H233525   8.181   0.146   0.260
11197TIP3   OH233526   2.580   3.715   5.879
11197TIP3    H133527   2.569   3.713   5.974
11197TIP3    H233528   2.500   3.756   5.846
11198TIP3   OH233529   2.121   3.757   6.738
11198TIP3    H133530   2.194   3.792   6.789
11198TIP3    H233531   2.160   3.729   6.655
11199TIP3   OH233532   2.030   3.733   6.249
11199TIP3    H133533   2.077   3.769   6.174
11199TIP3    H233534   1.965   3.800   6.271
11200TIP3   OH233535   3.266   4.442   6.840
11200TIP3    H133536   3.292   4.376   6.777
11200TIP3    H233537   3.223   4.393   6.910
11201TIP3   OH233538   2.921   3.936   6.526
11201TIP3    H133539   2.847   3.916   6.583
11201TIP3    H233540   2.994   3.886   6.563
11202TIP3   OH233541   2.339   3.973   6.520
11202TIP3    H133542   2.250   3.977   6.484
11202TIP3    H233543   2.366   3.882   6.507
11203TIP3   OH233544   2.591   3.988   6.212
11203TIP3    H133545   2.686   3.988   6.208
11203TIP3    H233546   2.563   3.998   6.121
11204TIP3   OH233547   3.425   3.981   6.731
11204TIP3    H133548   3.388   4.000   6.817
11204TIP3    H233549   3.384   3.899   6.704
11205TIP3   OH233550   2.484   4.030   5.958
11205TIP3    H133551   2.421   3.969   5.919
11205TIP3    H233552   2.537   4.060   5.884
11206TIP3   OH233553   3.586   5.682   6.945
11206TIP3    H133554   3.582   5.695   6.850
11206TIP3    H233555   3.664   5.729   6.972
11207TIP3   OH233556   8.193   0.790   0.415
11207TIP3    H133557   8.274   0.809   0.462
11207TIP3    H233558   8.125   0.795   0.482
11208TIP3   OH233559   3.001   4.255   6.625
11208TIP3    H133560   3.059   4.200   6.573
11208TIP3    H233561   2.997   4.213   6.710
11209TIP3   OH233562   2.482   3.724   6.508
11209TIP3    H133563   2.451   3.650   6.560
11209TIP3    H233564   2.517   3.685   6.428
11210TIP3   OH233565   2.962   4.162   6.888
11210TIP3    H133566   2.875   4.195   6.910
11210TIP3    H233567   3.022   4.215   6.941
11211TIP3   OH233568   3.586   4.775   6.605
11211TIP3    H133569   3.623   4.824   6.532
11211TIP3    H233570   3.507   4.734   6.569
11212TIP3   OH233571   3.163   3.831   5.908
11212TIP3    H133572   3.069   3.812   5.904
11212TIP3    H233573   3.167   3.927   5.915
11213TIP3   OH233574   0.271   0.848   0.081
11213TIP3    H133575   0.325   0.838   0.159
11213TIP3    H233576   0.234   0.936   0.087
11214TIP3   OH233577   3.227   4.098   5.973
11214TIP3    H133578   3.322   4.096   5.983
11214TIP3    H233579   3.210   4.175   5.919
11215TIP3   OH233580   2.397   4.498   6.656
11215TIP3    H133581   2.465   4.550   6.612
11215TIP3    H233582   2.442   4.462   6.733
11216TIP3   OH233583   2.826   4.666   5.838
11216TIP3    H133584   2.777   4.747   5.828
11216TIP3    H233585   2.874   4.677   5.920
11217TIP3   OH233586   7.944   0.461   0.345
11217TIP3    H133587   7.947   0.439   0.438
11217TIP3    H233588   7.868   0.414   0.311
11218TIP3   OH233589   0.181   0.594   0.363
11218TIP3    H133590   0.115   0.535   0.327
11218TIP3    H233591   0.264   0.559   0.331
11219TIP3   OH233592   3.251   5.142   6.905
11219TIP3    H133593   3.156   5.129   6.910
11219TIP3    H233594   3.274   5.181   6.989
11220TIP3   OH233595   3.635   4.188   5.794
11220TIP3    H133596   3.575   4.144   5.734
11220TIP3    H233597   3.645   4.276   5.759
11221TIP3   OH233598   3.892   5.072   6.869
11221TIP3    H133599   3.799   5.048   6.871
11221TIP3    H233600   3.926   5.034   6.788
11222TIP3   OH233601   3.380   4.998   5.715
11222TIP3    H133602   3.347   4.921   5.761
11222TIP3    H233603   3.403   4.966   5.628
11223TIP3   OH233604   3.357   4.640   6.501
11223TIP3    H133605   3.268   4.618   6.528
11223TIP3    H233606   3.392   4.558   6.466
11224TIP3   OH233607   2.496   4.869   6.290
11224TIP3    H133608   2.509   4.945   6.233
11224TIP3    H233609   2.404   4.873   6.314
11225TIP3   OH233610   2.077   4.161   6.026
11225TIP3    H133611   2.109   4.250   6.041
11225TIP3    H233612   1.994   4.157   6.074
11226TIP3   OH233613   2.795   5.187   6.767
11226TIP3    H133614   2.826   5.264   6.718
11226TIP3    H233615   2.872   5.159   6.818
11227TIP3   OH233616   2.414   5.114   6.147
11227TIP3    H133617   2.332   5.115   6.195
11227TIP3    H233618   2.425   5.204   6.115
11228TIP3   OH233619   3.147   4.858   6.748
11228TIP3    H133620   3.132   4.852   6.842
11228TIP3    H233621   3.230   4.813   6.734
11229TIP3   OH233622   3.147   4.738   5.627
11229TIP3    H133623   3.189   4.720   5.711
11229TIP3    H233624   3.063   4.693   5.632
11230TIP3   OH233625   3.405   5.359   6.783
11230TIP3    H133626   3.331   5.299   6.796
11230TIP3    H233627   3.377   5.416   6.712
11231TIP3   OH233628   3.452   5.204   5.417
11231TIP3    H133629   3.467   5.262   5.342
11231TIP3    H233630   3.383   5.247   5.467
11232TIP3   OH233631   5.335   7.999   0.336
11232TIP3    H133632   5.242   7.983   0.350
11232TIP3    H233633   5.379   7.944   0.401
11233TIP3   OH233634   3.322   4.695   5.849
11233TIP3    H133635   3.305   4.619   5.904
11233TIP3    H233636   3.414   4.688   5.826
11234TIP3   OH233637   7.899   1.092   0.007
11234TIP3    H133638   7.947   1.026   0.056
11234TIP3    H233639   7.926   1.175   0.046
11235TIP3   OH233640   2.515   4.698   5.635
11235TIP3    H133641   2.519   4.605   5.611
11235TIP3    H233642   2.490   4.698   5.727
11236TIP3   OH233643   2.426   4.721   5.907
11236TIP3    H133644   2.491   4.711   5.976
11236TIP3    H233645   2.416   4.815   5.895
11237TIP3   OH233646   2.151   4.422   6.096
11237TIP3    H133647   2.086   4.467   6.150
11237TIP3    H233648   2.165   4.480   6.022
11238TIP3   OH233649   0.500   0.040   0.042
11238TIP3    H133650   0.579   0.082   0.074
11238TIP3    H233651   0.490  -0.038   0.097
11239TIP3   OH233652   3.223   3.783   6.173
11239TIP3    H133653   3.204   3.800   6.081
11239TIP3    H233654   3.267   3.862   6.204
11240TIP3   OH233655   2.698   4.906   5.836
11240TIP3    H133656   2.613   4.931   5.872
11240TIP3    H233657   2.729   4.983   5.790
11241TIP3   OH233658   2.865   3.992   6.264
11241TIP3    H133659   2.935   4.051   6.236
11241TIP3    H233660   2.884   3.975   6.356
11242TIP3   OH233661   0.336   0.268   0.097
11242TIP3    H133662   0.367   0.310   0.177
11242TIP3    H233663   0.387   0.188   0.090
11243TIP3   OH233664   3.045   3.670   6.350
11243TIP3    H133665   3.069   3.717   6.430
11243TIP3    H233666   3.105   3.704   6.284
11244TIP3   OH233667   2.443   4.990   5.904
11244TIP3    H133668   2.420   5.052   5.834
11244TIP3    H233669   2.432   5.040   5.985
11245TIP3   OH233670   2.550   3.707   6.156
11245TIP3    H133671   2.537   3.795   6.190
11245TIP3    H233672   2.644   3.691   6.165
11246TIP3   OH233673   0.963   0.172   0.081
11246TIP3    H133674   0.869   0.187   0.094
11246TIP3    H233675   0.967   0.095   0.025
11247TIP3   OH233676   3.443   4.383   6.415
11247TIP3    H133677   3.371   4.322   6.428
11247TIP3    H233678   3.515   4.346   6.465
11248TIP3   OH233679   2.175   4.595   5.882
11248TIP3    H133680   2.244   4.661   5.892
11248TIP3    H233681   2.208   4.536   5.815
11249TIP3   OH233682   2.105   3.884   6.032
11249TIP3    H133683   2.111   3.979   6.035
11249TIP3    H233684   2.057   3.865   5.951
11250TIP3   OH233685   3.431   5.354   6.360
11250TIP3    H133686   3.388   5.399   6.287
11250TIP3    H233687   3.524   5.364   6.343
11251TIP3   OH233688   2.496   3.613   6.881
11251TIP3    H133689   2.466   3.578   6.797
11251TIP3    H233690   2.491   3.538   6.941
11252TIP3   OH233691   1.999   4.851   6.293
11252TIP3    H133692   1.931   4.898   6.343
11252TIP3    H233693   1.986   4.880   6.203
11253TIP3   OH233694   7.895   1.385   0.420
11253TIP3    H133695   7.978   1.391   0.467
11253TIP3    H233696   7.886   1.292   0.398
11254TIP3   OH233697   8.356   1.294   0.457
11254TIP3    H133698   8.447   1.265   0.466
11254TIP3    H233699   8.321   1.241   0.385
11255TIP3   OH233700   2.649   4.905   5.514
11255TIP3    H133701   2.608   4.834   5.564
11255TIP3    H233702   2.724   4.863   5.472
11256TIP3   OH233703   0.471   1.238   0.214
11256TIP3    H133704   0.485   1.167   0.277
11256TIP3    H233705   0.546   1.296   0.227
11257TIP3   OH233706   3.088   4.943   5.450
11257TIP3    H133707   3.124   4.878   5.511
11257TIP3    H233708   3.143   4.936   5.372
11258TIP3   OH233709   7.988   0.781   0.604
11258TIP3    H133710   8.007   0.688   0.612
11258TIP3    H233711   7.902   0.785   0.562
11259TIP3   OH233712   2.290   4.402   5.723
11259TIP3    H133713   2.324   4.331   5.777
11259TIP3    H233714   2.361   4.422   5.662
11260TIP3   OH233715   0.110   0.869   0.383
11260TIP3    H133716   0.067   0.890   0.300
11260TIP3    H233717   0.147   0.782   0.369
11261TIP3   OH233718   2.889   4.616   5.574
11261TIP3    H133719   2.854   4.626   5.663
11261TIP3    H233720   2.876   4.524   5.553
11262TIP3   OH233721   3.419   4.917   6.937
11262TIP3    H133722   3.498   4.944   6.889
11262TIP3    H233723   3.357   4.987   6.921
11263TIP3   OH233724   8.116   0.530   0.601
11263TIP3    H133725   8.193   0.517   0.545
11263TIP3    H233726   8.151   0.557   0.685
11264TIP3   OH233727   2.567   4.287   6.024
11264TIP3    H133728   2.524   4.202   6.020
11264TIP3    H233729   2.605   4.299   5.937
11265TIP3   OH233730   8.452   0.407   0.260
11265TIP3    H133731   8.372   0.459   0.269
11265TIP3    H233732   8.493   0.440   0.180
11266TIP3   OH233733   2.637   4.174   5.776
11266TIP3    H133734   2.608   4.175   5.685
11266TIP3    H233735   2.733   4.169   5.770
11267TIP3   OH233736   0.469   0.787   0.352
11267TIP3    H133737   0.538   0.751   0.296
11267TIP3    H233738   0.468   0.730   0.429
11268TIP3   OH233739   3.425   4.443   5.480
11268TIP3    H133740   3.414   4.401   5.395
11268TIP3    H233741   3.401   4.534   5.466
11269TIP3   OH233742   0.072   0.186   0.364
11269TIP3    H133743   0.074   0.110   0.305
11269TIP3    H233744   0.030   0.255   0.312
11270TIP3   OH233745   5.749   7.996   0.170
11270TIP3    H133746   5.776   8.035   0.086
11270TIP3    H233747   5.659   7.967   0.155
11271TIP3   OH233748   0.090   0.516   0.055
11271TIP3    H133749   0.181   0.541   0.036
11271TIP3    H233750   0.037   0.578   0.005
11272TIP3   OH233751   0.682   0.467   0.420
11272TIP3    H133752   0.708   0.375   0.421
11272TIP3    H233753   0.762   0.515   0.400
11273TIP3   OH233754   0.705   0.735   0.167
11273TIP3    H133755   0.653   0.796   0.115
11273TIP3    H233756   0.795   0.746   0.136
11274TIP3   OH233757   8.462   0.298   0.598
11274TIP3    H133758   8.389   0.238   0.616
11274TIP3    H233759   8.491   0.275   0.510
11275TIP3   OH233760   5.871   7.761   0.251
11275TIP3    H133761   5.829   7.842   0.225
11275TIP3    H233762   5.803   7.694   0.243
11276TIP3   OH233763   0.326   0.243   0.453
11276TIP3    H133764   0.315   0.228   0.546
11276TIP3    H233765   0.242   0.218   0.414
11277TIP3   OH233766   0.578   0.191   0.344
11277TIP3    H133767   0.497   0.188   0.395
11277TIP3    H233768   0.644   0.154   0.403
11278TIP3   OH233769   0.807   0.136   0.493
11278TIP3    H133770   0.821   0.042   0.500
11278TIP3    H233771   0.804   0.167   0.583
11279TIP3   OH233772   8.292   0.087   0.641
11279TIP3    H133773   8.303   0.010   0.585
11279TIP3    H233774   8.339   0.065   0.722
11280TIP3   OH233775   5.953   7.754   0.508
11280TIP3    H133776   6.021   7.687   0.509
11280TIP3    H233777   5.920   7.753   0.417
11281TIP3   OH233778   6.048   7.989   0.609
11281TIP3    H133779   6.024   7.907   0.565
11281TIP3    H233780   5.968   8.042   0.607
11282TIP3   OH233781   2.427   5.141   5.676
11282TIP3    H133782   2.522   5.144   5.677
11282TIP3    H233783   2.400   5.215   5.621
11283TIP3   OH233784   1.902   4.584   5.926
11283TIP3    H133785   1.995   4.601   5.911
11283TIP3    H233786   1.886   4.500   5.883
11284TIP3   OH233787   3.704   5.398   6.348
11284TIP3    H133788   3.725   5.426   6.437
11284TIP3    H233789   3.760   5.451   6.292
11285TIP3   OH233790   3.722   5.430   6.629
11285TIP3    H133791   3.673   5.348   6.623
11285TIP3    H233792   3.791   5.413   6.693
11286TIP3   OH233793   0.941   1.127   0.262
11286TIP3    H133794   0.868   1.135   0.323
11286TIP3    H233795   0.986   1.211   0.267
11287TIP3   OH233796   3.594   4.654   5.811
11287TIP3    H133797   3.654   4.721   5.779
11287TIP3    H233798   3.640   4.613   5.884
11288TIP3   OH233799   3.718   4.509   6.013
11288TIP3    H133800   3.651   4.469   6.068
11288TIP3    H233801   3.785   4.539   6.074
11289TIP3   OH233802   3.767   4.913   6.445
11289TIP3    H133803   3.822   4.845   6.407
11289TIP3    H233804   3.769   4.984   6.381
11290TIP3   OH233805   3.576   5.193   6.637
11290TIP3    H133806   3.508   5.239   6.685
11290TIP3    H233807   3.531   5.152   6.563
11291TIP3   OH233808   3.635   4.427   5.656
11291TIP3    H133809   3.564   4.425   5.593
11291TIP3    H233810   3.619   4.506   5.709
11292TIP3   OH233811   3.470   4.084   5.603
11292TIP3    H133812   3.436   4.117   5.520
11292TIP3    H233813   3.463   3.989   5.596
11293TIP3   OH233814   3.513   4.369   6.146
11293TIP3    H133815   3.523   4.275   6.133
11293TIP3    H233816   3.496   4.379   6.240
11294TIP3   OH233817   2.140   4.436   6.918
11294TIP3    H133818   2.131   4.400   6.830
11294TIP3    H233819   2.234   4.432   6.936
11295TIP3   OH233820   0.961   0.777   0.067
11295TIP3    H133821   1.032   0.713   0.055
11295TIP3    H233822   0.961   0.829  -0.013
11296TIP3   OH233823   1.150   0.574   0.071
11296TIP3    H133824   1.074   0.528   0.106
11296TIP3    H233825   1.225   0.523   0.100
11297TIP3   OH233826   3.439   3.814   5.576
11297TIP3    H133827   3.509   3.782   5.633
11297TIP3    H233828   3.361   3.765   5.603
11298TIP3   OH233829   3.512   4.089   6.031
11298TIP3    H133830   3.558   4.006   6.044
11298TIP3    H233831   3.556   4.129   5.955
11299TIP3   OH233832   3.664   4.272   6.542
11299TIP3    H133833   3.745   4.292   6.496
11299TIP3    H233834   3.678   4.304   6.631
11300TIP3   OH233835   3.726   4.416   6.776
11300TIP3    H133836   3.654   4.447   6.831
11300TIP3    H233837   3.759   4.495   6.733
11301TIP3   OH233838   8.019   0.125   0.616
11301TIP3    H133839   8.115   0.120   0.622
11301TIP3    H233840   7.989   0.044   0.659
11302TIP3   OH233841   7.034   8.011   0.375
11302TIP3    H133842   7.097   7.950   0.334
11302TIP3    H233843   7.000   8.063   0.302
11303TIP3   OH233844   3.628   3.842   6.087
11303TIP3    H133845   3.676   3.828   6.169
11303TIP3    H233846   3.568   3.768   6.082
11304TIP3   OH233847   2.330   3.832   6.907
11304TIP3    H133848   2.384   3.752   6.912
11304TIP3    H233849   2.393   3.902   6.894
11305TIP3   OH233850   7.782   0.084   0.026
11305TIP3    H133851   7.833   0.082  -0.054
11305TIP3    H233852   7.827   0.147   0.082
11306TIP3   OH233853   1.224   0.130   0.183
11306TIP3    H133854   1.135   0.158   0.201
11306TIP3    H233855   1.214   0.054   0.126
11307TIP3   OH233856   3.670   3.756   5.722
11307TIP3    H133857   3.715   3.695   5.664
11307TIP3    H233858   3.727   3.833   5.724
11308TIP3   OH233859   2.104   3.605   6.478
11308TIP3    H133860   2.018   3.588   6.517
11308TIP3    H233861   2.086   3.656   6.400
11309TIP3   OH233862   3.286   5.281   5.999
11309TIP3    H133863   3.336   5.287   5.918
11309TIP3    H233864   3.304   5.363   6.045
11310TIP3   OH233865   5.206   7.715   0.310
11310TIP3    H133866   5.170   7.716   0.398
11310TIP3    H233867   5.135   7.744   0.254
11311TIP3   OH233868   8.022   1.111   0.427
11311TIP3    H133869   7.930   1.088   0.417
11311TIP3    H233870   8.041   1.097   0.520
11312TIP3   OH233871   2.570   5.161   6.923
11312TIP3    H133872   2.518   5.234   6.888
11312TIP3    H233873   2.653   5.166   6.875
11313TIP3   OH233874   0.130   1.382   0.120
11313TIP3    H133875   0.169   1.375   0.208
11313TIP3    H233876   0.192   1.436   0.071
11314TIP3   OH233877   3.153   5.544   6.933
11314TIP3    H133878   3.212   5.492   6.878
11314TIP3    H233879   3.212   5.598   6.987
11315TIP3   OH233880   6.797   7.892   0.084
11315TIP3    H133881   6.730   7.899   0.016
11315TIP3    H233882   6.845   7.812   0.062
11316TIP3   OH233883   7.903   1.397   0.034
11316TIP3    H133884   7.812   1.415   0.008
11316TIP3    H233885   7.924   1.466   0.097
11317TIP3   OH233886   2.462   5.391   6.817
11317TIP3    H133887   2.378   5.397   6.864
11317TIP3    H233888   2.440   5.410   6.726
11318TIP3   OH233889   2.875   5.406   6.617
11318TIP3    H133890   2.804   5.417   6.554
11318TIP3    H233891   2.888   5.494   6.654
11319TIP3   OH233892   3.141   5.344   6.660
11319TIP3    H133893   3.048   5.360   6.643
11319TIP3    H233894   3.187   5.407   6.605
11320TIP3   OH233895   3.350   5.523   6.562
11320TIP3    H133896   3.338   5.608   6.519
11320TIP3    H233897   3.376   5.464   6.491
11321TIP3   OH233898   2.139   5.195   6.705
11321TIP3    H133899   2.175   5.169   6.790
11321TIP3    H233900   2.195   5.150   6.641
11322TIP3   OH233901   2.322   5.058   6.553
11322TIP3    H133902   2.333   4.972   6.595
11322TIP3    H233903   2.409   5.097   6.555
11323TIP3   OH233904   2.591   5.114   6.586
11323TIP3    H133905   2.616   5.023   6.573
11323TIP3    H233906   2.657   5.149   6.646
11324TIP3   OH233907   3.120   3.758   6.606
11324TIP3    H133908   3.097   3.703   6.681
11324TIP3    H233909   3.213   3.739   6.590
11325TIP3   OH233910   3.676   3.708   6.537
11325TIP3    H133911   3.718   3.759   6.468
11325TIP3    H233912   3.587   3.744   6.543
11326TIP3   OH233913   3.791   3.799   6.306
11326TIP3    H133914   3.857   3.733   6.282
11326TIP3    H233915   3.835   3.883   6.293
11327TIP3   OH233916   2.406   3.498   6.648
11327TIP3    H133917   2.317   3.465   6.657
11327TIP3    H233918   2.461   3.420   6.642
11328TIP3   OH233919   2.224   3.407   6.307
11328TIP3    H133920   2.252   3.456   6.230
11328TIP3    H233921   2.192   3.474   6.367
11329TIP3   OH233922   2.877   3.543   6.544
11329TIP3    H133923   2.928   3.586   6.475
11329TIP3    H233924   2.922   3.567   6.625
11330TIP3   OH233925   3.381   3.689   6.543
11330TIP3    H133926   3.402   3.660   6.455
11330TIP3    H233927   3.390   3.611   6.598
11331TIP3   OH233928   3.444   3.631   6.091
11331TIP3    H133929   3.363   3.677   6.116
11331TIP3    H233930   3.434   3.544   6.130
11332TIP3   OH233931   1.906   4.969   6.066
11332TIP3    H133932   1.830   4.957   6.010
11332TIP3    H233933   1.873   5.018   6.141
11333TIP3   OH233934   2.338   3.536   6.069
11333TIP3    H133935   2.382   3.472   6.013
11333TIP3    H233936   2.408   3.590   6.104
11334TIP3   OH233937   2.825   3.734   6.177
11334TIP3    H133938   2.886   3.682   6.230
11334TIP3    H233939   2.843   3.825   6.204
11335TIP3   OH233940   2.703   5.129   5.661
11335TIP3    H133941   2.786   5.161   5.627
11335TIP3    H233942   2.680   5.055   5.605
11336TIP3   OH233943   3.419   5.268   5.755
11336TIP3    H133944   3.410   5.173   5.746
11336TIP3    H233945   3.370   5.304   5.680
11337TIP3   OH233946   5.485   7.858   0.520
11337TIP3    H133947   5.421   7.797   0.556
11337TIP3    H233948   5.569   7.832   0.558
11338TIP3   OH233949   5.725   7.814   0.652
11338TIP3    H133950   5.801   7.797   0.596
11338TIP3    H233951   5.741   7.761   0.730
11339TIP3   OH233952   1.998   4.980   5.736
11339TIP3    H133953   1.999   4.997   5.830
11339TIP3    H233954   2.080   4.933   5.719
11340TIP3   OH233955   6.539   7.882   0.498
11340TIP3    H133956   6.561   7.852   0.586
11340TIP3    H233957   6.622   7.878   0.450
11341TIP3   OH233958   3.624   5.408   6.951
11341TIP3    H133959   3.551   5.377   6.897
11341TIP3    H233960   3.610   5.503   6.958
11342TIP3   OH233961   4.910   4.812   5.688
11342TIP3    H133962   4.866   4.893   5.664
11342TIP3    H233963   4.845   4.744   5.671
11343TIP3   OH233964   4.897   4.780   6.119
11343TIP3    H133965   4.951   4.762   6.196
11343TIP3    H233966   4.851   4.698   6.101
11344TIP3   OH233967   4.197   4.649   6.461
11344TIP3    H133968   4.235   4.592   6.527
11344TIP3    H233969   4.271   4.670   6.403
11345TIP3   OH233970   5.135   5.068   5.795
11345TIP3    H133971   5.127   4.999   5.861
11345TIP3    H233972   5.072   5.043   5.728
11346TIP3   OH233973   4.192   5.086   6.153
11346TIP3    H133974   4.174   4.993   6.157
11346TIP3    H233975   4.287   5.091   6.141
11347TIP3   OH233976   3.874   4.286   5.927
11347TIP3    H133977   3.833   4.369   5.953
11347TIP3    H233978   3.802   4.235   5.890
11348TIP3   OH233979   3.948   4.578   6.157
11348TIP3    H133980   3.998   4.502   6.185
11348TIP3    H233981   4.014   4.638   6.122
11349TIP3   OH233982   4.817   5.532   5.792
11349TIP3    H133983   4.846   5.463   5.733
11349TIP3    H233984   4.797   5.486   5.874
11350TIP3   OH233985   4.702   5.010   6.113
11350TIP3    H133986   4.743   4.929   6.083
11350TIP3    H233987   4.775   5.064   6.145
11351TIP3   OH233988   5.742   4.328   6.130
11351TIP3    H133989   5.758   4.413   6.170
11351TIP3    H233990   5.768   4.339   6.038
11352TIP3   OH233991   5.118   4.498   6.153
11352TIP3    H133992   5.150   4.412   6.181
11352TIP3    H233993   5.079   4.483   6.068
11353TIP3   OH233994   4.480   4.156   6.102
11353TIP3    H133995   4.452   4.229   6.046
11353TIP3    H233996   4.421   4.084   6.078
11354TIP3   OH233997   5.169   4.258   5.749
11354TIP3    H133998   5.233   4.251   5.820
11354TIP3    H233999   5.220   4.292   5.675
11355TIP3   OH234000   4.096   4.361   6.244
11355TIP3    H134001   4.181   4.343   6.285
11355TIP3    H234002   4.098   4.312   6.162
11356TIP3   OH234003   4.511   4.571   6.063
11356TIP3    H134004   4.606   4.555   6.067
11356TIP3    H234005   4.475   4.490   6.027
11357TIP3   OH234006   5.795   4.545   6.303
11357TIP3    H134007   5.706   4.578   6.294
11357TIP3    H234008   5.824   4.578   6.388
11358TIP3   OH234009   4.451   4.151   6.533
11358TIP3    H134010   4.399   4.201   6.470
11358TIP3    H234011   4.388   4.101   6.584
11359TIP3   OH234012   4.773   5.019   5.578
11359TIP3    H134013   4.742   4.993   5.491
11359TIP3    H234014   4.723   5.097   5.598
11360TIP3   OH234015   4.544   4.936   6.329
11360TIP3    H134016   4.489   5.007   6.363
11360TIP3    H234017   4.590   4.975   6.254
11361TIP3   OH234018   5.326   4.279   5.971
11361TIP3    H134019   5.284   4.256   6.055
11361TIP3    H234020   5.383   4.353   5.993
11362TIP3   OH234021   4.356   4.294   6.315
11362TIP3    H134022   4.419   4.360   6.344
11362TIP3    H234023   4.404   4.243   6.249
11363TIP3   OH234024   4.389   5.139   6.436
11363TIP3    H134025   4.372   5.228   6.405
11363TIP3    H234026   4.310   5.116   6.487
11364TIP3   OH234027   3.766   4.839   5.691
11364TIP3    H134028   3.734   4.855   5.602
11364TIP3    H234029   3.789   4.926   5.724
11365TIP3   OH234030   5.216   5.351   5.915
11365TIP3    H134031   5.139   5.341   5.970
11365TIP3    H234032   5.213   5.442   5.886
11366TIP3   OH234033   5.535   4.231   6.301
11366TIP3    H134034   5.450   4.248   6.260
11366TIP3    H234035   5.599   4.254   6.233
11367TIP3   OH234036   4.795   3.850   6.298
11367TIP3    H134037   4.790   3.757   6.321
11367TIP3    H234038   4.715   3.888   6.334
11368TIP3   OH234039   4.911   5.365   5.589
11368TIP3    H134040   4.963   5.286   5.573
11368TIP3    H234041   4.967   5.437   5.559
11369TIP3   OH234042   5.096   5.174   5.521
11369TIP3    H134043   5.093   5.103   5.456
11369TIP3    H234044   5.184   5.211   5.511
11370TIP3   OH234045   5.434   5.252   6.261
11370TIP3    H134046   5.440   5.195   6.185
11370TIP3    H234047   5.415   5.339   6.225
11371TIP3   OH234048   4.735   4.640   5.549
11371TIP3    H134049   4.651   4.682   5.532
11371TIP3    H234050   4.778   4.635   5.464
11372TIP3   OH234051   4.696   4.437   5.243
11372TIP3    H134052   4.762   4.485   5.292
11372TIP3    H234053   4.745   4.375   5.190
11373TIP3   OH234054   5.611   4.894   6.164
11373TIP3    H134055   5.526   4.935   6.150
11373TIP3    H234056   5.655   4.899   6.079
11374TIP3   OH234057   5.089   4.740   5.495
11374TIP3    H134058   5.034   4.766   5.569
11374TIP3    H234059   5.169   4.707   5.535
11375TIP3   OH234060   5.319   4.753   6.447
11375TIP3    H134061   5.316   4.837   6.494
11375TIP3    H234062   5.236   4.750   6.399
11376TIP3   OH234063   4.312   4.703   5.910
11376TIP3    H134064   4.275   4.643   5.845
11376TIP3    H234065   4.384   4.654   5.951
11377TIP3   OH234066   4.452   5.132   6.048
11377TIP3    H134067   4.424   5.116   5.958
11377TIP3    H234068   4.537   5.090   6.054
11378TIP3   OH234069   4.411   4.699   6.287
11378TIP3    H134070   4.448   4.660   6.208
11378TIP3    H234071   4.460   4.780   6.300
11379TIP3   OH234072   5.003   5.333   6.074
11379TIP3    H134073   4.969   5.412   6.115
11379TIP3    H234074   4.973   5.262   6.130
11380TIP3   OH234075   4.586   5.235   6.606
11380TIP3    H134076   4.524   5.292   6.652
11380TIP3    H234077   4.530   5.184   6.547
11381TIP3   OH234078   4.920   4.584   5.339
11381TIP3    H134079   4.979   4.645   5.385
11381TIP3    H234080   4.945   4.590   5.247
11382TIP3   OH234081   4.336   4.778   6.758
11382TIP3    H134082   4.339   4.872   6.772
11382TIP3    H234083   4.242   4.758   6.748
11383TIP3   OH234084   4.653   5.269   5.603
11383TIP3    H134085   4.741   5.307   5.601
11383TIP3    H234086   4.601   5.325   5.546
11384TIP3   OH234087   4.376   5.395   6.691
11384TIP3    H134088   4.352   5.404   6.599
11384TIP3    H234089   4.293   5.379   6.737
11385TIP3   OH234090   5.429   3.810   5.397
11385TIP3    H134091   5.352   3.830   5.450
11385TIP3    H234092   5.440   3.887   5.341
11386TIP3   OH234093   4.189   4.545   5.708
11386TIP3    H134094   4.110   4.591   5.676
11386TIP3    H234095   4.159   4.456   5.726
11387TIP3   OH234096   5.256   5.199   4.935
11387TIP3    H134097   5.254   5.292   4.914
11387TIP3    H234098   5.344   5.170   4.912
11388TIP3   OH234099   3.971   4.947   6.640
11388TIP3    H134100   3.902   4.930   6.576
11388TIP3    H234101   4.004   4.861   6.663
11389TIP3   OH234102   3.813   5.143   6.288
11389TIP3    H134103   3.905   5.164   6.303
11389TIP3    H234104   3.766   5.221   6.319
11390TIP3   OH234105   5.675   5.587   6.346
11390TIP3    H134106   5.676   5.492   6.360
11390TIP3    H234107   5.593   5.616   6.384
11391TIP3   OH234108   4.776   5.379   6.468
11391TIP3    H134109   4.767   5.470   6.496
11391TIP3    H234110   4.707   5.332   6.517
11392TIP3   OH234111   4.557   5.478   5.420
11392TIP3    H134112   4.510   5.454   5.340
11392TIP3    H234113   4.517   5.560   5.448
11393TIP3   OH234114   3.991   5.334   5.797
11393TIP3    H134115   4.033   5.325   5.882
11393TIP3    H234116   3.940   5.253   5.787
11394TIP3   OH234117   4.756   5.412   5.046
11394TIP3    H134118   4.806   5.338   5.011
11394TIP3    H234119   4.791   5.425   5.134
11395TIP3   OH234120   4.811   5.456   5.315
11395TIP3    H134121   4.725   5.457   5.357
11395TIP3    H234122   4.870   5.421   5.381
11396TIP3   OH234123   5.558   4.706   6.611
11396TIP3    H134124   5.478   4.715   6.559
11396TIP3    H234125   5.576   4.612   6.612
11397TIP3   OH234126   4.169   5.136   6.606
11397TIP3    H134127   4.221   5.123   6.686
11397TIP3    H234128   4.098   5.073   6.612
11398TIP3   OH234129   4.549   3.923   6.412
11398TIP3    H134130   4.467   3.885   6.378
11398TIP3    H234131   4.522   4.007   6.449
11399TIP3   OH234132   5.092   4.070   6.622
11399TIP3    H134133   5.159   4.041   6.684
11399TIP3    H234134   5.009   4.053   6.667
11400TIP3   OH234135   5.325   4.491   6.545
11400TIP3    H134136   5.282   4.488   6.630
11400TIP3    H234137   5.303   4.578   6.511
11401TIP3   OH234138   5.003   4.589   5.081
11401TIP3    H134139   4.953   4.575   5.001
11401TIP3    H234140   5.084   4.631   5.052
11402TIP3   OH234141   4.711   3.978   5.391
11402TIP3    H134142   4.672   3.988   5.477
11402TIP3    H234143   4.671   3.899   5.355
11403TIP3   OH234144   4.509   4.488   6.442
11403TIP3    H134145   4.455   4.484   6.521
11403TIP3    H234146   4.480   4.568   6.398
11404TIP3   OH234147   4.375   4.359   5.949
11404TIP3    H134148   4.286   4.334   5.975
11404TIP3    H234149   4.383   4.325   5.859
11405TIP3   OH234150   4.856   4.432   5.681
11405TIP3    H134151   4.808   4.504   5.641
11405TIP3    H234152   4.911   4.398   5.611
11406TIP3   OH234153   5.035   4.699   6.755
11406TIP3    H134154   5.009   4.629   6.816
11406TIP3    H234155   5.128   4.714   6.774
11407TIP3   OH234156   5.026   4.444   5.901
11407TIP3    H134157   4.956   4.464   5.838
11407TIP3    H234158   5.072   4.370   5.862
11408TIP3   OH234159   4.332   4.493   6.653
11408TIP3    H134160   4.335   4.559   6.722
11408TIP3    H234161   4.310   4.412   6.698
11409TIP3   OH234162   4.373   3.968   5.356
11409TIP3    H134163   4.363   3.972   5.452
11409TIP3    H234164   4.295   4.011   5.322
11410TIP3   OH234165   3.946   3.997   6.203
11410TIP3    H134166   4.036   4.012   6.230
11410TIP3    H234167   3.952   3.954   6.118
11411TIP3   OH234168   3.822   3.990   5.735
11411TIP3    H134169   3.871   4.026   5.661
11411TIP3    H234170   3.759   4.058   5.758
11412TIP3   OH234171   5.069   4.698   6.328
11412TIP3    H134172   5.093   4.632   6.264
11412TIP3    H234173   5.025   4.649   6.398
11413TIP3   OH234174   4.745   4.150   6.003
11413TIP3    H134175   4.664   4.148   6.053
11413TIP3    H234176   4.815   4.139   6.068
11414TIP3   OH234177   4.135   4.235   6.003
11414TIP3    H134178   4.046   4.238   5.969
11414TIP3    H234179   4.163   4.144   5.989
11415TIP3   OH234180   4.389   4.236   5.703
11415TIP3    H134181   4.484   4.244   5.692
11415TIP3    H234182   4.353   4.252   5.616
11416TIP3   OH234183   5.187   4.237   6.215
11416TIP3    H134184   5.167   4.255   6.307
11416TIP3    H234185   5.120   4.175   6.188
11417TIP3   OH234186   4.275   4.258   5.454
11417TIP3    H134187   4.211   4.207   5.404
11417TIP3    H234188   4.327   4.303   5.388
11418TIP3   OH234189   5.383   5.939   6.428
11418TIP3    H134190   5.376   5.955   6.334
11418TIP3    H234191   5.463   5.985   6.455
11419TIP3   OH234192   4.323   5.051   6.839
11419TIP3    H134193   4.404   5.069   6.888
11419TIP3    H234194   4.253   5.058   6.905
11420TIP3   OH234195   4.786   4.517   6.109
11420TIP3    H134196   4.845   4.461   6.059
11420TIP3    H234197   4.782   4.478   6.196
11421TIP3   OH234198   4.280   3.987   5.989
11421TIP3    H134199   4.249   3.911   6.038
11421TIP3    H234200   4.302   3.952   5.903
11422TIP3   OH234201   4.765   4.423   6.371
11422TIP3    H134202   4.679   4.453   6.399
11422TIP3    H234203   4.827   4.471   6.426
11423TIP3   OH234204   4.495   4.770   5.490
11423TIP3    H134205   4.421   4.714   5.466
11423TIP3    H234206   4.468   4.811   5.573
11424TIP3   OH234207   4.962   4.084   5.397
11424TIP3    H134208   4.870   4.059   5.390
11424TIP3    H234209   4.961   4.179   5.404
11425TIP3   OH234210   4.905   5.116   6.499
11425TIP3    H134211   4.946   5.105   6.585
11425TIP3    H234212   4.860   5.200   6.504
11426TIP3   OH234213   5.016   4.353   5.464
11426TIP3    H134214   5.111   4.357   5.471
11426TIP3    H234215   4.993   4.429   5.411
11427TIP3   OH234216   4.190   4.804   6.138
11427TIP3    H134217   4.224   4.778   6.053
11427TIP3    H234218   4.251   4.766   6.201
11428TIP3   OH234219   4.649   4.935   5.337
11428TIP3    H134220   4.598   5.017   5.332
11428TIP3    H234221   4.592   4.875   5.387
11429TIP3   OH234222   4.062   4.711   6.773
11429TIP3    H134223   4.059   4.679   6.864
11429TIP3    H234224   3.989   4.667   6.730
11430TIP3   OH234225   4.806   4.855   6.799
11430TIP3    H134226   4.734   4.798   6.772
11430TIP3    H234227   4.885   4.812   6.767
11431TIP3   OH234228   5.048   5.398   6.394
11431TIP3    H134229   4.953   5.384   6.398
11431TIP3    H234230   5.070   5.435   6.479
11432TIP3   OH234231   5.436   4.440   5.275
11432TIP3    H134232   5.382   4.394   5.211
11432TIP3    H234233   5.438   4.530   5.245
11433TIP3   OH234234   5.686   5.294   6.362
11433TIP3    H134235   5.591   5.290   6.351
11433TIP3    H234236   5.721   5.269   6.276
11434TIP3   OH234237   5.162   5.248   5.193
11434TIP3    H134238   5.135   5.165   5.233
11434TIP3    H234239   5.191   5.223   5.105
11435TIP3   OH234240   5.130   4.873   5.986
11435TIP3    H134241   5.046   4.842   6.019
11435TIP3    H234242   5.175   4.793   5.957
11436TIP3   OH234243   4.307   5.128   5.806
11436TIP3    H134244   4.306   5.204   5.748
11436TIP3    H234245   4.215   5.113   5.827
11437TIP3   OH234246   3.869   4.412   5.508
11437TIP3    H134247   3.913   4.494   5.530
11437TIP3    H234248   3.789   4.412   5.560
11438TIP3   OH234249   4.398   4.883   5.716
11438TIP3    H134250   4.379   4.972   5.745
11438TIP3    H234251   4.369   4.828   5.788
11439TIP3   OH234252   4.591   5.453   6.261
11439TIP3    H134253   4.627   5.526   6.210
11439TIP3    H234254   4.666   5.418   6.310
11440TIP3   OH234255   4.225   5.352   5.654
11440TIP3    H134256   4.138   5.357   5.693
11440TIP3    H234257   4.259   5.442   5.659
11441TIP3   OH234258   4.939   5.107   6.225
11441TIP3    H134259   4.932   5.105   6.321
11441TIP3    H234260   5.004   5.040   6.204
11442TIP3   OH234261   4.948   4.997   5.105
11442TIP3    H134262   4.985   4.980   5.191
11442TIP3    H234263   4.864   4.951   5.105
11443TIP3   OH234264   5.186   5.627   6.280
11443TIP3    H134265   5.118   5.560   6.290
11443TIP3    H234266   5.156   5.680   6.206
11444TIP3   OH234267   5.263   5.473   4.908
11444TIP3    H134268   5.308   5.549   4.872
11444TIP3    H234269   5.182   5.510   4.945
11445TIP3   OH234270   4.256   4.270   6.804
11445TIP3    H134271   4.162   4.286   6.812
11445TIP3    H234272   4.263   4.181   6.769
11446TIP3   OH234273   5.119   4.964   5.330
11446TIP3    H134274   5.094   4.889   5.384
11446TIP3    H234275   5.212   4.950   5.311
11447TIP3   OH234276   4.021   5.340   6.422
11447TIP3    H134277   4.072   5.276   6.472
11447TIP3    H234278   4.038   5.423   6.466
11448TIP3   OH234279   4.290   4.954   5.109
11448TIP3    H134280   4.287   4.865   5.075
11448TIP3    H234281   4.272   4.945   5.203
11449TIP3   OH234282   4.230   4.976   5.382
11449TIP3    H134283   4.296   4.950   5.447
11449TIP3    H234284   4.230   5.072   5.387
11450TIP3   OH234285   3.963   4.663   5.596
11450TIP3    H134286   3.898   4.710   5.648
11450TIP3    H234287   3.982   4.721   5.523
11451TIP3   OH234288   5.129   4.301   6.478
11451TIP3    H134289   5.210   4.340   6.512
11451TIP3    H234290   5.117   4.222   6.531
11452TIP3   OH234291   5.019   4.039   5.665
11452TIP3    H134292   4.997   4.056   5.573
11452TIP3    H234293   5.062   4.119   5.694
11453TIP3   OH234294   4.503   5.163   5.329
11453TIP3    H134295   4.417   5.186   5.365
11453TIP3    H234296   4.523   5.233   5.267
11454TIP3   OH234297   4.671   4.238   5.750
11454TIP3    H134298   4.732   4.307   5.724
11454TIP3    H234299   4.694   4.219   5.840
11455TIP3   OH234300   4.970   4.535   6.524
11455TIP3    H134301   4.990   4.574   6.609
11455TIP3    H234302   5.018   4.452   6.524
11456TIP3   OH234303   4.830   3.937   5.840
11456TIP3    H134304   4.807   4.015   5.890
11456TIP3    H234305   4.899   3.967   5.780
11457TIP3   OH234306   4.252   5.250   5.400
11457TIP3    H134307   4.231   5.323   5.341
11457TIP3    H234308   4.240   5.287   5.488
11458TIP3   OH234309   4.342   3.962   5.637
11458TIP3    H134310   4.329   4.052   5.667
11458TIP3    H234311   4.436   3.947   5.645
11459TIP3   OH234312   5.585   4.422   6.519
11459TIP3    H134313   5.492   4.439   6.533
11459TIP3    H234314   5.588   4.363   6.444
11460TIP3   OH234315   5.249   4.627   5.900
11460TIP3    H134316   5.174   4.569   5.910
11460TIP3    H234317   5.317   4.588   5.955
11461TIP3   OH234318   3.986   4.843   5.383
11461TIP3    H134319   4.057   4.907   5.389
11461TIP3    H234320   4.016   4.780   5.317
11462TIP3   OH234321   3.908   4.135   5.520
11462TIP3    H134322   3.908   4.231   5.521
11462TIP3    H234323   3.889   4.112   5.430
11463TIP3   OH234324   5.229   5.616   5.853
11463TIP3    H134325   5.185   5.663   5.782
11463TIP3    H234326   5.322   5.630   5.838
11464TIP3   OH234327   3.815   5.113   5.769
11464TIP3    H134328   3.768   5.148   5.845
11464TIP3    H234329   3.772   5.154   5.694
11465TIP3   OH234330   4.015   5.648   6.845
11465TIP3    H134331   4.099   5.650   6.891
11465TIP3    H234332   3.996   5.555   6.833
11466TIP3   OH234333   4.484   5.556   6.886
11466TIP3    H134334   4.575   5.530   6.893
11466TIP3    H234335   4.448   5.503   6.815
11467TIP3   OH234336   4.442   5.157   5.004
11467TIP3    H134337   4.394   5.086   5.046
11467TIP3    H234338   4.516   5.114   4.961
11468TIP3   OH234339   5.101   5.497   6.645
11468TIP3    H134340   5.116   5.428   6.709
11468TIP3    H234341   5.175   5.557   6.655
11469TIP3   OH234342   4.885   5.200   4.930
11469TIP3    H134343   4.922   5.137   4.991
11469TIP3    H234344   4.943   5.195   4.853
11470TIP3   OH234345   1.284   1.051   0.090
11470TIP3    H134346   1.305   0.958   0.101
11470TIP3    H234347   1.198   1.052   0.048
11471TIP3   OH234348   4.111   4.658   5.227
11471TIP3    H134349   4.168   4.633   5.300
11471TIP3    H234350   4.170   4.668   5.153
11472TIP3   OH234351   4.740   5.130   6.809
11472TIP3    H134352   4.694   5.150   6.728
11472TIP3    H234353   4.772   5.041   6.797
11473TIP3   OH234354   4.700   4.877   5.073
11473TIP3    H134355   4.672   4.889   5.164
11473TIP3    H234356   4.682   4.785   5.054
11474TIP3   OH234357   5.224   5.174   6.427
11474TIP3    H134358   5.297   5.206   6.373
11474TIP3    H234359   5.154   5.237   6.412
11475TIP3   OH234360   1.400   0.802   0.098
11475TIP3    H134361   1.467   0.767   0.039
11475TIP3    H234362   1.443   0.809   0.183
11476TIP3   OH234363   4.287   4.595   5.438
11476TIP3    H134364   4.263   4.561   5.524
11476TIP3    H234365   4.331   4.521   5.395
11477TIP3   OH234366   4.600   4.686   6.708
11477TIP3    H134367   4.510   4.719   6.716
11477TIP3    H234368   4.626   4.710   6.620
11478TIP3   OH234369   4.419   4.410   5.276
11478TIP3    H134370   4.390   4.413   5.184
11478TIP3    H234371   4.514   4.415   5.271
11479TIP3   OH234372   5.100   5.052   6.788
11479TIP3    H134373   5.163   5.010   6.728
11479TIP3    H234374   5.095   4.993   6.863
11480TIP3   OH234375   5.225   4.704   4.958
11480TIP3    H134376   5.209   4.662   4.874
11480TIP3    H234377   5.201   4.796   4.944
11481TIP3   OH234378   4.710   4.450   6.797
11481TIP3    H134379   4.701   4.376   6.736
11481TIP3    H234380   4.671   4.524   6.751
11482TIP3   OH234381   4.700   4.246   6.600
11482TIP3    H134382   4.728   4.281   6.516
11482TIP3    H234383   4.610   4.215   6.585
11483TIP3   OH234384   4.709   4.773   6.475
11483TIP3    H134385   4.799   4.797   6.452
11483TIP3    H234386   4.654   4.832   6.424
11484TIP3   OH234387   5.304   4.728   6.848
11484TIP3    H134388   5.327   4.635   6.848
11484TIP3    H234389   5.386   4.772   6.823
11485TIP3   OH234390   5.347   4.996   6.591
11485TIP3    H134391   5.294   5.059   6.542
11485TIP3    H234392   5.437   5.012   6.561
11486TIP3   OH234393   1.756   0.521   0.100
11486TIP3    H134394   1.686   0.457   0.111
11486TIP3    H234395   1.786   0.509   0.010
11487TIP3   OH234396   4.828   4.018   6.702
11487TIP3    H134397   4.784   4.097   6.672
11487TIP3    H234398   4.763   3.948   6.690
11488TIP3   OH234399   4.960   4.482   6.906
11488TIP3    H134400   4.944   4.468   7.000
11488TIP3    H234401   4.876   4.463   6.865
11489TIP3   OH234402   5.210   4.453   6.786
11489TIP3    H134403   5.129   4.445   6.835
11489TIP3    H234404   5.277   4.415   6.842
11490TIP3   OH234405   2.609   0.391  -0.010
11490TIP3    H134406   2.622   0.296  -0.005
11490TIP3    H234407   2.604   0.420   0.081
11491TIP3   OH234408   1.584   0.298   0.090
11491TIP3    H134409   1.543   0.281   0.006
11491TIP3    H234410   1.611   0.212   0.122
11492TIP3   OH234411   4.903   3.989   6.966
11492TIP3    H134412   4.969   3.920   6.955
11492TIP3    H234413   4.868   4.002   6.878
11493TIP3   OH234414   2.156   0.195   0.176
11493TIP3    H134415   2.129   0.122   0.120
11493TIP3    H234416   2.083   0.257   0.172
11494TIP3   OH234417   4.251   5.465   5.221
11494TIP3    H134418   4.338   5.439   5.192
11494TIP3    H234419   4.211   5.507   5.145
11495TIP3   OH234420   3.713   4.839   5.405
11495TIP3    H134421   3.807   4.854   5.396
11495TIP3    H234422   3.699   4.753   5.365
11496TIP3   OH234423   3.619   5.426   5.856
11496TIP3    H134424   3.555   5.372   5.808
11496TIP3    H234425   3.661   5.364   5.916
11497TIP3   OH234426   3.760   5.257   6.024
11497TIP3    H134427   3.750   5.187   6.089
11497TIP3    H234428   3.812   5.324   6.069
11498TIP3   OH234429   5.493   5.670   5.832
11498TIP3    H134430   5.531   5.702   5.913
11498TIP3    H234431   5.559   5.690   5.765
11499TIP3   OH234432   5.519   5.712   6.117
11499TIP3    H134433   5.472   5.629   6.115
11499TIP3    H234434   5.602   5.692   6.160
11500TIP3   OH234435   5.579   5.389   6.676
11500TIP3    H134436   5.503   5.398   6.734
11500TIP3    H234437   5.620   5.475   6.678
11501TIP3   OH234438   5.389   4.907   5.301
11501TIP3    H134439   5.447   4.976   5.269
11501TIP3    H234440   5.437   4.869   5.375
11502TIP3   OH234441   5.523   4.763   5.502
11502TIP3    H134442   5.453   4.727   5.556
11502TIP3    H234443   5.583   4.804   5.564
11503TIP3   OH234444   5.367   5.480   6.130
11503TIP3    H134445   5.300   5.525   6.179
11503TIP3    H234446   5.322   5.447   6.052
11504TIP3   OH234447   5.426   4.682   5.145
11504TIP3    H134448   5.356   4.683   5.079
11504TIP3    H234449   5.409   4.760   5.199
11505TIP3   OH234450   5.297   4.328   5.068
11505TIP3    H134451   5.240   4.364   5.000
11505TIP3    H234452   5.283   4.233   5.062
11506TIP3   OH234453   5.309   4.627   5.628
11506TIP3    H134454   5.314   4.533   5.612
11506TIP3    H234455   5.292   4.634   5.722
11507TIP3   OH234456   3.936   4.701   6.404
11507TIP3    H134457   3.923   4.655   6.320
11507TIP3    H234458   4.029   4.690   6.423
11508TIP3   OH234459   5.608   5.048   6.503
11508TIP3    H134460   5.669   4.977   6.484
11508TIP3    H234461   5.637   5.120   6.447
11509TIP3   OH234462   5.773   4.829   6.495
11509TIP3    H134463   5.698   4.786   6.535
11509TIP3    H234464   5.848   4.773   6.516
11510TIP3   OH234465   5.249   4.057   5.054
11510TIP3    H134466   5.311   4.032   5.123
11510TIP3    H234467   5.165   4.021   5.082
11511TIP3   OH234468   5.311   4.350   5.518
11511TIP3    H134469   5.355   4.266   5.531
11511TIP3    H234470   5.352   4.386   5.439
11512TIP3   OH234471   5.466   4.511   6.042
11512TIP3    H134472   5.546   4.532   5.994
11512TIP3    H234473   5.480   4.548   6.129
11513TIP3   OH234474   5.535   4.654   6.275
11513TIP3    H134475   5.460   4.680   6.329
11513TIP3    H234476   5.568   4.736   6.239
11514TIP3   OH234477   1.338   0.394   0.172
11514TIP3    H134478   1.426   0.370   0.142
11514TIP3    H234479   1.294   0.310   0.184
11515TIP3   OH234480   5.994   4.262   6.808
11515TIP3    H134481   6.060   4.207   6.767
11515TIP3    H234482   5.954   4.311   6.736
11516TIP3   OH234483   5.424   4.099   5.571
11516TIP3    H134484   5.468   4.083   5.655
11516TIP3    H234485   5.361   4.028   5.564
11517TIP3   OH234486   3.908   4.365   6.453
11517TIP3    H134487   3.958   4.354   6.372
11517TIP3    H234488   3.974   4.379   6.520
11518TIP3   OH234489   5.844   4.370   6.604
11518TIP3    H134490   5.756   4.407   6.609
11518TIP3    H234491   5.833   4.289   6.553
11519TIP3   OH234492   5.475   4.011   5.214
11519TIP3    H134493   5.522   3.950   5.157
11519TIP3    H234494   5.530   4.090   5.215
11520TIP3   OH234495   3.892   3.857   5.962
11520TIP3    H134496   3.805   3.841   5.998
11520TIP3    H234497   3.876   3.910   5.884
11521TIP3   OH234498   5.054   5.564   5.479
11521TIP3    H134499   5.109   5.552   5.401
11521TIP3    H234500   5.103   5.627   5.532
11522TIP3   OH234501   4.152   5.368   6.855
11522TIP3    H134502   4.059   5.350   6.846
11522TIP3    H234503   4.171   5.350   6.948
11523TIP3   OH234504   4.362   5.416   6.410
11523TIP3    H134505   4.311   5.490   6.377
11523TIP3    H234506   4.447   5.424   6.365
11524TIP3   OH234507   4.762   5.647   6.545
11524TIP3    H134508   4.798   5.640   6.633
11524TIP3    H234509   4.825   5.699   6.496
11525TIP3   OH234510   4.955   5.799   6.418
11525TIP3    H134511   5.020   5.746   6.371
11525TIP3    H234512   5.007   5.858   6.471
11526TIP3   OH234513   5.763   4.116   6.507
11526TIP3    H134514   5.673   4.100   6.478
11526TIP3    H234515   5.805   4.031   6.502
11527TIP3   OH234516   4.024   5.661   6.454
11527TIP3    H134517   3.933   5.677   6.432
11527TIP3    H234518   4.044   5.727   6.521
11528TIP3   OH234519   4.255   5.648   6.305
11528TIP3    H134520   4.172   5.653   6.353
11528TIP3    H234521   4.233   5.670   6.215
11529TIP3   OH234522   4.667   5.662   6.094
11529TIP3    H134523   4.593   5.673   6.034
11529TIP3    H234524   4.678   5.748   6.135
11530TIP3   OH234525   4.930   5.593   6.139
11530TIP3    H134526   4.838   5.613   6.121
11530TIP3    H234527   4.979   5.661   6.094
11531TIP3   OH234528   5.126   5.775   6.050
11531TIP3    H134529   5.126   5.863   6.012
11531TIP3    H234530   5.162   5.720   5.981
11532TIP3   OH234531   3.934   5.433   6.174
11532TIP3    H134532   3.960   5.407   6.262
11532TIP3    H234533   4.005   5.401   6.118
11533TIP3   OH234534   4.137   5.323   6.031
11533TIP3    H134535   4.148   5.239   6.076
11533TIP3    H234536   4.224   5.363   6.033
11534TIP3   OH234537   4.406   5.408   6.055
11534TIP3    H134538   4.423   5.315   6.039
11534TIP3    H234539   4.458   5.429   6.132
11535TIP3   OH234540   4.969   4.056   6.150
11535TIP3    H134541   4.928   3.984   6.197
11535TIP3    H234542   5.036   4.013   6.096
11536TIP3   OH234543   5.468   3.973   6.035
11536TIP3    H134544   5.502   4.022   5.960
11536TIP3    H234545   5.373   3.987   6.032
11537TIP3   OH234546   5.581   4.045   5.794
11537TIP3    H134547   5.650   3.985   5.767
11537TIP3    H234548   5.618   4.132   5.782
11538TIP3   OH234549   4.194   3.758   6.113
11538TIP3    H134550   4.109   3.724   6.140
11538TIP3    H234551   4.255   3.684   6.124
11539TIP3   OH234552   4.009   3.658   5.789
11539TIP3    H134553   4.042   3.708   5.714
11539TIP3    H234554   3.981   3.724   5.852
11540TIP3   OH234555   4.687   3.792   6.036
11540TIP3    H134556   4.734   3.840   5.968
11540TIP3    H234557   4.726   3.821   6.118
11541TIP3   OH234558   5.183   3.942   6.012
11541TIP3    H134559   5.184   3.908   5.922
11541TIP3    H234560   5.187   3.864   6.067
11542TIP3   OH234561   5.239   3.889   5.580
11542TIP3    H134562   5.159   3.935   5.603
11542TIP3    H234563   5.228   3.801   5.618
11543TIP3   OH234564   3.698   5.233   5.551
11543TIP3    H134565   3.614   5.201   5.518
11543TIP3    H234566   3.703   5.324   5.520
11544TIP3   OH234567   4.130   3.792   5.557
11544TIP3    H134568   4.175   3.729   5.499
11544TIP3    H234569   4.200   3.848   5.590
11545TIP3   OH234570   4.617   3.988   5.652
11545TIP3    H134571   4.674   3.933   5.707
11545TIP3    H234572   4.635   4.077   5.681
11546TIP3   OH234573   4.502   5.380   5.149
11546TIP3    H134574   4.585   5.408   5.110
11546TIP3    H234575   4.472   5.309   5.092
11547TIP3   OH234576   5.195   5.518   5.243
11547TIP3    H134577   5.190   5.423   5.234
11547TIP3    H234578   5.153   5.552   5.164
11548TIP3   OH234579   7.268   8.017   0.100
11548TIP3    H134580   7.237   7.949   0.160
11548TIP3    H234581   7.360   8.030   0.123
11549TIP3   OH234582   1.852   0.032   0.201
11549TIP3    H134583   1.929   0.004   0.150
11549TIP3    H234584   1.848  -0.031   0.273
11550TIP3   OH234585   3.815   5.230   5.201
11550TIP3    H134586   3.813   5.229   5.296
11550TIP3    H234587   3.892   5.178   5.177
11551TIP3   OH234588   2.669   0.121  -0.008
11551TIP3    H134589   2.686   0.091   0.081
11551TIP3    H234590   2.754   0.116  -0.051
11552TIP3   OH234591   5.420   5.665   6.434
11552TIP3    H134592   5.342   5.638   6.385
11552TIP3    H234593   5.414   5.760   6.440
11553TIP3   OH234594   6.700   5.053   5.177
11553TIP3    H134595   6.670   5.140   5.150
11553TIP3    H234596   6.629   4.994   5.153
11554TIP3   OH234597   6.697   5.043   5.601
11554TIP3    H134598   6.750   5.025   5.679
11554TIP3    H234599   6.653   4.960   5.584
11555TIP3   OH234600   6.003   4.913   5.952
11555TIP3    H134601   6.042   4.856   6.019
11555TIP3    H234602   6.075   4.934   5.893
11556TIP3   OH234603   6.965   5.351   5.275
11556TIP3    H134604   6.953   5.285   5.343
11556TIP3    H234605   6.988   5.431   5.323
11557TIP3   OH234606   5.991   5.334   5.626
11557TIP3    H134607   5.972   5.241   5.636
11557TIP3    H234608   6.086   5.338   5.617
11558TIP3   OH234609   5.670   4.539   5.415
11558TIP3    H134610   5.632   4.622   5.443
11558TIP3    H234611   5.597   4.490   5.376
11559TIP3   OH234612   5.745   4.859   5.654
11559TIP3    H134613   5.797   4.781   5.675
11559TIP3    H234614   5.809   4.924   5.628
11560TIP3   OH234615   6.627   5.786   5.285
11560TIP3    H134616   6.652   5.720   5.219
11560TIP3    H234617   6.629   5.739   5.368
11561TIP3   OH234618   6.506   5.263   5.604
11561TIP3    H134619   6.552   5.183   5.578
11561TIP3    H234620   6.576   5.321   5.636
11562TIP3   OH234621   7.531   4.590   5.618
11562TIP3    H134622   7.547   4.676   5.658
11562TIP3    H234623   7.562   4.599   5.528
11563TIP3   OH234624   6.910   4.754   5.641
11563TIP3    H134625   6.943   4.669   5.670
11563TIP3    H234626   6.874   4.738   5.554
11564TIP3   OH234627   6.267   4.413   5.600
11564TIP3    H134628   6.245   4.486   5.543
11564TIP3    H234629   6.211   4.341   5.570
11565TIP3   OH234630   6.961   4.514   5.235
11565TIP3    H134631   7.024   4.507   5.307
11565TIP3    H234632   7.013   4.548   5.162
11566TIP3   OH234633   5.890   4.632   5.728
11566TIP3    H134634   5.973   4.611   5.772
11566TIP3    H234635   5.892   4.581   5.647
11567TIP3   OH234636   6.310   4.828   5.545
11567TIP3    H134637   6.404   4.811   5.552
11567TIP3    H234638   6.274   4.746   5.512
11568TIP3   OH234639   7.588   4.810   5.787
11568TIP3    H134640   7.499   4.844   5.781
11568TIP3    H234641   7.621   4.845   5.870
11569TIP3   OH234642   6.245   4.418   6.052
11569TIP3    H134643   6.195   4.453   5.978
11569TIP3    H234644   6.189   4.434   6.128
11570TIP3   OH234645   6.598   5.269   5.036
11570TIP3    H134646   6.558   5.240   4.953
11570TIP3    H234647   6.546   5.344   5.063
11571TIP3   OH234648   6.341   5.191   5.815
11571TIP3    H134649   6.288   5.262   5.850
11571TIP3    H234650   6.389   5.230   5.742
11572TIP3   OH234651   7.118   4.538   5.458
11572TIP3    H134652   7.077   4.515   5.541
11572TIP3    H234653   7.175   4.611   5.478
11573TIP3   OH234654   6.137   4.523   5.820
11573TIP3    H134655   6.192   4.598   5.843
11573TIP3    H234656   6.184   4.480   5.749
11574TIP3   OH234657   6.189   5.392   5.924
11574TIP3    H134658   6.170   5.481   5.893
11574TIP3    H234659   6.114   5.371   5.981
11575TIP3   OH234660   5.559   5.091   5.175
11575TIP3    H134661   5.522   5.116   5.090
11575TIP3    H234662   5.584   5.174   5.216
11576TIP3   OH234663   7.005   5.597   5.416
11576TIP3    H134664   6.917   5.588   5.452
11576TIP3    H234665   7.004   5.681   5.369
11577TIP3   OH234666   7.333   4.481   5.790
11577TIP3    H134667   7.248   4.502   5.752
11577TIP3    H234668   7.397   4.507   5.723
11578TIP3   OH234669   6.588   4.108   5.784
11578TIP3    H134670   6.581   4.016   5.809
11578TIP3    H234671   6.512   4.150   5.823
11579TIP3   OH234672   6.711   5.634   5.066
11579TIP3    H134673   6.763   5.555   5.057
11579TIP3    H234674   6.770   5.705   5.038
11580TIP3   OH234675   6.846   5.401   5.031
11580TIP3    H134676   6.774   5.339   5.029
11580TIP3    H234677   6.897   5.377   5.108
11581TIP3   OH234678   7.238   5.485   5.760
11581TIP3    H134679   7.218   5.413   5.701
11581TIP3    H234680   7.221   5.564   5.708
11582TIP3   OH234681   6.525   4.891   5.031
11582TIP3    H134682   6.443   4.936   5.012
11582TIP3    H234683   6.573   4.892   4.948
11583TIP3   OH234684   6.495   4.699   4.724
11583TIP3    H134685   6.560   4.749   4.774
11583TIP3    H234686   6.546   4.632   4.678
11584TIP3   OH234687   7.414   5.150   5.629
11584TIP3    H134688   7.329   5.194   5.625
11584TIP3    H234689   7.451   5.163   5.542
11585TIP3   OH234690   6.885   4.981   4.989
11585TIP3    H134691   6.831   5.010   5.063
11585TIP3    H234692   6.969   4.956   5.029
11586TIP3   OH234693   7.112   5.009   5.935
11586TIP3    H134694   7.108   5.092   5.982
11586TIP3    H234695   7.030   5.005   5.885
11587TIP3   OH234696   6.112   4.962   5.394
11587TIP3    H134697   6.076   4.901   5.330
11587TIP3    H234698   6.185   4.914   5.435
11588TIP3   OH234699   6.254   5.378   5.535
11588TIP3    H134700   6.231   5.367   5.442
11588TIP3    H234701   6.341   5.340   5.542
11589TIP3   OH234702   6.210   4.955   5.769
11589TIP3    H134703   6.248   4.919   5.689
11589TIP3    H234704   6.258   5.036   5.784
11590TIP3   OH234705   6.764   5.586   5.540
11590TIP3    H134706   6.748   5.668   5.586
11590TIP3    H234707   6.748   5.517   5.605
11591TIP3   OH234708   6.383   5.495   6.093
11591TIP3    H134709   6.321   5.553   6.138
11591TIP3    H234710   6.329   5.443   6.033
11592TIP3   OH234711   6.715   4.843   4.824
11592TIP3    H134712   6.775   4.900   4.871
11592TIP3    H234713   6.744   4.847   4.733
11593TIP3   OH234714   6.144   5.037   6.240
11593TIP3    H134715   6.146   5.131   6.258
11593TIP3    H234716   6.051   5.018   6.226
11594TIP3   OH234717   6.465   5.508   5.076
11594TIP3    H134718   6.546   5.560   5.081
11594TIP3    H234719   6.403   5.565   5.030
11595TIP3   OH234720   6.173   5.655   6.176
11595TIP3    H134721   6.149   5.663   6.084
11595TIP3    H234722   6.091   5.637   6.221
11596TIP3   OH234723   7.223   4.068   4.879
11596TIP3    H134724   7.147   4.089   4.933
11596TIP3    H234725   7.235   4.145   4.823
11597TIP3   OH234726   5.985   4.804   5.193
11597TIP3    H134727   5.908   4.852   5.164
11597TIP3    H234728   5.952   4.718   5.218
11598TIP3   OH234729   7.047   5.442   4.435
11598TIP3    H134730   7.043   5.535   4.415
11598TIP3    H234731   7.137   5.416   4.413
11599TIP3   OH234732   5.767   5.205   6.117
11599TIP3    H134733   5.738   5.209   6.026
11599TIP3    H234734   5.802   5.117   6.126
11600TIP3   OH234735   5.652   5.342   5.862
11600TIP3    H134736   5.648   5.300   5.776
11600TIP3    H234737   5.588   5.413   5.857
11601TIP3   OH234738   7.467   5.863   5.819
11601TIP3    H134739   7.476   5.768   5.827
11601TIP3    H234740   7.386   5.884   5.866
11602TIP3   OH234741   6.574   5.638   5.954
11602TIP3    H134742   6.566   5.730   5.979
11602TIP3    H234743   6.505   5.593   6.004
11603TIP3   OH234744   6.352   5.732   4.907
11603TIP3    H134745   6.299   5.712   4.830
11603TIP3    H234746   6.314   5.813   4.942
11604TIP3   OH234747   5.784   5.591   5.285
11604TIP3    H134748   5.825   5.588   5.371
11604TIP3    H234749   5.732   5.511   5.280
11605TIP3   OH234750   6.553   5.666   4.532
11605TIP3    H134751   6.602   5.591   4.497
11605TIP3    H234752   6.589   5.678   4.620
11606TIP3   OH234753   6.605   5.708   4.803
11606TIP3    H134754   6.518   5.712   4.842
11606TIP3    H234755   6.660   5.670   4.871
11607TIP3   OH234756   7.353   4.964   6.098
11607TIP3    H134757   7.272   4.973   6.049
11607TIP3    H234758   7.373   4.870   6.096
11608TIP3   OH234759   5.985   5.376   6.105
11608TIP3    H134760   6.031   5.361   6.188
11608TIP3    H234761   5.905   5.324   6.112
11609TIP3   OH234762   6.351   4.201   5.909
11609TIP3    H134763   6.267   4.167   5.878
11609TIP3    H234764   6.328   4.282   5.956
11610TIP3   OH234765   6.892   4.323   6.109
11610TIP3    H134766   6.961   4.297   6.169
11610TIP3    H234767   6.811   4.306   6.157
11611TIP3   OH234768   7.116   4.744   6.023
11611TIP3    H134769   7.074   4.740   6.110
11611TIP3    H234770   7.099   4.833   5.993
11612TIP3   OH234771   6.795   4.820   4.562
11612TIP3    H134772   6.754   4.821   4.476
11612TIP3    H234773   6.877   4.868   4.550
11613TIP3   OH234774   6.478   4.239   4.858
11613TIP3    H134775   6.456   4.245   4.951
11613TIP3    H234776   6.453   4.151   4.833
11614TIP3   OH234777   6.291   4.733   5.916
11614TIP3    H134778   6.247   4.740   6.001
11614TIP3    H234779   6.270   4.814   5.871
11615TIP3   OH234780   6.169   4.613   5.440
11615TIP3    H134781   6.079   4.589   5.466
11615TIP3    H234782   6.178   4.578   5.352
11616TIP3   OH234783   6.650   4.686   5.165
11616TIP3    H134784   6.603   4.759   5.125
11616TIP3    H234785   6.709   4.655   5.096
11617TIP3   OH234786   6.834   4.954   6.235
11617TIP3    H134787   6.808   4.886   6.297
11617TIP3    H234788   6.926   4.971   6.255
11618TIP3   OH234789   6.818   4.701   5.389
11618TIP3    H134790   6.749   4.722   5.325
11618TIP3    H234791   6.865   4.628   5.350
11619TIP3   OH234792   6.133   4.748   6.140
11619TIP3    H134793   6.147   4.810   6.211
11619TIP3    H234794   6.110   4.666   6.183
11620TIP3   OH234795   6.148   4.209   4.834
11620TIP3    H134796   6.148   4.217   4.930
11620TIP3    H234797   6.074   4.261   4.805
11621TIP3   OH234798   5.712   4.267   5.719
11621TIP3    H134799   5.787   4.302   5.767
11621TIP3    H234800   5.747   4.246   5.633
11622TIP3   OH234801   5.628   4.245   5.216
11622TIP3    H134802   5.673   4.279   5.138
11622TIP3    H234803   5.565   4.314   5.239
11623TIP3   OH234804   6.861   4.955   5.816
11623TIP3    H134805   6.885   4.889   5.751
11623TIP3    H234806   6.816   4.907   5.885
11624TIP3   OH234807   6.534   4.401   5.488
11624TIP3    H134808   6.456   4.401   5.544
11624TIP3    H234809   6.607   4.392   5.549
11625TIP3   OH234810   5.930   4.488   5.497
11625TIP3    H134811   5.841   4.492   5.461
11625TIP3    H234812   5.957   4.397   5.483
11626TIP3   OH234813   6.188   4.486   5.198
11626TIP3    H134814   6.282   4.497   5.189
11626TIP3    H234815   6.153   4.504   5.111
11627TIP3   OH234816   6.979   4.491   5.698
11627TIP3    H134817   6.961   4.508   5.790
11627TIP3    H234818   6.911   4.429   5.671
11628TIP3   OH234819   6.079   4.507   4.948
11628TIP3    H134820   6.012   4.463   4.896
11628TIP3    H234821   6.130   4.556   4.885
11629TIP3   OH234822   7.182   6.193   5.916
11629TIP3    H134823   7.179   6.211   5.822
11629TIP3    H234824   7.261   6.238   5.946
11630TIP3   OH234825   6.121   5.299   6.339
11630TIP3    H134826   6.202   5.323   6.384
11630TIP3    H234827   6.052   5.312   6.404
11631TIP3   OH234828   6.583   4.773   5.596
11631TIP3    H134829   6.650   4.724   5.548
11631TIP3    H234830   6.580   4.732   5.682
11632TIP3   OH234831   6.074   4.239   5.488
11632TIP3    H134832   6.045   4.164   5.540
11632TIP3    H234833   6.099   4.201   5.404
11633TIP3   OH234834   6.557   4.675   5.859
11633TIP3    H134835   6.470   4.706   5.883
11633TIP3    H234836   6.617   4.726   5.913
11634TIP3   OH234837   6.290   5.028   4.973
11634TIP3    H134838   6.215   4.975   4.949
11634TIP3    H234839   6.264   5.072   5.054
11635TIP3   OH234840   7.179   5.286   5.580
11635TIP3    H134841   7.215   5.335   5.506
11635TIP3    H234842   7.100   5.244   5.545
11636TIP3   OH234843   6.739   4.346   4.878
11636TIP3    H134844   6.645   4.330   4.871
11636TIP3    H234845   6.746   4.441   4.892
11637TIP3   OH234846   6.695   5.369   5.992
11637TIP3    H134847   6.746   5.360   6.072
11637TIP3    H234848   6.657   5.457   5.997
11638TIP3   OH234849   6.812   4.608   4.947
11638TIP3    H134850   6.907   4.611   4.960
11638TIP3    H234851   6.792   4.688   4.898
11639TIP3   OH234852   5.976   5.042   5.624
11639TIP3    H134853   6.014   5.026   5.538
11639TIP3    H234854   6.044   5.013   5.685
11640TIP3   OH234855   6.442   5.190   4.812
11640TIP3    H134856   6.394   5.273   4.813
11640TIP3    H234857   6.388   5.132   4.866
11641TIP3   OH234858   5.871   4.976   6.263
11641TIP3    H134859   5.883   4.962   6.357
11641TIP3    H234860   5.792   4.926   6.242
11642TIP3   OH234861   6.603   5.110   6.273
11642TIP3    H134862   6.535   5.049   6.244
11642TIP3    H234863   6.685   5.069   6.245
11643TIP3   OH234864   6.843   5.653   5.875
11643TIP3    H134865   6.748   5.640   5.878
11643TIP3    H234866   6.864   5.695   5.958
11644TIP3   OH234867   7.227   4.698   4.766
11644TIP3    H134868   7.171   4.651   4.704
11644TIP3    H234869   7.233   4.786   4.732
11645TIP3   OH234870   7.482   5.587   5.840
11645TIP3    H134871   7.390   5.563   5.843
11645TIP3    H234872   7.514   5.550   5.758
11646TIP3   OH234873   6.966   5.513   4.700
11646TIP3    H134874   6.941   5.442   4.760
11646TIP3    H234875   6.986   5.468   4.618
11647TIP3   OH234876   6.951   5.149   5.477
11647TIP3    H134877   6.861   5.128   5.502
11647TIP3    H234878   6.985   5.069   5.440
11648TIP3   OH234879   6.102   5.389   5.293
11648TIP3    H134880   6.097   5.465   5.236
11648TIP3    H234881   6.017   5.384   5.336
11649TIP3   OH234882   5.664   4.668   5.008
11649TIP3    H134883   5.708   4.751   5.028
11649TIP3    H234884   5.583   4.670   5.059
11650TIP3   OH234885   6.187   5.144   5.195
11650TIP3    H134886   6.168   5.233   5.225
11650TIP3    H234887   6.163   5.088   5.269
11651TIP3   OH234888   6.386   5.710   5.749
11651TIP3    H134889   6.421   5.785   5.702
11651TIP3    H234890   6.461   5.674   5.796
11652TIP3   OH234891   6.018   5.614   5.141
11652TIP3    H134892   5.931   5.615   5.182
11652TIP3    H234893   6.046   5.706   5.143
11653TIP3   OH234894   6.738   5.370   5.719
11653TIP3    H134895   6.724   5.366   5.814
11653TIP3    H234896   6.817   5.317   5.704
11654TIP3   OH234897   6.729   5.251   4.591
11654TIP3    H134898   6.784   5.224   4.665
11654TIP3    H234899   6.643   5.214   4.612
11655TIP3   OH234900   6.985   5.875   5.761
11655TIP3    H134901   6.916   5.810   5.772
11655TIP3    H234902   6.958   5.929   5.687
11656TIP3   OH234903   7.046   5.715   4.393
11656TIP3    H134904   7.065   5.774   4.321
11656TIP3    H234905   6.976   5.757   4.442
11657TIP3   OH234906   6.069   4.497   6.257
11657TIP3    H134907   5.974   4.507   6.260
11657TIP3    H234908   6.090   4.438   6.330
11658TIP3   OH234909   6.909   5.164   4.778
11658TIP3    H134910   6.894   5.111   4.857
11658TIP3    H234911   7.005   5.172   4.773
11659TIP3   OH234912   5.798   5.600   5.907
11659TIP3    H134913   5.792   5.505   5.916
11659TIP3    H234914   5.880   5.623   5.950
11660TIP3   OH234915   6.079   5.219   4.604
11660TIP3    H134916   6.089   5.127   4.577
11660TIP3    H234917   6.066   5.214   4.699
11661TIP3   OH234918   6.024   5.236   4.876
11661TIP3    H134919   6.083   5.210   4.947
11661TIP3    H234920   6.023   5.331   4.880
11662TIP3   OH234921   5.758   4.921   5.083
11662TIP3    H134922   5.692   4.967   5.135
11662TIP3    H234923   5.777   4.980   5.010
11663TIP3   OH234924   6.923   4.553   5.960
11663TIP3    H134925   7.001   4.597   5.992
11663TIP3    H234926   6.914   4.476   6.016
11664TIP3   OH234927   6.812   4.296   5.145
11664TIP3    H134928   6.790   4.316   5.054
11664TIP3    H234929   6.856   4.376   5.176
11665TIP3   OH234930   6.296   5.418   4.811
11665TIP3    H134931   6.211   5.442   4.850
11665TIP3    H234932   6.317   5.491   4.753
11666TIP3   OH234933   6.466   4.494   5.235
11666TIP3    H134934   6.528   4.563   5.211
11666TIP3    H234935   6.488   4.473   5.326
11667TIP3   OH234936   6.762   4.788   6.011
11667TIP3    H134937   6.787   4.832   6.093
11667TIP3    H234938   6.812   4.707   6.011
11668TIP3   OH234939   6.627   4.191   5.323
11668TIP3    H134940   6.604   4.268   5.375
11668TIP3    H234941   6.697   4.222   5.265
11669TIP3   OH234942   6.047   5.510   4.889
11669TIP3    H134943   6.028   5.583   4.831
11669TIP3    H234944   6.035   5.545   4.977
11670TIP3   OH234945   6.146   4.217   5.116
11670TIP3    H134946   6.134   4.305   5.152
11670TIP3    H234947   6.240   4.200   5.124
11671TIP3   OH234948   7.380   4.688   6.005
11671TIP3    H134949   7.285   4.698   6.017
11671TIP3    H234950   7.389   4.629   5.931
11672TIP3   OH234951   7.042   4.892   5.390
11672TIP3    H134952   6.965   4.836   5.401
11672TIP3    H234953   7.109   4.852   5.445
11673TIP3   OH234954   5.781   5.099   4.868
11673TIP3    H134955   5.851   5.163   4.877
11673TIP3    H234956   5.813   5.037   4.802
11674TIP3   OH234957   5.684   4.391   4.984
11674TIP3    H134958   5.694   4.484   5.000
11674TIP3    H234959   5.599   4.383   4.940
11675TIP3   OH234960   7.026   5.863   5.331
11675TIP3    H134961   6.986   5.918   5.264
11675TIP3    H234962   7.120   5.873   5.319
11676TIP3   OH234963   6.089   4.113   5.871
11676TIP3    H134964   6.060   4.080   5.786
11676TIP3    H234965   6.081   4.039   5.930
11677TIP3   OH234966   5.617   5.354   5.259
11677TIP3    H134967   5.577   5.389   5.338
11677TIP3    H234968   5.575   5.401   5.187
11678TIP3   OH234969   5.810   5.906   6.333
11678TIP3    H134970   5.894   5.909   6.380
11678TIP3    H234971   5.795   5.813   6.317
11679TIP3   OH234972   6.282   5.813   6.373
11679TIP3    H134973   6.374   5.788   6.376
11679TIP3    H234974   6.245   5.762   6.301
11680TIP3   OH234975   6.247   5.403   4.488
11680TIP3    H134976   6.193   5.340   4.536
11680TIP3    H234977   6.322   5.351   4.457
11681TIP3   OH234978   6.892   5.760   6.123
11681TIP3    H134979   6.908   5.687   6.182
11681TIP3    H234980   6.967   5.818   6.135
11682TIP3   OH234981   6.676   5.452   4.412
11682TIP3    H134982   6.708   5.389   4.476
11682TIP3    H234983   6.738   5.447   4.339
11683TIP3   OH234984   5.912   5.302   6.524
11683TIP3    H134985   5.933   5.209   6.530
11683TIP3    H234986   5.827   5.304   6.480
11684TIP3   OH234987   5.906   4.909   4.715
11684TIP3    H134988   5.958   4.887   4.793
11684TIP3    H234989   5.971   4.926   4.647
11685TIP3   OH234990   6.538   5.386   6.293
11685TIP3    H134991   6.493   5.407   6.211
11685TIP3    H234992   6.572   5.297   6.279
11686TIP3   OH234993   6.452   5.142   4.541
11686TIP3    H134994   6.439   5.153   4.636
11686TIP3    H234995   6.443   5.048   4.527
11687TIP3   OH234996   7.012   5.430   5.913
11687TIP3    H134997   7.089   5.457   5.864
11687TIP3    H234998   6.947   5.499   5.895
11688TIP3   OH234999   6.026   5.046   6.517
11688TIP3    H135000   6.100   5.035   6.458
11688TIP3    H235001   6.066   5.062   6.603
11689TIP3   OH235002   6.079   4.853   4.928
11689TIP3    H135003   6.057   4.826   5.017
11689TIP3    H235004   6.129   4.779   4.892
11690TIP3   OH235005   6.399   4.931   6.184
11690TIP3    H135006   6.313   4.973   6.195
11690TIP3    H235007   6.428   4.960   6.098
11691TIP3   OH235008   6.223   4.665   4.778
11691TIP3    H135009   6.194   4.675   4.687
11691TIP3    H235010   6.318   4.674   4.774
11692TIP3   OH235011   6.899   5.297   6.277
11692TIP3    H135012   6.963   5.254   6.219
11692TIP3    H235013   6.895   5.240   6.354
11693TIP3   OH235014   7.013   4.957   4.457
11693TIP3    H135015   7.002   4.916   4.371
11693TIP3    H235016   6.987   5.048   4.443
11694TIP3   OH235017   6.497   4.700   6.293
11694TIP3    H135018   6.500   4.629   6.229
11694TIP3    H235019   6.465   4.775   6.244
11695TIP3   OH235020   6.505   4.502   6.089
11695TIP3    H135021   6.533   4.538   6.005
11695TIP3    H235022   6.414   4.476   6.075
11696TIP3   OH235023   6.512   5.032   5.959
11696TIP3    H135024   6.599   5.068   5.947
11696TIP3    H235025   6.455   5.090   5.909
11697TIP3   OH235026   7.103   4.989   6.332
11697TIP3    H135027   7.139   4.900   6.340
11697TIP3    H235028   7.180   5.044   6.316
11698TIP3   OH235029   7.132   5.251   6.078
11698TIP3    H135030   7.078   5.313   6.029
11698TIP3    H235031   7.220   5.265   6.045
11699TIP3   OH235032   6.379   4.783   6.535
11699TIP3    H135033   6.312   4.717   6.553
11699TIP3    H235034   6.410   4.762   6.447
11700TIP3   OH235035   6.627   4.271   6.190
11700TIP3    H135036   6.586   4.351   6.157
11700TIP3    H235037   6.561   4.203   6.176
11701TIP3   OH235038   6.755   4.743   6.391
11701TIP3    H135039   6.747   4.730   6.486
11701TIP3    H235040   6.668   4.720   6.356
11702TIP3   OH235041   6.999   4.700   6.261
11702TIP3    H135042   6.921   4.698   6.317
11702TIP3    H235043   7.069   4.669   6.318
11703TIP3   OH235044   7.235   4.653   6.400
11703TIP3    H135045   7.249   4.559   6.412
11703TIP3    H235046   7.228   4.687   6.489
11704TIP3   OH235047   6.215   4.563   6.598
11704TIP3    H135048   6.221   4.476   6.558
11704TIP3    H235049   6.256   4.553   6.684
11705TIP3   OH235050   6.692   4.246   6.455
11705TIP3    H135051   6.761   4.180   6.449
11705TIP3    H235052   6.662   4.258   6.365
11706TIP3   OH235053   6.789   4.461   6.598
11706TIP3    H135054   6.758   4.388   6.544
11706TIP3    H235055   6.717   4.524   6.597
11707TIP3   OH235056   6.055   5.730   4.712
11707TIP3    H135057   6.138   5.697   4.677
11707TIP3    H235058   6.011   5.767   4.636
11708TIP3   OH235059   5.507   5.101   4.874
11708TIP3    H135060   5.602   5.110   4.877
11708TIP3    H235061   5.492   5.014   4.836
11709TIP3   OH235062   5.399   5.682   5.330
11709TIP3    H135063   5.335   5.626   5.287
11709TIP3    H235064   5.452   5.623   5.383
11710TIP3   OH235065   5.549   5.514   5.483
11710TIP3    H135066   5.495   5.447   5.525
11710TIP3    H235067   5.592   5.560   5.555
11711TIP3   OH235068   7.296   5.912   5.320
11711TIP3    H135069   7.311   5.946   5.408
11711TIP3    H235070   7.347   5.970   5.264
11712TIP3   OH235071   7.300   5.952   5.599
11712TIP3    H135072   7.254   5.868   5.597
11712TIP3    H235073   7.374   5.937   5.658
11713TIP3   OH235074   7.365   5.645   6.175
11713TIP3    H135075   7.292   5.654   6.235
11713TIP3    H235076   7.409   5.730   6.177
11714TIP3   OH235077   7.189   5.164   4.782
11714TIP3    H135078   7.246   5.235   4.753
11714TIP3    H235079   7.233   5.126   4.858
11715TIP3   OH235080   7.316   5.022   4.984
11715TIP3    H135081   7.249   4.984   5.042
11715TIP3    H235082   7.380   5.059   5.044
11716TIP3   OH235083   7.360   5.424   5.418
11716TIP3    H135084   7.412   5.355   5.376
11716TIP3    H235085   7.363   5.497   5.356
11717TIP3   OH235086   7.164   5.709   5.616
11717TIP3    H135087   7.094   5.754   5.664
11717TIP3    H235088   7.119   5.668   5.542
11718TIP3   OH235089   7.224   4.937   4.631
11718TIP3    H135090   7.151   4.937   4.568
11718TIP3    H235091   7.210   5.016   4.684
11719TIP3   OH235092   7.074   4.582   4.571
11719TIP3    H135093   7.025   4.616   4.496
11719TIP3    H235094   7.071   4.487   4.560
11720TIP3   OH235095   7.112   4.883   5.121
11720TIP3    H135096   7.117   4.789   5.108
11720TIP3    H235097   7.093   4.893   5.214
11721TIP3   OH235098   5.734   4.914   5.926
11721TIP3    H135099   5.716   4.911   5.832
11721TIP3    H235100   5.829   4.921   5.933
11722TIP3   OH235101   7.385   5.295   5.973
11722TIP3    H135102   7.452   5.229   5.957
11722TIP3    H235103   7.384   5.348   5.893
11723TIP3   OH235104   7.563   5.086   5.971
11723TIP3    H135105   7.491   5.044   6.017
11723TIP3    H235106   7.640   5.034   5.994
11724TIP3   OH235107   7.040   4.308   4.538
11724TIP3    H135108   7.103   4.286   4.606
11724TIP3    H235109   6.957   4.275   4.570
11725TIP3   OH235110   7.103   4.604   5.005
11725TIP3    H135111   7.149   4.521   5.018
11725TIP3    H235112   7.145   4.643   4.929
11726TIP3   OH235113   7.256   4.770   5.530
11726TIP3    H135114   7.337   4.787   5.482
11726TIP3    H235115   7.270   4.809   5.616
11727TIP3   OH235116   7.329   4.920   5.757
11727TIP3    H135117   7.256   4.949   5.813
11727TIP3    H235118   7.360   5.000   5.716
11728TIP3   OH235119   5.950   4.623   6.551
11728TIP3    H135120   6.044   4.616   6.563
11728TIP3    H235121   5.915   4.541   6.585
11729TIP3   OH235122   7.790   4.519   6.295
11729TIP3    H135123   7.855   4.461   6.255
11729TIP3    H235124   7.753   4.568   6.222
11730TIP3   OH235125   7.219   4.355   5.058
11730TIP3    H135126   7.265   4.341   5.140
11730TIP3    H235127   7.157   4.283   5.052
11731TIP3   OH235128   5.926   4.339   5.884
11731TIP3    H135129   5.980   4.260   5.891
11731TIP3    H235130   5.989   4.409   5.866
11732TIP3   OH235131   5.703   4.616   5.942
11732TIP3    H135132   5.758   4.596   5.866
11732TIP3    H235133   5.714   4.710   5.956
11733TIP3   OH235134   7.643   4.631   6.094
11733TIP3    H135135   7.558   4.670   6.116
11733TIP3    H235136   7.621   4.554   6.042
11734TIP3   OH235137   7.265   4.270   4.697
11734TIP3    H135138   7.312   4.209   4.641
11734TIP3    H235139   7.321   4.347   4.702
11735TIP3   OH235140   5.693   4.123   5.454
11735TIP3    H135141   5.607   4.107   5.491
11735TIP3    H235142   5.676   4.173   5.374
11736TIP3   OH235143   6.854   5.839   4.964
11736TIP3    H135144   6.906   5.822   4.885
11736TIP3    H235145   6.906   5.903   5.013
11737TIP3   OH235146   5.919   4.173   6.277
11737TIP3    H135147   5.864   4.159   6.353
11737TIP3    H235148   5.863   4.219   6.215
11738TIP3   OH235149   5.950   5.624   6.341
11738TIP3    H135150   5.857   5.602   6.334
11738TIP3    H235151   5.969   5.619   6.435
11739TIP3   OH235152   6.155   5.666   5.895
11739TIP3    H135153   6.097   5.730   5.854
11739TIP3    H235154   6.240   5.679   5.852
11740TIP3   OH235155   6.560   5.911   6.019
11740TIP3    H135156   6.593   5.905   6.109
11740TIP3    H235157   6.629   5.956   5.971
11741TIP3   OH235158   6.783   6.036   5.915
11741TIP3    H135159   6.854   5.988   5.873
11741TIP3    H235160   6.826   6.106   5.964
11742TIP3   OH235161   7.554   4.380   5.996
11742TIP3    H135162   7.466   4.367   5.961
11742TIP3    H235163   7.596   4.294   5.990
11743TIP3   OH235164   5.826   5.957   5.933
11743TIP3    H135165   5.732   5.964   5.917
11743TIP3    H235166   5.843   6.017   6.006
11744TIP3   OH235167   6.022   5.863   5.771
11744TIP3    H135168   5.950   5.898   5.824
11744TIP3    H235169   6.019   5.913   5.689
11745TIP3   OH235170   6.461   5.932   5.594
11745TIP3    H135171   6.396   5.920   5.525
11745TIP3    H235172   6.447   6.021   5.626
11746TIP3   OH235173   6.724   5.846   5.621
11746TIP3    H135174   6.633   5.876   5.613
11746TIP3    H235175   6.776   5.916   5.582
11747TIP3   OH235176   6.925   6.024   5.532
11747TIP3    H135177   6.926   6.112   5.493
11747TIP3    H235178   6.959   5.967   5.462
11748TIP3   OH235179   5.717   5.685   5.659
11748TIP3    H135180   5.747   5.670   5.749
11748TIP3    H235181   5.788   5.654   5.603
11749TIP3   OH235182   5.927   5.578   5.520
11749TIP3    H135183   5.940   5.494   5.564
11749TIP3    H235184   6.012   5.621   5.527
11750TIP3   OH235185   6.200   5.654   5.542
11750TIP3    H135186   6.220   5.561   5.531
11750TIP3    H235187   6.250   5.681   5.620
11751TIP3   OH235188   6.762   4.309   5.628
11751TIP3    H135189   6.723   4.238   5.678
11751TIP3    H235190   6.830   4.267   5.575
11752TIP3   OH235191   7.264   4.226   5.517
11752TIP3    H135192   7.301   4.275   5.443
11752TIP3    H235193   7.171   4.251   5.517
11753TIP3   OH235194   7.377   4.303   5.279
11753TIP3    H135195   7.446   4.242   5.253
11753TIP3    H235196   7.416   4.390   5.265
11754TIP3   OH235197   6.003   4.011   5.629
11754TIP3    H135198   5.913   3.977   5.639
11754TIP3    H235199   6.057   3.932   5.620
11755TIP3   OH235200   5.827   3.930   5.291
11755TIP3    H135201   5.846   3.981   5.212
11755TIP3    H235202   5.787   3.994   5.351
11756TIP3   OH235203   6.481   4.050   5.522
11756TIP3    H135204   6.530   4.097   5.455
11756TIP3    H235205   6.521   4.077   5.605
11757TIP3   OH235206   6.975   4.190   5.497
11757TIP3    H135207   6.996   4.153   5.411
11757TIP3    H235208   6.981   4.115   5.557
11758TIP3   OH235209   7.033   4.145   5.063
11758TIP3    H135210   6.953   4.192   5.089
11758TIP3    H235211   7.024   4.058   5.103
11759TIP3   OH235212   5.502   5.488   5.051
11759TIP3    H135213   5.417   5.454   5.022
11759TIP3    H235214   5.504   5.578   5.019
11760TIP3   OH235215   5.925   4.059   5.046
11760TIP3    H135216   5.968   3.989   4.998
11760TIP3    H235217   5.997   4.113   5.079
11761TIP3   OH235218   6.423   4.244   5.129
11761TIP3    H135219   6.479   4.191   5.186
11761TIP3    H235220   6.436   4.334   5.160
11762TIP3   OH235221   6.298   5.632   4.629
11762TIP3    H135222   6.382   5.662   4.594
11762TIP3    H235223   6.272   5.560   4.572
11763TIP3   OH235224   7.001   5.781   4.736
11763TIP3    H135225   6.994   5.686   4.728
11763TIP3    H235226   6.959   5.815   4.656
11764TIP3   OH235227   6.230   4.293   6.512
11764TIP3    H135228   6.195   4.226   6.571
11764TIP3    H235229   6.322   4.300   6.536
11765TIP3   OH235230   6.477   4.297   6.633
11765TIP3    H135231   6.554   4.276   6.580
11765TIP3    H235232   6.474   4.227   6.698
11766TIP3   OH235233   5.601   5.485   4.693
11766TIP3    H135234   5.600   5.495   4.788
11766TIP3    H235235   5.683   5.439   4.675
11767TIP3   OH235236   7.299   4.384   6.417
11767TIP3    H135237   7.315   4.356   6.507
11767TIP3    H235238   7.385   4.380   6.375
11768TIP3   OH235239   7.216   5.920   5.917
11768TIP3    H135240   7.139   5.891   5.867
11768TIP3    H235241   7.204   6.014   5.927
11769TIP3   OH235242   8.490   5.323   4.673
11769TIP3    H135243   8.454   5.408   4.647
11769TIP3    H235244   8.421   5.260   4.649
11770TIP3   OH235245   8.434   5.295   5.071
11770TIP3    H135246   8.480   5.285   5.154
11770TIP3    H235247   8.390   5.212   5.057
11771TIP3   OH235248   7.787   5.165   5.434
11771TIP3    H135249   7.824   5.112   5.504
11771TIP3    H235250   7.862   5.191   5.381
11772TIP3   OH235251   7.775   5.590   5.124
11772TIP3    H135252   7.758   5.496   5.129
11772TIP3    H235253   7.869   5.597   5.111
11773TIP3   OH235254   7.463   4.795   4.902
11773TIP3    H135255   7.425   4.879   4.927
11773TIP3    H235256   7.390   4.747   4.863
11774TIP3   OH235257   7.543   5.109   5.126
11774TIP3    H135258   7.593   5.031   5.150
11774TIP3    H235259   7.610   5.173   5.102
11775TIP3   OH235260   8.409   6.047   4.782
11775TIP3    H135261   8.444   5.969   4.737
11775TIP3    H235262   8.440   6.037   4.873
11776TIP3   OH235263   8.276   5.528   5.074
11776TIP3    H135264   8.319   5.445   5.052
11776TIP3    H235265   8.348   5.587   5.097
11777TIP3   OH235266   0.175   5.036   5.096
11777TIP3    H135267   0.176   4.959   5.153
11777TIP3    H235268   0.108   5.016   5.031
11778TIP3   OH235269   8.031   4.672   5.096
11778TIP3    H135270   8.011   4.743   5.034
11778TIP3    H235271   7.984   4.596   5.062
11779TIP3   OH235272   0.193   4.784   4.724
11779TIP3    H135273   0.236   4.731   4.791
11779TIP3    H235274   0.216   4.874   4.747
11780TIP3   OH235275   7.677   4.884   5.215
11780TIP3    H135276   7.759   4.863   5.261
11780TIP3    H235277   7.681   4.830   5.135
11781TIP3   OH235278   8.086   5.082   5.035
11781TIP3    H135279   8.180   5.064   5.046
11781TIP3    H235280   8.050   5.001   4.999
11782TIP3   OH235281   8.029   4.678   5.547
11782TIP3    H135282   7.978   4.712   5.473
11782TIP3    H235283   7.974   4.695   5.623
11783TIP3   OH235284   8.386   5.544   4.548
11783TIP3    H135285   8.352   5.511   4.465
11783TIP3    H235286   8.333   5.621   4.567
11784TIP3   OH235287   8.129   5.456   5.295
11784TIP3    H135288   8.073   5.526   5.330
11784TIP3    H235289   8.172   5.495   5.219
11785TIP3   OH235290   7.916   4.780   5.318
11785TIP3    H135291   7.971   4.856   5.337
11785TIP3    H235292   7.959   4.737   5.244
11786TIP3   OH235293   7.969   5.652   5.403
11786TIP3    H135294   7.959   5.743   5.374
11786TIP3    H235295   7.890   5.635   5.454
11787TIP3   OH235296   7.358   5.355   4.665
11787TIP3    H135297   7.323   5.374   4.578
11787TIP3    H235298   7.381   5.441   4.701
11788TIP3   OH235299   0.262   5.835   4.802
11788TIP3    H135300   0.187   5.829   4.861
11788TIP3    H235301   0.285   5.928   4.803
11789TIP3   OH235302   8.333   4.357   5.247
11789TIP3    H135303   8.332   4.269   5.286
11789TIP3    H235304   8.265   4.405   5.294
11790TIP3   OH235305   0.013   5.889   4.572
11790TIP3    H135306   0.069   5.812   4.583
11790TIP3    H235307   0.073   5.959   4.547
11791TIP3   OH235308   0.157   5.641   4.592
11791TIP3    H135309   0.148   5.608   4.503
11791TIP3    H235310   0.081   5.604   4.639
11792TIP3   OH235311   0.652   5.787   5.189
11792TIP3    H135312   0.675   5.700   5.223
11792TIP3    H235313   0.631   5.838   5.267
11793TIP3   OH235314   8.298   5.175   4.530
11793TIP3    H135315   8.215   5.220   4.512
11793TIP3    H235316   8.335   5.157   4.443
11794TIP3   OH235317   8.255   4.928   4.247
11794TIP3    H135318   8.323   4.974   4.296
11794TIP3    H235319   8.303   4.870   4.188
11795TIP3   OH235320   0.144   5.245   4.457
11795TIP3    H135321   0.095   5.294   4.523
11795TIP3    H235322   0.197   5.183   4.506
11796TIP3   OH235323   0.314   5.251   5.501
11796TIP3    H135324   0.366   5.326   5.529
11796TIP3    H235325   0.239   5.290   5.455
11797TIP3   OH235326   7.897   5.218   4.883
11797TIP3    H135327   7.862   5.158   4.817
11797TIP3    H235328   7.969   5.169   4.925
11798TIP3   OH235329   8.030   5.644   5.020
11798TIP3    H135330   8.006   5.632   4.928
11798TIP3    H235331   8.118   5.606   5.027
11799TIP3   OH235332   7.999   5.217   5.260
11799TIP3    H135333   8.034   5.179   5.179
11799TIP3    H235334   8.048   5.298   5.271
11800TIP3   OH235335   0.049   5.826   4.966
11800TIP3    H135336   0.034   5.910   5.009
11800TIP3    H235337   0.034   5.761   5.035
11801TIP3   OH235338   8.158   5.730   5.587
11801TIP3    H135339   8.103   5.795   5.630
11801TIP3    H235340   8.100   5.688   5.523
11802TIP3   OH235341  -0.030   5.078   4.334
11802TIP3    H135342   0.023   5.141   4.382
11802TIP3    H235343   0.010   5.074   4.247
11803TIP3   OH235344   7.932   5.300   5.716
11803TIP3    H135345   7.936   5.394   5.735
11803TIP3    H235346   7.838   5.282   5.708
11804TIP3   OH235347   8.254   5.784   4.566
11804TIP3    H135348   8.334   5.835   4.580
11804TIP3    H235349   8.197   5.842   4.516
11805TIP3   OH235350   7.967   5.912   5.664
11805TIP3    H135351   7.943   5.921   5.572
11805TIP3    H235352   7.885   5.886   5.707
11806TIP3   OH235353   7.778   5.058   4.683
11806TIP3    H135354   7.699   5.103   4.653
11806TIP3    H235355   7.749   4.968   4.699
11807TIP3   OH235356   0.458   5.729   3.838
11807TIP3    H135357   0.369   5.762   3.853
11807TIP3    H235358   0.451   5.677   3.758
11808TIP3   OH235359   7.562   5.464   5.611
11808TIP3    H135360   7.493   5.445   5.548
11808TIP3    H235361   7.597   5.378   5.635
11809TIP3   OH235362   7.409   5.658   5.264
11809TIP3    H135363   7.502   5.678   5.276
11809TIP3    H235364   7.363   5.736   5.294
11810TIP3   OH235365   8.347   5.885   5.456
11810TIP3    H135366   8.382   5.944   5.523
11810TIP3    H235367   8.277   5.837   5.501
11811TIP3   OH235368   8.149   5.995   4.388
11811TIP3    H135369   8.097   5.977   4.310
11811TIP3    H235370   8.117   6.079   4.419
11812TIP3   OH235371   7.580   5.848   4.773
11812TIP3    H135372   7.625   5.839   4.857
11812TIP3    H235373   7.531   5.765   4.763
11813TIP3   OH235374   8.322   5.963   4.042
11813TIP3    H135375   8.352   5.882   3.999
11813TIP3    H235376   8.375   5.969   4.121
11814TIP3   OH235377   8.411   5.959   4.314
11814TIP3    H135378   8.317   5.965   4.334
11814TIP3    H235379   8.453   5.952   4.400
11815TIP3   OH235380   7.756   5.657   5.578
11815TIP3    H135381   7.805   5.647   5.660
11815TIP3    H235382   7.686   5.592   5.584
11816TIP3   OH235383   8.124   4.462   5.400
11816TIP3    H135384   8.040   4.430   5.368
11816TIP3    H235385   8.103   4.542   5.448
11817TIP3   OH235386   0.094   4.654   5.674
11817TIP3    H135387   0.151   4.587   5.711
11817TIP3    H235388   0.006   4.624   5.693
11818TIP3   OH235389   0.536   5.101   5.595
11818TIP3    H135390   0.493   5.104   5.681
11818TIP3    H235391   0.485   5.161   5.541
11819TIP3   OH235392   0.121   5.103   4.119
11819TIP3    H135393   0.103   5.080   4.028
11819TIP3    H235394   0.209   5.141   4.116
11820TIP3   OH235395   8.252   4.503   4.362
11820TIP3    H135396   8.228   4.506   4.455
11820TIP3    H235397   8.228   4.414   4.335
11821TIP3   OH235398   8.070   4.991   5.403
11821TIP3    H135399   8.028   5.000   5.489
11821TIP3    H235400   8.051   5.073   5.358
11822TIP3   OH235401   7.949   4.871   4.925
11822TIP3    H135402   7.860   4.844   4.949
11822TIP3    H235403   7.961   4.838   4.836
11823TIP3   OH235404   8.407   4.955   4.653
11823TIP3    H135405   8.367   5.031   4.611
11823TIP3    H235406   8.465   4.918   4.586
11824TIP3   OH235407   0.100   5.217   5.721
11824TIP3    H135408   0.103   5.150   5.789
11824TIP3    H235409   0.166   5.281   5.748
11825TIP3   OH235410   0.021   4.934   4.898
11825TIP3    H135411  -0.023   4.961   4.818
11825TIP3    H235412   0.059   4.849   4.876
11826TIP3   OH235413   7.912   5.005   5.629
11826TIP3    H135414   7.927   5.069   5.698
11826TIP3    H235415   7.894   4.923   5.675
11827TIP3   OH235416   7.940   4.466   4.338
11827TIP3    H135417   7.934   4.476   4.433
11827TIP3    H235418   7.869   4.520   4.303
11828TIP3   OH235419   7.508   4.525   5.202
11828TIP3    H135420   7.578   4.562   5.257
11828TIP3    H235421   7.551   4.506   5.118
11829TIP3   OH235422   7.418   4.502   4.709
11829TIP3    H135423   7.464   4.537   4.633
11829TIP3    H235424   7.355   4.570   4.733
11830TIP3   OH235425   0.078   5.219   5.287
11830TIP3    H135426   0.125   5.158   5.231
11830TIP3    H235427   0.054   5.167   5.364
11831TIP3   OH235428   8.276   4.746   4.990
11831TIP3    H135429   8.204   4.713   5.045
11831TIP3    H235430   8.353   4.697   5.020
11832TIP3   OH235431   7.718   4.736   4.987
11832TIP3    H135432   7.631   4.743   4.948
11832TIP3    H235433   7.747   4.648   4.967
11833TIP3   OH235434   7.956   4.746   4.681
11833TIP3    H135435   8.051   4.752   4.672
11833TIP3    H235436   7.922   4.760   4.593
11834TIP3   OH235437   0.146   4.786   5.202
11834TIP3    H135438   0.126   4.799   5.295
11834TIP3    H235439   0.240   4.765   5.200
11835TIP3   OH235440   7.846   4.763   4.433
11835TIP3    H135441   7.782   4.714   4.380
11835TIP3    H235442   7.896   4.813   4.369
11836TIP3   OH235443   7.919   5.565   5.810
11836TIP3    H135444   7.996   5.597   5.855
11836TIP3    H235445   7.848   5.573   5.874
11837TIP3   OH235446   8.349   5.029   5.094
11837TIP3    H135447   8.390   4.972   5.029
11837TIP3    H235448   8.350   4.979   5.175
11838TIP3   OH235449   7.862   4.489   4.968
11838TIP3    H135450   7.836   4.413   5.020
11838TIP3    H235451   7.897   4.452   4.887
11839TIP3   OH235452   8.330   4.924   5.354
11839TIP3    H135453   8.239   4.951   5.368
11839TIP3    H235454   8.382   4.987   5.403
11840TIP3   OH235455   8.061   5.303   4.457
11840TIP3    H135456   7.991   5.241   4.437
11840TIP3    H235457   8.040   5.336   4.544
11841TIP3   OH235458   0.407   5.583   5.205
11841TIP3    H135459   0.383   5.665   5.163
11841TIP3    H235460   0.420   5.521   5.133
11842TIP3   OH235461   8.485   4.628   4.311
11842TIP3    H135462   8.398   4.598   4.336
11842TIP3    H235463   8.502   4.704   4.366
11843TIP3   OH235464   8.498   5.652   5.443
11843TIP3    H135465   8.476   5.624   5.532
11843TIP3    H235466   8.456   5.737   5.433
11844TIP3   OH235467   0.065   4.851   4.448
11844TIP3    H135468   0.157   4.863   4.472
11844TIP3    H235469   0.043   4.929   4.397
11845TIP3   OH235470   7.767   5.300   5.112
11845TIP3    H135471   7.805   5.283   5.026
11845TIP3    H235472   7.835   5.272   5.174
11846TIP3   OH235473   8.235   5.465   4.323
11846TIP3    H135474   8.185   5.547   4.319
11846TIP3    H235475   8.176   5.404   4.367
11847TIP3   OH235476   7.660   5.235   5.743
11847TIP3    H135477   7.670   5.216   5.836
11847TIP3    H235478   7.585   5.182   5.716
11848TIP3   OH235479   8.364   5.347   5.764
11848TIP3    H135480   8.293   5.291   5.733
11848TIP3    H235481   8.444   5.308   5.728
11849TIP3   OH235482   0.358   5.624   4.166
11849TIP3    H135483   0.313   5.707   4.154
11849TIP3    H235484   0.372   5.591   4.077
11850TIP3   OH235485   0.170   5.452   5.063
11850TIP3    H135486   0.086   5.407   5.050
11850TIP3    H235487   0.228   5.413   4.998
11851TIP3   OH235488   7.894   5.643   4.777
11851TIP3    H135489   7.894   5.719   4.719
11851TIP3    H235490   7.803   5.633   4.804
11852TIP3   OH235491   7.461   4.928   4.490
11852TIP3    H135492   7.504   5.010   4.512
11852TIP3    H235493   7.381   4.927   4.542
11853TIP3   OH235494   7.991   5.399   4.696
11853TIP3    H135495   7.969   5.488   4.723
11853TIP3    H235496   7.961   5.344   4.769
11854TIP3   OH235497   8.183   5.967   5.233
11854TIP3    H135498   8.218   6.038   5.179
11854TIP3    H235499   8.257   5.938   5.286
11855TIP3   OH235500   7.813   5.865   4.627
11855TIP3    H135501   7.726   5.872   4.668
11855TIP3    H235502   7.848   5.954   4.629
11856TIP3   OH235503   0.008   5.642   5.167
11856TIP3    H135504   0.011   5.643   5.262
11856TIP3    H235505   0.080   5.585   5.140
11857TIP3   OH235506   8.456   5.604   4.126
11857TIP3    H135507   8.495   5.523   4.161
11857TIP3    H235508   8.362   5.588   4.127
11858TIP3   OH235509   7.861   4.753   5.752
11858TIP3    H135510   7.766   4.763   5.754
11858TIP3    H235511   7.880   4.693   5.825
11859TIP3   OH235512   0.153   5.530   4.342
11859TIP3    H135513   0.102   5.451   4.322
11859TIP3    H235514   0.210   5.541   4.266
11860TIP3   OH235515   7.611   5.862   5.392
11860TIP3    H135516   7.662   5.805   5.449
11860TIP3    H235517   7.624   5.949   5.427
11861TIP3   OH235518   7.873   5.477   4.090
11861TIP3    H135519   7.890   5.387   4.063
11861TIP3    H235520   7.859   5.471   4.185
11862TIP3   OH235521   7.821   5.486   4.361
11862TIP3    H135522   7.895   5.461   4.415
11862TIP3    H235523   7.817   5.582   4.369
11863TIP3   OH235524   7.553   5.179   4.572
11863TIP3    H135525   7.489   5.227   4.624
11863TIP3    H235526   7.574   5.237   4.499
11864TIP3   OH235527   0.132   4.832   5.476
11864TIP3    H135528   0.222   4.852   5.501
11864TIP3    H235529   0.098   4.778   5.548
11865TIP3   OH235530   0.022   4.588   4.628
11865TIP3    H135531   0.079   4.546   4.563
11865TIP3    H235532   0.066   4.670   4.649
11866TIP3   OH235533   8.082   5.685   4.303
11866TIP3    H135534   7.997   5.705   4.341
11866TIP3    H235535   8.100   5.758   4.244
11867TIP3   OH235536   8.229   4.759   4.721
11867TIP3    H135537   8.291   4.825   4.689
11867TIP3    H235538   8.243   4.756   4.815
11868TIP3   OH235539   0.009   5.074   5.503
11868TIP3    H135540   0.041   5.122   5.579
11868TIP3    H235541   0.057   4.991   5.505
11869TIP3   OH235542   8.391   4.470   4.832
11869TIP3    H135543   8.421   4.524   4.904
11869TIP3    H235544   8.431   4.509   4.754
11870TIP3   OH235545   7.829   5.759   4.376
11870TIP3    H135546   7.806   5.830   4.316
11870TIP3    H235547   7.820   5.798   4.463
11871TIP3   OH235548   7.917   4.473   4.617
11871TIP3    H135549   7.903   4.563   4.647
11871TIP3    H235550   8.012   4.460   4.624
11872TIP3   OH235551   0.228   5.234   4.907
11872TIP3    H135552   0.133   5.235   4.894
11872TIP3    H235553   0.241   5.181   4.985
11873TIP3   OH235554   7.575   5.357   4.356
11873TIP3    H135555   7.647   5.419   4.366
11873TIP3    H235556   7.607   5.294   4.291
11874TIP3   OH235557   7.486   4.649   4.488
11874TIP3    H135558   7.500   4.744   4.497
11874TIP3    H235559   7.430   4.640   4.411
11875TIP3   OH235560   0.334   6.092   4.776
11875TIP3    H135561   0.281   6.161   4.735
11875TIP3    H235562   0.405   6.139   4.818
11876TIP3   OH235563   7.868   4.370   5.359
11876TIP3    H135564   7.844   4.335   5.273
11876TIP3    H235565   7.858   4.296   5.419
11877TIP3   OH235566   7.406   5.624   4.748
11877TIP3    H135567   7.364   5.660   4.825
11877TIP3    H235568   7.363   5.667   4.674
11878TIP3   OH235569   7.575   6.128   5.796
11878TIP3    H135570   7.653   6.121   5.850
11878TIP3    H235571   7.539   6.039   5.793
11879TIP3   OH235572   8.031   6.112   5.840
11879TIP3    H135573   8.119   6.142   5.819
11879TIP3    H235574   8.015   6.040   5.780
11880TIP3   OH235575   8.031   5.672   3.980
11880TIP3    H135576   7.979   5.608   4.028
11880TIP3    H235577   8.097   5.620   3.935
11881TIP3   OH235578   8.385   5.738   3.904
11881TIP3    H135579   8.438   5.686   3.964
11881TIP3    H235580   8.437   5.742   3.824
11882TIP3   OH235581   7.710   5.553   5.994
11882TIP3    H135582   7.725   5.458   6.001
11882TIP3    H235583   7.624   5.560   5.952
11883TIP3   OH235584   7.699   5.168   4.203
11883TIP3    H135585   7.747   5.143   4.281
11883TIP3    H235586   7.766   5.187   4.138
11884TIP3   OH235587   8.332   5.621   5.763
11884TIP3    H135588   8.269   5.638   5.692
11884TIP3    H235589   8.344   5.526   5.761
11885TIP3   OH235590   8.237   5.399   4.055
11885TIP3    H135591   8.239   5.414   4.150
11885TIP3    H235592   8.229   5.304   4.046
11886TIP3   OH235593   0.218   5.490   5.385
11886TIP3    H135594   0.270   5.530   5.315
11886TIP3    H235595   0.147   5.553   5.400
11887TIP3   OH235596   7.818   5.292   5.997
11887TIP3    H135597   7.897   5.284   5.943
11887TIP3    H235598   7.851   5.308   6.085
11888TIP3   OH235599   7.866   5.111   4.419
11888TIP3    H135600   7.847   5.080   4.508
11888TIP3    H235601   7.909   5.037   4.376
11889TIP3   OH235602   8.174   5.179   5.652
11889TIP3    H135603   8.090   5.225   5.664
11889TIP3    H235604   8.210   5.216   5.571
11890TIP3   OH235605   7.983   4.920   4.259
11890TIP3    H135606   7.961   4.930   4.167
11890TIP3    H235607   8.079   4.918   4.261
11891TIP3   OH235608   0.256   5.433   5.811
11891TIP3    H135609   0.301   5.460   5.731
11891TIP3    H235610   0.238   5.515   5.858
11892TIP3   OH235611   8.296   4.964   5.770
11892TIP3    H135612   8.295   4.889   5.710
11892TIP3    H235613   8.255   5.035   5.720
11893TIP3   OH235614   8.288   4.757   5.578
11893TIP3    H135615   8.317   4.795   5.495
11893TIP3    H235616   8.195   4.736   5.563
11894TIP3   OH235617   8.298   5.301   5.444
11894TIP3    H135618   8.385   5.304   5.404
11894TIP3    H235619   8.246   5.362   5.392
11895TIP3   OH235620   0.399   5.517   5.595
11895TIP3    H135621   0.345   5.542   5.520
11895TIP3    H235622   0.489   5.536   5.567
11896TIP3   OH235623   8.175   5.041   6.015
11896TIP3    H135624   8.107   4.977   6.034
11896TIP3    H235625   8.205   5.019   5.927
11897TIP3   OH235626   8.360   4.515   5.695
11897TIP3    H135627   8.316   4.593   5.661
11897TIP3    H235628   8.297   4.444   5.681
11898TIP3   OH235629   0.046   5.004   5.885
11898TIP3    H135630   0.021   4.992   5.976
11898TIP3    H235631  -0.034   4.987   5.835
11899TIP3   OH235632   0.308   4.918   5.853
11899TIP3    H135633   0.216   4.941   5.862
11899TIP3    H235634   0.318   4.893   5.761
11900TIP3   OH235635   8.008   4.822   6.078
11900TIP3    H135636   8.013   4.733   6.044
11900TIP3    H235637   8.045   4.816   6.166
11901TIP3   OH235638   8.478   4.504   5.947
11901TIP3    H135639   8.529   4.423   5.953
11901TIP3    H235640   8.432   4.498   5.864
11902TIP3   OH235641   0.078   4.730   6.066
11902TIP3    H135642   0.041   4.659   6.014
11902TIP3    H235643   0.009   4.796   6.069
11903TIP3   OH235644   7.817   5.967   4.194
11903TIP3    H135645   7.908   5.947   4.171
11903TIP3    H235646   7.783   6.015   4.118
11904TIP3   OH235647   7.302   5.352   4.372
11904TIP3    H135648   7.396   5.364   4.369
11904TIP3    H235649   7.287   5.266   4.333
11905TIP3   OH235650   7.208   5.934   4.831
11905TIP3    H135651   7.144   5.880   4.785
11905TIP3    H235652   7.253   5.873   4.890
11906TIP3   OH235653   7.352   5.766   4.999
11906TIP3    H135654   7.344   5.698   5.065
11906TIP3    H235655   7.404   5.835   5.040
11907TIP3   OH235656   0.503   5.058   4.653
11907TIP3    H135657   0.598   5.059   4.660
11907TIP3    H235658   0.480   5.147   4.628
11908TIP3   OH235659   7.523   5.200   5.383
11908TIP3    H135660   7.514   5.169   5.293
11908TIP3    H235661   7.618   5.198   5.400
11909TIP3   OH235662   7.743   4.882   6.026
11909TIP3    H135663   7.838   4.875   6.037
11909TIP3    H235664   7.709   4.800   6.062
11910TIP3   OH235665   7.709   4.596   5.381
11910TIP3    H135666   7.762   4.516   5.383
11910TIP3    H235667   7.773   4.666   5.364
11911TIP3   OH235668   7.498   4.862   5.432
11911TIP3    H135669   7.548   4.852   5.351
11911TIP3    H235670   7.525   4.948   5.466
11912TIP3   OH235671   7.490   4.369   4.937
11912TIP3    H135672   7.404   4.358   4.978
11912TIP3    H235673   7.473   4.424   4.860
11913TIP3   OH235674   0.146   6.092   4.450
11913TIP3    H135675   0.206   6.103   4.377
11913TIP3    H235676   0.172   6.159   4.514
11914TIP3   OH235677   7.711   4.445   5.770
11914TIP3    H135678   7.655   4.426   5.845
11914TIP3    H235679   7.653   4.486   5.705
11915TIP3   OH235680   7.749   5.861   5.826
11915TIP3    H135681   7.655   5.850   5.815
11915TIP3    H235682   7.759   5.904   5.911
11916TIP3   OH235683   7.956   5.928   5.382
11916TIP3    H135684   7.904   6.002   5.350
11916TIP3    H235685   8.040   5.937   5.338
11917TIP3   OH235686   7.608   6.155   5.422
11917TIP3    H135687   7.516   6.173   5.399
11917TIP3    H235688   7.629   6.222   5.488
11918TIP3   OH235689   7.843   6.156   5.279
11918TIP3    H135690   7.758   6.159   5.323
11918TIP3    H235691   7.824   6.181   5.188
11919TIP3   OH235692   8.238   6.182   5.064
11919TIP3    H135693   8.169   6.185   4.998
11919TIP3    H235694   8.249   6.273   5.092
11920TIP3   OH235695   8.489   6.074   5.052
11920TIP3    H135696   8.405   6.120   5.059
11920TIP3    H235697   8.555   6.144   5.053
11921TIP3   OH235698   0.175   6.276   5.046
11921TIP3    H135699   0.225   6.355   5.024
11921TIP3    H235700   0.238   6.222   5.094
11922TIP3   OH235701   7.524   5.947   5.141
11922TIP3    H135702   7.549   5.924   5.231
11922TIP3    H235703   7.597   5.914   5.087
11923TIP3   OH235704   7.728   5.831   5.004
11923TIP3    H135705   7.738   5.747   5.050
11923TIP3    H235706   7.814   5.872   5.009
11924TIP3   OH235707   7.993   5.920   5.030
11924TIP3    H135708   8.013   5.828   5.016
11924TIP3    H235709   8.050   5.946   5.103
11925TIP3   OH235710   0.003   4.605   5.048
11925TIP3    H135711   0.021   4.536   5.113
11925TIP3    H235712   0.053   4.681   5.079
11926TIP3   OH235713   7.794   4.264   5.115
11926TIP3    H135714   7.705   4.230   5.124
11926TIP3    H235715   7.849   4.186   5.104
11927TIP3   OH235716   7.603   4.171   4.766
11927TIP3    H135717   7.633   4.220   4.689
11927TIP3    H235718   7.573   4.239   4.827
11928TIP3   OH235719   8.223   4.319   4.995
11928TIP3    H135720   8.272   4.376   4.936
11928TIP3    H235721   8.261   4.335   5.081
11929TIP3   OH235722   0.445   4.396   4.943
11929TIP3    H135723   0.381   4.381   4.873
11929TIP3    H235724   0.405   4.357   5.021
11930TIP3   OH235725   7.288   5.747   4.532
11930TIP3    H135726   7.205   5.714   4.497
11930TIP3    H235727   7.294   5.837   4.500
11931TIP3   OH235728   7.713   4.302   4.533
11931TIP3    H135729   7.760   4.240   4.477
11931TIP3    H235730   7.781   4.360   4.567
11932TIP3   OH235731   8.189   4.504   4.631
11932TIP3    H135732   8.243   4.450   4.689
11932TIP3    H235733   8.210   4.594   4.656
11933TIP3   OH235734   8.073   5.900   4.126
11933TIP3    H135735   8.153   5.939   4.091
11933TIP3    H235736   8.052   5.829   4.065
11934TIP3   OH235737   0.311   6.074   4.221
11934TIP3    H135738   0.365   6.002   4.191
11934TIP3    H235739   0.246   6.086   4.152
11935TIP3   OH235740   8.025   4.550   6.001
11935TIP3    H135741   7.988   4.483   6.059
11935TIP3    H235742   8.116   4.558   6.028
11936TIP3   OH235743   8.268   4.556   6.132
11936TIP3    H135744   8.347   4.533   6.083
11936TIP3    H235745   8.260   4.488   6.199
11937TIP3   OH235746   7.400   5.742   4.181
11937TIP3    H135747   7.404   5.757   4.275
11937TIP3    H235748   7.482   5.695   4.161
11938TIP3   OH235749   0.927   6.072   6.349
11938TIP3    H135750   0.895   6.161   6.335
11938TIP3    H235751   0.855   6.015   6.320
11939TIP3   OH235752   0.963   6.080   6.747
11939TIP3    H135753   1.008   6.062   6.829
11939TIP3    H235754   0.919   5.998   6.724
11940TIP3   OH235755   1.214   6.395   6.449
11940TIP3    H135756   1.209   6.327   6.516
11940TIP3    H235757   1.231   6.476   6.497
11941TIP3   OH235758   0.855   6.848   6.441
11941TIP3    H135759   0.877   6.783   6.374
11941TIP3    H235760   0.873   6.804   6.524
11942TIP3   OH235761   0.790   6.285   6.818
11942TIP3    H135762   0.838   6.213   6.777
11942TIP3    H235763   0.818   6.363   6.770
11943TIP3   OH235764   1.788   5.625   6.794
11943TIP3    H135765   1.807   5.712   6.831
11943TIP3    H235766   1.821   5.630   6.704
11944TIP3   OH235767   1.183   5.795   6.812
11944TIP3    H135768   1.220   5.710   6.837
11944TIP3    H235769   1.138   5.778   6.729
11945TIP3   OH235770   1.217   5.552   6.408
11945TIP3    H135771   1.283   5.547   6.478
11945TIP3    H235772   1.264   5.589   6.334
11946TIP3   OH235773   7.520   1.838   0.023
11946TIP3    H135774   7.431   1.872   0.010
11946TIP3    H235775   7.551   1.879   0.103
11947TIP3   OH235776   0.822   6.296   6.229
11947TIP3    H135777   0.799   6.291   6.136
11947TIP3    H235778   0.900   6.352   6.231
11948TIP3   OH235779   1.379   5.578   6.624
11948TIP3    H135780   1.342   5.556   6.709
11948TIP3    H235781   1.437   5.652   6.640
11949TIP3   OH235782   1.233   6.642   6.592
11949TIP3    H135783   1.138   6.640   6.605
11949TIP3    H235784   1.249   6.724   6.545
11950TIP3   OH235785   1.586   5.519   6.957
11950TIP3    H135786   1.502   5.545   6.919
11950TIP3    H235787   1.651   5.546   6.892
11951TIP3   OH235788   6.535   1.140   0.011
11951TIP3    H135789   6.524   1.048   0.036
11951TIP3    H235790   6.467   1.186   0.060
11952TIP3   OH235791   0.944   6.662   6.258
11952TIP3    H135792   0.982   6.575   6.252
11952TIP3    H235793   1.009   6.720   6.219
11953TIP3   OH235794   1.068   6.417   6.216
11953TIP3    H135795   1.116   6.376   6.145
11953TIP3    H235796   1.124   6.406   6.293
11954TIP3   OH235797   1.540   6.533   6.905
11954TIP3    H135798   1.497   6.462   6.857
11954TIP3    H235799   1.510   6.613   6.862
11955TIP3   OH235800   0.755   5.904   6.192
11955TIP3    H135801   0.674   5.864   6.161
11955TIP3    H235802   0.809   5.913   6.113
11956TIP3   OH235803   0.793   5.717   5.890
11956TIP3    H135804   0.858   5.771   5.935
11956TIP3    H235805   0.845   5.658   5.835
11957TIP3   OH235806   1.671   6.189   6.803
11957TIP3    H135807   1.585   6.231   6.799
11957TIP3    H235808   1.707   6.200   6.715
11958TIP3   OH235809   1.134   6.041   6.171
11958TIP3    H135810   1.075   6.056   6.245
11958TIP3    H235811   1.216   6.011   6.211
11959TIP3   OH235812   7.029   1.984   0.120
11959TIP3    H135813   7.049   2.064   0.168
11959TIP3    H235814   6.942   1.999   0.082
11960TIP3   OH235815   0.960   6.659   6.652
11960TIP3    H135816   0.951   6.738   6.707
11960TIP3    H235817   0.960   6.587   6.714
11961TIP3   OH235818   0.976   5.887   6.010
11961TIP3    H135819   1.029   5.947   6.062
11961TIP3    H235820   1.002   5.903   5.920
11962TIP3   OH235821   1.418   5.092   6.019
11962TIP3    H135822   1.392   5.124   6.105
11962TIP3    H235823   1.448   5.171   5.972
11963TIP3   OH235824   1.304   6.494   5.603
11963TIP3    H135825   1.302   6.586   5.578
11963TIP3    H235826   1.393   6.466   5.584
11964TIP3   OH235827   7.405   2.925   0.013
11964TIP3    H135828   7.410   2.832   0.033
11964TIP3    H235829   7.318   2.952   0.045
11965TIP3   OH235830   0.807   6.719   5.711
11965TIP3    H135831   0.853   6.641   5.682
11965TIP3    H235832   0.829   6.727   5.804
11966TIP3   OH235833   0.869   6.772   5.989
11966TIP3    H135834   0.820   6.727   6.059
11966TIP3    H235835   0.953   6.792   6.029
11967TIP3   OH235836   7.309   1.980   0.308
11967TIP3    H135837   7.230   1.982   0.362
11967TIP3    H235838   7.320   1.887   0.285
11968TIP3   OH235839   6.823   1.355   0.347
11968TIP3    H135840   6.892   1.323   0.404
11968TIP3    H235841   6.742   1.333   0.394
11969TIP3   OH235842   7.043   1.750   0.260
11969TIP3    H135843   7.012   1.771   0.348
11969TIP3    H235844   7.036   1.832   0.211
11970TIP3   OH235845   1.043   5.903   5.752
11970TIP3    H135846   0.999   5.885   5.669
11970TIP3    H235847   1.128   5.940   5.726
11971TIP3   OH235848   0.713   5.264   6.025
11971TIP3    H135849   0.693   5.284   6.116
11971TIP3    H235850   0.803   5.232   6.027
11972TIP3   OH235851   0.924   5.739   6.336
11972TIP3    H135852   0.867   5.803   6.294
11972TIP3    H235853   0.979   5.706   6.265
11973TIP3   OH235854   6.706   1.886   0.411
11973TIP3    H135855   6.694   1.822   0.481
11973TIP3    H235856   6.781   1.939   0.439
11974TIP3   OH235857   1.076   5.738   6.565
11974TIP3    H135858   1.015   5.765   6.497
11974TIP3    H235859   1.124   5.665   6.527
11975TIP3   OH235860   6.766   1.988   0.031
11975TIP3    H135861   6.802   1.926  -0.032
11975TIP3    H235862   6.710   1.935   0.088
11976TIP3   OH235863   0.807   5.470   6.672
11976TIP3    H135864   0.742   5.504   6.733
11976TIP3    H235865   0.882   5.445   6.726
11977TIP3   OH235866   1.250   5.529   6.863
11977TIP3    H135867   1.232   5.543   6.956
11977TIP3    H235868   1.181   5.469   6.834
11978TIP3   OH235869   7.073   3.289   0.086
11978TIP3    H135870   7.066   3.267  -0.007
11978TIP3    H235871   7.159   3.328   0.096
11979TIP3   OH235872   0.871   5.813   6.753
11979TIP3    H135873   0.929   5.768   6.691
11979TIP3    H235874   0.860   5.751   6.825
11980TIP3   OH235875   6.435   1.689   0.072
11980TIP3    H135876   6.387   1.771   0.057
11980TIP3    H235877   6.519   1.716   0.109
11981TIP3   OH235878   1.440   6.324   6.751
11981TIP3    H135879   1.472   6.373   6.676
11981TIP3    H235880   1.357   6.287   6.721
11982TIP3   OH235881   0.978   5.402   6.069
11982TIP3    H135882   0.886   5.427   6.062
11982TIP3    H235883   1.024   5.485   6.080
11983TIP3   OH235884   6.547   2.328   0.153
11983TIP3    H135885   6.523   2.394   0.218
11983TIP3    H235886   6.485   2.341   0.081
11984TIP3   OH235887   1.083   5.651   6.118
11984TIP3    H135888   1.177   5.657   6.132
11984TIP3    H235889   1.061   5.731   6.070
11985TIP3   OH235890   0.659   6.238   5.999
11985TIP3    H135891   0.608   6.319   6.000
11985TIP3    H235892   0.625   6.188   6.073
11986TIP3   OH235893   6.603   2.122   0.573
11986TIP3    H135894   6.550   2.121   0.493
11986TIP3    H235895   6.693   2.107   0.542
11987TIP3   OH235896   6.723   2.569   0.196
11987TIP3    H135897   6.638   2.572   0.152
11987TIP3    H235898   6.736   2.658   0.230
11988TIP3   OH235899   1.481   5.746   5.947
11988TIP3    H135900   1.422   5.702   5.886
11988TIP3    H235901   1.488   5.835   5.912
11989TIP3   OH235902   7.440   2.648   0.055
11989TIP3    H135903   7.350   2.615   0.065
11989TIP3    H235904   7.471   2.609  -0.027
11990TIP3   OH235905   1.216   6.545   5.862
11990TIP3    H135906   1.180   6.464   5.900
11990TIP3    H235907   1.241   6.520   5.773
11991TIP3   OH235908   1.210   6.193   6.646
11991TIP3    H135909   1.121   6.171   6.671
11991TIP3    H235910   1.246   6.111   6.611
11992TIP3   OH235911   1.020   6.455   6.839
11992TIP3    H135912   0.974   6.413   6.911
11992TIP3    H235913   1.112   6.432   6.852
11993TIP3   OH235914   0.994   6.292   5.763
11993TIP3    H135915   1.032   6.271   5.848
11993TIP3    H235916   0.911   6.244   5.762
11994TIP3   OH235917   1.224   6.969   6.902
11994TIP3    H135918   1.182   6.883   6.896
11994TIP3    H235919   1.204   7.011   6.818
11995TIP3   OH235920   1.309   6.764   5.561
11995TIP3    H135921   1.336   6.827   5.495
11995TIP3    H235922   1.238   6.806   5.608
11996TIP3   OH235923   1.160   6.253   5.994
11996TIP3    H135924   1.143   6.179   6.053
11996TIP3    H235925   1.253   6.246   5.973
11997TIP3   OH235926   6.856   1.568   0.182
11997TIP3    H135927   6.929   1.619   0.217
11997TIP3    H235928   6.846   1.495   0.242
11998TIP3   OH235929   1.076   5.327   6.330
11998TIP3    H135930   1.044   5.346   6.242
11998TIP3    H235931   1.120   5.407   6.358
11999TIP3   OH235932   0.755   5.534   6.408
11999TIP3    H135933   0.807   5.611   6.384
11999TIP3    H235934   0.766   5.527   6.503
12000TIP3   OH235935   6.670   1.769   0.174
12000TIP3    H135936   6.684   1.806   0.261
12000TIP3    H235937   6.733   1.697   0.168
12001TIP3   OH235938   0.875   5.246   6.505
12001TIP3    H135939   0.848   5.326   6.549
12001TIP3    H235940   0.944   5.274   6.445
12002TIP3   OH235941   7.309   1.709   0.235
12002TIP3    H135942   7.215   1.713   0.251
12002TIP3    H235943   7.318   1.660   0.153
12003TIP3   OH235944   1.298   5.935   6.563
12003TIP3    H135945   1.222   5.879   6.578
12003TIP3    H235946   1.367   5.896   6.616
12004TIP3   OH235947   1.279   6.896   6.501
12004TIP3    H135948   1.232   6.938   6.429
12004TIP3    H235949   1.372   6.912   6.481
12005TIP3   OH235950   6.719   2.849   0.283
12005TIP3    H135951   6.800   2.808   0.312
12005TIP3    H235952   6.740   2.942   0.277
12006TIP3   OH235953   0.926   6.499   5.593
12006TIP3    H135954   0.964   6.434   5.651
12006TIP3    H235955   0.980   6.496   5.514
12007TIP3   OH235956   0.742   6.169   5.743
12007TIP3    H135957   0.707   6.189   5.830
12007TIP3    H235958   0.713   6.080   5.726
12008TIP3   OH235959   6.927   2.466   0.035
12008TIP3    H135960   7.011   2.474   0.080
12008TIP3    H235961   6.866   2.514   0.090
12009TIP3   OH235962   0.557   5.739   6.030
12009TIP3    H135963   0.492   5.739   5.960
12009TIP3    H235964   0.639   5.715   5.986
12010TIP3   OH235965   6.753   2.371   0.531
12010TIP3    H135966   6.753   2.362   0.436
12010TIP3    H235967   6.783   2.286   0.563
12011TIP3   OH235968   1.270   6.002   5.628
12011TIP3    H135969   1.257   5.959   5.544
12011TIP3    H235970   1.249   6.094   5.612
12012TIP3   OH235971   6.394   1.493   0.274
12012TIP3    H135972   6.407   1.548   0.197
12012TIP3    H235973   6.351   1.550   0.338
12013TIP3   OH235974   6.460   2.063   0.070
12013TIP3    H135975   6.527   2.131   0.077
12013TIP3    H235976   6.402   2.093   0.001
12014TIP3   OH235977   7.097   1.983   0.488
12014TIP3    H135978   7.042   1.952   0.561
12014TIP3    H235979   7.128   2.069   0.516
12015TIP3   OH235980   7.081   2.216   0.248
12015TIP3    H135981   7.011   2.278   0.228
12015TIP3    H235982   7.159   2.255   0.208
12016TIP3   OH235983   6.540   1.274   0.355
12016TIP3    H135984   6.499   1.355   0.326
12016TIP3    H235985   6.472   1.208   0.348
12017TIP3   OH235986   6.658   1.723   0.619
12017TIP3    H135987   6.652   1.788   0.689
12017TIP3    H235988   6.599   1.653   0.647
12018TIP3   OH235989   6.945   1.718   0.518
12018TIP3    H135990   6.881   1.653   0.545
12018TIP3    H235991   7.029   1.682   0.545
12019TIP3   OH235992   7.196   1.652   0.618
12019TIP3    H135993   7.204   1.557   0.621
12019TIP3    H235994   7.191   1.678   0.710
12020TIP3   OH235995   6.630   1.261   0.611
12020TIP3    H135996   6.692   1.188   0.614
12020TIP3    H235997   6.588   1.254   0.525
12021TIP3   OH235998   6.728   1.456   0.764
12021TIP3    H135999   6.699   1.385   0.707
12021TIP3    H236000   6.648   1.502   0.789
12022TIP3   OH236001   1.537   6.970   6.458
12022TIP3    H136002   1.565   6.993   6.546
12022TIP3    H236003   1.601   7.012   6.400
12023TIP3   OH236004   1.579   6.987   6.728
12023TIP3    H136005   1.531   6.905   6.739
12023TIP3    H236006   1.656   6.978   6.783
12024TIP3   OH236007   7.338   2.615   0.338
12024TIP3    H136008   7.262   2.667   0.314
12024TIP3    H236009   7.406   2.679   0.360
12025TIP3   OH236010   1.432   6.213   5.962
12025TIP3    H136011   1.491   6.281   5.929
12025TIP3    H236012   1.481   6.173   6.034
12026TIP3   OH236013   1.564   6.067   6.159
12026TIP3    H136014   1.497   6.028   6.215
12026TIP3    H236015   1.629   6.100   6.220
12027TIP3   OH236016   1.615   6.468   6.588
12027TIP3    H136017   1.667   6.396   6.551
12027TIP3    H236018   1.625   6.539   6.525
12028TIP3   OH236019   1.423   6.757   6.776
12028TIP3    H136020   1.356   6.810   6.820
12028TIP3    H236021   1.377   6.715   6.703
12029TIP3   OH236022   1.474   5.985   5.810
12029TIP3    H136023   1.404   5.984   5.745
12029TIP3    H236024   1.457   6.064   5.862
12030TIP3   OH236025   1.317   5.639   5.758
12030TIP3    H136026   1.276   5.671   5.678
12030TIP3    H236027   1.312   5.544   5.751
12031TIP3   OH236028   1.359   5.928   6.294
12031TIP3    H136029   1.367   5.834   6.278
12031TIP3    H236030   1.344   5.936   6.388
12032TIP3   OH236031   7.314   2.335   0.155
12032TIP3    H136032   7.382   2.272   0.134
12032TIP3    H236033   7.303   2.386   0.074
12033TIP3   OH236034   7.502   2.132   0.199
12033TIP3    H136035   7.426   2.084   0.233
12033TIP3    H236036   7.577   2.077   0.223
12034TIP3   OH236037   1.284   5.369   5.729
12034TIP3    H136038   1.358   5.339   5.781
12034TIP3    H236039   1.211   5.315   5.758
12035TIP3   OH236040   1.360   5.653   6.183
12035TIP3    H136041   1.407   5.571   6.198
12035TIP3    H236042   1.403   5.691   6.107
12036TIP3   OH236043   1.514   5.810   6.694
12036TIP3    H136044   1.593   5.830   6.643
12036TIP3    H236045   1.532   5.845   6.781
12037TIP3   OH236046   1.600   5.946   6.921
12037TIP3    H136047   1.521   5.962   6.973
12037TIP3    H236048   1.622   6.032   6.884
12038TIP3   OH236049   7.709   1.554   0.522
12038TIP3    H136050   7.776   1.497   0.484
12038TIP3    H236051   7.675   1.603   0.448
12039TIP3   OH236052   1.473   5.406   6.236
12039TIP3    H136053   1.523   5.389   6.315
12039TIP3    H236054   1.417   5.329   6.226
12040TIP3   OH236055   7.572   1.664   0.315
12040TIP3    H136056   7.486   1.703   0.327
12040TIP3    H236057   7.556   1.585   0.263
12041TIP3   OH236058   1.511   5.312   5.876
12041TIP3    H136059   1.562   5.250   5.824
12041TIP3    H236060   1.569   5.388   5.887
12042TIP3   OH236061   1.101   6.841   6.126
12042TIP3    H136062   1.169   6.838   6.058
12042TIP3    H236063   1.125   6.916   6.181
12043TIP3   OH236064   6.640   3.066   0.050
12043TIP3    H136065   6.733   3.043   0.049
12043TIP3    H236066   6.636   3.150   0.097
12044TIP3   OH236067   7.474   1.416   0.223
12044TIP3    H136068   7.387   1.409   0.183
12044TIP3    H236069   7.511   1.328   0.215
12045TIP3   OH236070   0.945   6.914   6.760
12045TIP3    H136071   0.942   6.973   6.835
12045TIP3    H236072   0.976   6.970   6.688
12046TIP3   OH236073   1.192   7.104   6.665
12046TIP3    H136074   1.173   7.183   6.615
12046TIP3    H236075   1.213   7.038   6.599
12047TIP3   OH236076   1.013   5.359   6.816
12047TIP3    H136077   0.972   5.285   6.862
12047TIP3    H236078   1.079   5.318   6.760
12048TIP3   OH236079   1.502   5.237   6.676
12048TIP3    H136080   1.548   5.284   6.608
12048TIP3    H236081   1.415   5.278   6.680
12049TIP3   OH236082   1.625   5.320   6.450
12049TIP3    H136083   1.678   5.249   6.415
12049TIP3    H236084   1.680   5.398   6.441
12050TIP3   OH236085   0.749   5.083   6.697
12050TIP3    H136086   0.786   5.132   6.624
12050TIP3    H236087   0.800   5.110   6.773
12051TIP3   OH236088   1.212   5.243   6.674
12051TIP3    H136089   1.198   5.212   6.585
12051TIP3    H236090   1.223   5.162   6.725
12052TIP3   OH236091   1.314   5.176   6.259
12052TIP3    H136092   1.228   5.202   6.292
12052TIP3    H236093   1.352   5.125   6.330
12053TIP3   OH236094   0.692   5.300   6.288
12053TIP3    H136095   0.725   5.247   6.360
12053TIP3    H236096   0.697   5.390   6.320
12054TIP3   OH236097   1.263   6.813   5.906
12054TIP3    H136098   1.252   6.718   5.895
12054TIP3    H236099   1.221   6.851   5.828
12055TIP3   OH236100   7.231   1.386   0.649
12055TIP3    H136101   7.247   1.355   0.738
12055TIP3    H236102   7.317   1.386   0.608
12056TIP3   OH236103   7.137   3.001   0.072
12056TIP3    H136104   7.049   2.992   0.036
12056TIP3    H236105   7.140   3.090   0.108
12057TIP3   OH236106   2.745   6.362   5.838
12057TIP3    H136107   2.712   6.447   5.809
12057TIP3    H236108   2.676   6.301   5.816
12058TIP3   OH236109   2.737   6.335   6.267
12058TIP3    H136110   2.796   6.316   6.340
12058TIP3    H236111   2.700   6.250   6.243
12059TIP3   OH236112   2.039   6.208   6.617
12059TIP3    H136113   2.077   6.153   6.685
12059TIP3    H236114   2.112   6.231   6.560
12060TIP3   OH236115   3.009   6.653   5.939
12060TIP3    H136116   2.997   6.586   6.006
12060TIP3    H236117   3.030   6.733   5.988
12061TIP3   OH236118   2.025   6.636   6.306
12061TIP3    H136119   2.009   6.541   6.305
12061TIP3    H236120   2.119   6.645   6.295
12062TIP3   OH236121   1.718   5.837   6.085
12062TIP3    H136122   1.680   5.923   6.106
12062TIP3    H236123   1.646   5.789   6.043
12063TIP3   OH236124   1.793   6.144   6.303
12063TIP3    H136125   1.843   6.065   6.323
12063TIP3    H236126   1.859   6.206   6.270
12064TIP3   OH236127   2.665   7.090   5.942
12064TIP3    H136128   2.693   7.027   5.876
12064TIP3    H236129   2.660   7.039   6.023
12065TIP3   OH236130   2.544   6.559   6.271
12065TIP3    H136131   2.589   6.480   6.243
12065TIP3    H236132   2.615   6.618   6.298
12066TIP3   OH236133   3.581   5.888   6.285
12066TIP3    H136134   3.597   5.974   6.324
12066TIP3    H236135   3.598   5.902   6.191
12067TIP3   OH236136   2.957   6.051   6.303
12067TIP3    H136137   2.984   5.963   6.326
12067TIP3    H236138   2.915   6.043   6.217
12068TIP3   OH236139   2.308   5.724   6.271
12068TIP3    H136140   2.285   5.791   6.206
12068TIP3    H236141   2.270   5.643   6.237
12069TIP3   OH236142   3.011   5.815   5.896
12069TIP3    H136143   3.072   5.806   5.970
12069TIP3    H236144   3.065   5.848   5.824
12070TIP3   OH236145   1.935   5.920   6.383
12070TIP3    H136146   2.018   5.902   6.428
12070TIP3    H236147   1.939   5.866   6.303
12071TIP3   OH236148   2.346   6.125   6.214
12071TIP3    H136149   2.440   6.109   6.221
12071TIP3    H236150   2.310   6.045   6.177
12072TIP3   OH236151   3.639   6.111   6.450
12072TIP3    H136152   3.549   6.145   6.444
12072TIP3    H236153   3.672   6.144   6.533
12073TIP3   OH236154   2.292   5.717   6.716
12073TIP3    H136155   2.242   5.750   6.641
12073TIP3    H236156   2.236   5.733   6.792
12074TIP3   OH236157   2.639   6.577   5.699
12074TIP3    H136158   2.599   6.548   5.617
12074TIP3    H236159   2.585   6.651   5.726
12075TIP3   OH236160   2.391   6.486   6.489
12075TIP3    H136161   2.336   6.559   6.518
12075TIP3    H236162   2.439   6.521   6.414
12076TIP3   OH236163   3.166   5.838   6.118
12076TIP3    H136164   3.123   5.807   6.198
12076TIP3    H236165   3.218   5.913   6.147
12077TIP3   OH236166   2.176   5.824   6.489
12077TIP3    H136167   2.232   5.898   6.510
12077TIP3    H236168   2.220   5.781   6.416
12078TIP3   OH236169   2.234   6.695   6.583
12078TIP3    H136170   2.221   6.784   6.548
12078TIP3    H236171   2.157   6.679   6.638
12079TIP3   OH236172   1.605   6.396   5.842
12079TIP3    H136173   1.573   6.414   5.753
12079TIP3    H236174   1.628   6.483   5.876
12080TIP3   OH236175   3.048   6.901   6.079
12080TIP3    H136176   2.961   6.894   6.119
12080TIP3    H236177   3.046   6.984   6.032
12081TIP3   OH236178   3.374   5.787   6.452
12081TIP3    H136179   3.288   5.803   6.412
12081TIP3    H236180   3.437   5.812   6.384
12082TIP3   OH236181   2.647   5.439   6.459
12082TIP3    H136182   2.627   5.355   6.418
12082TIP3    H236183   2.563   5.469   6.495
12083TIP3   OH236184   2.752   6.935   5.729
12083TIP3    H136185   2.803   6.854   5.720
12083TIP3    H236186   2.812   7.004   5.700
12084TIP3   OH236187   2.890   6.703   5.693
12084TIP3    H136188   2.816   6.642   5.692
12084TIP3    H236189   2.940   6.677   5.771
12085TIP3   OH236190   3.284   6.785   6.425
12085TIP3    H136191   3.263   6.712   6.367
12085TIP3    H236192   3.269   6.863   6.371
12086TIP3   OH236193   2.571   6.198   5.693
12086TIP3    H136194   2.488   6.242   5.673
12086TIP3    H236195   2.617   6.194   5.609
12087TIP3   OH236196   2.533   6.010   5.380
12087TIP3    H136197   2.600   6.053   5.433
12087TIP3    H236198   2.581   5.939   5.335
12088TIP3   OH236199   3.460   6.453   6.290
12088TIP3    H136200   3.374   6.496   6.287
12088TIP3    H236201   3.495   6.465   6.202
12089TIP3   OH236202   2.930   6.282   5.652
12089TIP3    H136203   2.875   6.313   5.725
12089TIP3    H236204   3.012   6.256   5.694
12090TIP3   OH236205   3.159   6.310   6.599
12090TIP3    H136206   3.152   6.393   6.646
12090TIP3    H236207   3.079   6.304   6.547
12091TIP3   OH236208   2.154   6.261   6.059
12091TIP3    H136209   2.118   6.202   5.993
12091TIP3    H236210   2.225   6.212   6.100
12092TIP3   OH236211   2.288   6.682   6.204
12092TIP3    H136212   2.262   6.669   6.112
12092TIP3    H236213   2.374   6.642   6.211
12093TIP3   OH236214   2.249   6.257   6.436
12093TIP3    H136215   2.286   6.219   6.356
12093TIP3    H236216   2.301   6.335   6.452
12094TIP3   OH236217   2.811   6.897   6.213
12094TIP3    H136218   2.797   6.975   6.265
12094TIP3    H236219   2.794   6.824   6.273
12095TIP3   OH236220   2.431   6.790   6.754
12095TIP3    H136221   2.369   6.849   6.797
12095TIP3    H236222   2.378   6.739   6.693
12096TIP3   OH236223   2.761   6.138   5.488
12096TIP3    H136224   2.820   6.196   5.535
12096TIP3    H236225   2.789   6.144   5.397
12097TIP3   OH236226   2.186   6.351   6.905
12097TIP3    H136227   2.183   6.446   6.917
12097TIP3    H236228   2.095   6.326   6.889
12098TIP3   OH236229   2.503   6.815   5.743
12098TIP3    H136230   2.584   6.865   5.745
12098TIP3    H236231   2.442   6.871   5.695
12099TIP3   OH236232   2.224   6.951   6.834
12099TIP3    H136233   2.194   6.959   6.743
12099TIP3    H236234   2.144   6.937   6.884
12100TIP3   OH236235   3.269   5.369   5.543
12100TIP3    H136236   3.192   5.389   5.597
12100TIP3    H236237   3.278   5.445   5.486
12101TIP3   OH236238   2.032   6.106   5.857
12101TIP3    H136239   1.951   6.147   5.827
12101TIP3    H236240   2.009   6.013   5.868
12102TIP3   OH236241   3.092   6.745   5.098
12102TIP3    H136242   3.089   6.838   5.079
12102TIP3    H236243   3.182   6.719   5.077
12103TIP3   OH236244   1.831   6.511   6.770
12103TIP3    H136245   1.755   6.494   6.716
12103TIP3    H236246   1.860   6.425   6.800
12104TIP3   OH236247   1.693   6.686   6.428
12104TIP3    H136248   1.786   6.682   6.405
12104TIP3    H236249   1.683   6.769   6.474
12105TIP3   OH236250   3.512   7.157   6.490
12105TIP3    H136251   3.518   7.062   6.500
12105TIP3    H236252   3.432   7.181   6.537
12106TIP3   OH236253   2.619   6.936   6.617
12106TIP3    H136254   2.609   7.027   6.645
12106TIP3    H236255   2.551   6.888   6.664
12107TIP3   OH236256   2.392   7.040   5.568
12107TIP3    H136257   2.343   7.022   5.488
12107TIP3    H236258   2.353   7.121   5.602
12108TIP3   OH236259   1.827   6.893   5.947
12108TIP3    H136260   1.874   6.884   6.030
12108TIP3    H236261   1.779   6.811   5.937
12109TIP3   OH236262   2.593   6.964   5.198
12109TIP3    H136263   2.647   6.892   5.165
12109TIP3    H236264   2.624   6.979   5.287
12110TIP3   OH236265   2.645   7.017   5.466
12110TIP3    H136266   2.558   7.021   5.505
12110TIP3    H236267   2.701   6.980   5.535
12111TIP3   OH236268   3.399   6.265   6.757
12111TIP3    H136269   3.319   6.275   6.706
12111TIP3    H236270   3.418   6.171   6.755
12112TIP3   OH236271   2.022   6.706   6.758
12112TIP3    H136272   2.068   6.689   6.840
12112TIP3    H236273   1.954   6.639   6.754
12113TIP3   OH236274   2.392   5.498   6.573
12113TIP3    H136275   2.310   5.465   6.536
12113TIP3    H236276   2.368   5.579   6.618
12114TIP3   OH236277   2.937   5.630   6.774
12114TIP3    H136278   3.005   5.603   6.835
12114TIP3    H236279   2.855   5.610   6.819
12115TIP3   OH236280   3.160   6.044   6.691
12115TIP3    H136281   3.121   6.043   6.779
12115TIP3    H236282   3.144   6.132   6.658
12116TIP3   OH236283   2.837   6.126   5.225
12116TIP3    H136284   2.794   6.124   5.140
12116TIP3    H236285   2.919   6.174   5.209
12117TIP3   OH236286   2.558   5.550   5.581
12117TIP3    H136287   2.517   5.559   5.667
12117TIP3    H236288   2.518   5.472   5.543
12118TIP3   OH236289   2.332   6.034   6.579
12118TIP3    H136290   2.287   6.042   6.663
12118TIP3    H236291   2.307   6.114   6.532
12119TIP3   OH236292   2.208   5.914   6.098
12119TIP3    H136293   2.122   5.880   6.121
12119TIP3    H236294   2.226   5.877   6.011
12120TIP3   OH236295   2.698   5.995   5.830
12120TIP3    H136296   2.649   6.066   5.789
12120TIP3    H236297   2.753   5.959   5.760
12121TIP3   OH236298   2.880   6.257   6.905
12121TIP3    H136299   2.854   6.187   6.965
12121TIP3    H236300   2.972   6.273   6.924
12122TIP3   OH236301   2.881   6.015   6.041
12122TIP3    H136302   2.802   6.029   5.988
12122TIP3    H236303   2.920   5.936   6.003
12123TIP3   OH236304   2.166   6.041   6.802
12123TIP3    H136305   2.228   6.089   6.858
12123TIP3    H236306   2.151   5.959   6.849
12124TIP3   OH236307   2.222   5.532   5.530
12124TIP3    H136308   2.219   5.525   5.626
12124TIP3    H236309   2.140   5.576   5.507
12125TIP3   OH236310   1.767   5.540   6.392
12125TIP3    H136311   1.839   5.586   6.437
12125TIP3    H236312   1.800   5.527   6.303
12126TIP3   OH236313   1.667   5.546   5.890
12126TIP3    H136314   1.712   5.579   5.812
12126TIP3    H236315   1.605   5.615   5.913
12127TIP3   OH236316   2.912   6.252   6.477
12127TIP3    H136317   2.935   6.185   6.412
12127TIP3    H236318   2.865   6.204   6.545
12128TIP3   OH236319   2.570   5.794   6.177
12128TIP3    H136320   2.493   5.755   6.218
12128TIP3    H236321   2.644   5.744   6.212
12129TIP3   OH236322   1.980   5.769   6.157
12129TIP3    H136323   1.892   5.775   6.119
12129TIP3    H236324   2.010   5.682   6.133
12130TIP3   OH236325   2.233   5.778   5.860
12130TIP3    H136326   2.328   5.785   5.853
12130TIP3    H236327   2.201   5.797   5.772
12131TIP3   OH236328   3.017   5.786   6.359
12131TIP3    H136329   2.988   5.803   6.449
12131TIP3    H236330   2.953   5.723   6.325
12132TIP3   OH236331   2.115   5.820   5.612
12132TIP3    H136332   2.053   5.769   5.560
12132TIP3    H236333   2.170   5.864   5.547
12133TIP3   OH236334   3.227   7.493   6.583
12133TIP3    H136335   3.222   7.511   6.489
12133TIP3    H236336   3.304   7.541   6.612
12134TIP3   OH236337   7.830   2.607   0.054
12134TIP3    H136338   7.912   2.626   0.100
12134TIP3    H236339   7.765   2.600   0.123
12135TIP3   OH236340   2.615   6.059   6.264
12135TIP3    H136341   2.618   5.980   6.211
12135TIP3    H236342   2.621   6.028   6.355
12136TIP3   OH236343   2.167   5.517   6.152
12136TIP3    H136344   2.121   5.442   6.189
12136TIP3    H236345   2.241   5.479   6.105
12137TIP3   OH236346   2.597   5.973   6.532
12137TIP3    H136347   2.508   6.003   6.553
12137TIP3    H236348   2.654   6.029   6.585
12138TIP3   OH236349   2.332   6.334   5.633
12138TIP3    H136350   2.259   6.276   5.612
12138TIP3    H236351   2.308   6.372   5.718
12139TIP3   OH236352   3.222   6.586   6.245
12139TIP3    H136353   3.257   6.635   6.170
12139TIP3    H236354   3.143   6.544   6.211
12140TIP3   OH236355   2.762   5.688   5.462
12140TIP3    H136356   2.689   5.646   5.507
12140TIP3    H236357   2.791   5.757   5.521
12141TIP3   OH236358   2.745   6.671   6.651
12141TIP3    H136359   2.798   6.663   6.731
12141TIP3    H236360   2.706   6.758   6.657
12142TIP3   OH236361   2.858   5.903   5.613
12142TIP3    H136362   2.952   5.908   5.628
12142TIP3    H236363   2.837   5.983   5.565
12143TIP3   OH236364   2.024   6.351   6.286
12143TIP3    H136365   2.061   6.330   6.200
12143TIP3    H236366   2.089   6.319   6.349
12144TIP3   OH236367   2.484   6.497   5.476
12144TIP3    H136368   2.437   6.580   5.475
12144TIP3    H236369   2.428   6.440   5.529
12145TIP3   OH236370   1.911   6.284   6.915
12145TIP3    H136371   1.919   6.247   7.003
12145TIP3    H236372   1.843   6.231   6.873
12146TIP3   OH236373   2.658   6.420   6.929
12146TIP3    H136374   2.604   6.395   6.854
12146TIP3    H236375   2.740   6.374   6.916
12147TIP3   OH236376   2.890   6.958   6.542
12147TIP3    H136377   2.795   6.945   6.545
12147TIP3    H236378   2.912   6.995   6.627
12148TIP3   OH236379   3.276   5.997   5.427
12148TIP3    H136380   3.221   5.951   5.364
12148TIP3    H236381   3.281   6.087   5.394
12149TIP3   OH236382   3.528   6.880   6.511
12149TIP3    H136383   3.435   6.859   6.509
12149TIP3    H236384   3.562   6.846   6.428
12150TIP3   OH236385   3.015   6.816   5.366
12150TIP3    H136386   2.985   6.749   5.427
12150TIP3    H236387   3.031   6.768   5.284
12151TIP3   OH236388   2.995   6.449   6.142
12151TIP3    H136389   2.904   6.426   6.162
12151TIP3    H236390   3.033   6.369   6.106
12152TIP3   OH236391   2.149   6.685   5.959
12152TIP3    H136392   2.150   6.762   5.902
12152TIP3    H236393   2.057   6.668   5.976
12153TIP3   OH236394   1.708   5.972   5.663
12153TIP3    H136395   1.752   6.053   5.685
12153TIP3    H236396   1.628   5.973   5.717
12154TIP3   OH236397   2.240   6.441   5.863
12154TIP3    H136398   2.222   6.530   5.893
12154TIP3    H236399   2.212   6.385   5.936
12155TIP3   OH236400   2.433   7.009   6.409
12155TIP3    H136401   2.468   7.083   6.358
12155TIP3    H236402   2.509   6.976   6.457
12156TIP3   OH236403   2.068   6.907   5.809
12156TIP3    H136404   1.979   6.918   5.842
12156TIP3    H236405   2.105   6.996   5.809
12157TIP3   OH236406   2.780   6.670   6.377
12157TIP3    H136407   2.769   6.666   6.472
12157TIP3    H236408   2.852   6.611   6.358
12158TIP3   OH236409   2.777   6.553   5.251
12158TIP3    H136410   2.828   6.523   5.326
12158TIP3    H236411   2.692   6.509   5.261
12159TIP3   OH236412   3.044   7.169   6.420
12159TIP3    H136413   2.972   7.109   6.438
12159TIP3    H236414   3.012   7.225   6.350
12160TIP3   OH236415   3.097   7.019   5.062
12160TIP3    H136416   3.136   7.090   5.010
12160TIP3    H236417   3.020   7.059   5.103
12161TIP3   OH236418   7.791   1.782  -0.015
12161TIP3    H136419   7.695   1.791  -0.013
12161TIP3    H236420   7.810   1.717   0.052
12162TIP3   OH236421   2.954   6.462   5.440
12162TIP3    H136422   2.937   6.410   5.518
12162TIP3    H236423   3.049   6.471   5.436
12163TIP3   OH236424   1.852   6.916   6.565
12163TIP3    H136425   1.911   6.861   6.617
12163TIP3    H236426   1.867   7.004   6.598
12164TIP3   OH236427   2.142   6.511   5.261
12164TIP3    H136428   2.148   6.418   5.237
12164TIP3    H236429   2.117   6.510   5.353
12165TIP3   OH236430   2.073   6.525   5.531
12165TIP3    H136431   2.140   6.495   5.593
12165TIP3    H236432   2.072   6.620   5.541
12166TIP3   OH236433   1.803   6.221   5.748
12166TIP3    H136434   1.738   6.269   5.799
12166TIP3    H236435   1.823   6.279   5.675
12167TIP3   OH236436   2.957   5.863   6.626
12167TIP3    H136437   3.041   5.902   6.650
12167TIP3    H236438   2.951   5.783   6.678
12168TIP3   OH236439   2.859   5.608   5.798
12168TIP3    H136440   2.804   5.648   5.730
12168TIP3    H236441   2.905   5.681   5.839
12169TIP3   OH236442   2.342   6.728   5.474
12169TIP3    H136443   2.257   6.745   5.514
12169TIP3    H236444   2.359   6.804   5.419
12170TIP3   OH236445   2.505   5.807   5.897
12170TIP3    H136446   2.572   5.872   5.874
12170TIP3    H236447   2.525   5.784   5.987
12171TIP3   OH236448   2.801   6.097   6.676
12171TIP3    H136449   2.830   6.135   6.758
12171TIP3    H236450   2.849   6.014   6.669
12172TIP3   OH236451   2.735   5.523   6.041
12172TIP3    H136452   2.644   5.494   6.032
12172TIP3    H236453   2.762   5.541   5.951
12173TIP3   OH236454   2.089   6.794   5.559
12173TIP3    H136455   2.063   6.862   5.497
12173TIP3    H236456   2.080   6.836   5.645
12174TIP3   OH236457   2.211   5.497   5.805
12174TIP3    H136458   2.205   5.585   5.843
12174TIP3    H236459   2.277   5.453   5.857
12175TIP3   OH236460   3.424   5.985   6.668
12175TIP3    H136461   3.330   5.997   6.682
12175TIP3    H236462   3.430   5.927   6.592
12176TIP3   OH236463   3.093   6.196   6.056
12176TIP3    H136464   3.016   6.140   6.059
12176TIP3    H236465   3.157   6.152   6.112
12177TIP3   OH236466   1.827   6.397   5.531
12177TIP3    H136467   1.898   6.461   5.538
12177TIP3    H236468   1.859   6.334   5.466
12178TIP3   OH236469   1.730   5.693   5.665
12178TIP3    H136470   1.745   5.787   5.674
12178TIP3    H236471   1.677   5.684   5.586
12179TIP3   OH236472   3.067   7.168   5.995
12179TIP3    H136473   3.024   7.218   5.925
12179TIP3    H236474   3.161   7.179   5.979
12180TIP3   OH236475   2.126   5.416   6.530
12180TIP3    H136476   2.096   5.379   6.447
12180TIP3    H236477   2.120   5.343   6.592
12181TIP3   OH236478   1.655   6.664   5.927
12181TIP3    H136479   1.616   6.703   6.005
12181TIP3    H236480   1.613   6.709   5.854
12182TIP3   OH236481   7.536   3.192   0.025
12182TIP3    H136482   7.620   3.170   0.064
12182TIP3    H236483   7.492   3.108   0.015
12183TIP3   OH236484   8.011   3.101   0.082
12183TIP3    H136485   8.100   3.067   0.093
12183TIP3    H236486   7.975   3.049   0.009
12184TIP3   OH236487   2.286   6.720   5.155
12184TIP3    H136488   2.241   6.648   5.201
12184TIP3    H236489   2.364   6.679   5.117
12185TIP3   OH236490   2.944   7.055   6.794
12185TIP3    H136491   2.959   6.985   6.857
12185TIP3    H236492   3.018   7.114   6.805
12186TIP3   OH236493   2.733   6.759   5.076
12186TIP3    H136494   2.761   6.695   5.142
12186TIP3    H236495   2.798   6.753   5.006
12187TIP3   OH236496   7.631   2.566   0.251
12187TIP3    H136497   7.650   2.473   0.242
12187TIP3    H236498   7.555   2.580   0.195
12188TIP3   OH236499   1.952   6.208   5.379
12188TIP3    H136500   2.003   6.186   5.456
12188TIP3    H236501   2.017   6.221   5.310
12189TIP3   OH236502   2.579   6.689   6.963
12189TIP3    H136503   2.538   6.712   6.880
12189TIP3    H236504   2.620   6.604   6.947
12190TIP3   OH236505   2.519   6.436   5.211
12190TIP3    H136506   2.495   6.449   5.303
12190TIP3    H236507   2.499   6.344   5.194
12191TIP3   OH236508   3.060   6.735   6.582
12191TIP3    H136509   3.137   6.760   6.531
12191TIP3    H236510   2.995   6.802   6.562
12192TIP3   OH236511   7.761   2.323   0.240
12192TIP3    H136512   7.828   2.312   0.172
12192TIP3    H236513   7.810   2.344   0.319
12193TIP3   OH236514   2.125   6.154   5.591
12193TIP3    H136515   2.106   6.124   5.680
12193TIP3    H236516   2.172   6.080   5.551
12194TIP3   OH236517   2.403   6.200   6.837
12194TIP3    H136518   2.336   6.263   6.862
12194TIP3    H236519   2.457   6.246   6.773
12195TIP3   OH236520   2.263   5.969   5.434
12195TIP3    H136521   2.234   5.972   5.342
12195TIP3    H236522   2.358   5.980   5.429
12196TIP3   OH236523   2.943   6.608   6.931
12196TIP3    H136524   3.010   6.569   6.875
12196TIP3    H236525   2.940   6.551   7.008
12197TIP3   OH236526   3.058   6.258   5.119
12197TIP3    H136527   3.045   6.217   5.034
12197TIP3    H236528   3.033   6.350   5.105
12198TIP3   OH236529   2.544   5.997   6.954
12198TIP3    H136530   2.549   5.923   6.893
12198TIP3    H236531   2.500   6.066   6.905
12199TIP3   OH236532   2.551   5.800   6.754
12199TIP3    H136533   2.580   5.835   6.669
12199TIP3    H236534   2.461   5.771   6.738
12200TIP3   OH236535   2.556   6.352   6.668
12200TIP3    H136536   2.641   6.350   6.624
12200TIP3    H236537   2.499   6.401   6.609
12201TIP3   OH236538   0.313   2.284   0.057
12201TIP3    H136539   0.333   2.190   0.052
12201TIP3    H236540   0.396   2.327   0.036
12202TIP3   OH236541   3.176   6.554   6.748
12202TIP3    H136542   3.124   6.617   6.697
12202TIP3    H236543   3.265   6.565   6.717
12203TIP3   OH236544   8.095   2.078   0.256
12203TIP3    H136545   8.026   2.015   0.275
12203TIP3    H236546   8.124   2.055   0.167
12204TIP3   OH236547   2.674   5.572   6.855
12204TIP3    H136548   2.634   5.651   6.819
12204TIP3    H236549   2.611   5.502   6.838
12205TIP3   OH236550   8.466   2.034   0.114
12205TIP3    H136551   8.454   2.021   0.208
12205TIP3    H236552   8.381   2.013   0.076
12206TIP3   OH236553   0.224   2.011  -0.000
12206TIP3    H136554   0.142   1.999   0.048
12206TIP3    H236555   0.291   1.971   0.056
12207TIP3   OH236556   0.452   1.948   0.145
12207TIP3    H136557   0.465   1.853   0.151
12207TIP3    H236558   0.447   1.977   0.236
12208TIP3   OH236559   7.930   1.859   0.318
12208TIP3    H136560   7.933   1.772   0.278
12208TIP3    H236561   7.972   1.848   0.403
12209TIP3   OH236562   8.406   1.541   0.179
12209TIP3    H136563   8.474   1.474   0.172
12209TIP3    H236564   8.376   1.553   0.089
12210TIP3   OH236565   8.501   1.756   0.323
12210TIP3    H136566   8.471   1.684   0.268
12210TIP3    H236567   8.428   1.818   0.322
12211TIP3   OH236568   2.042   6.996   5.382
12211TIP3    H136569   2.117   7.023   5.328
12211TIP3    H236570   1.998   7.078   5.405
12212TIP3   OH236571   1.555   6.393   5.553
12212TIP3    H136572   1.649   6.405   5.547
12212TIP3    H236573   1.539   6.308   5.512
12213TIP3   OH236574   1.460   6.977   6.005
12213TIP3    H136575   1.399   6.922   5.956
12213TIP3    H236576   1.506   6.917   6.063
12214TIP3   OH236577   1.603   6.807   6.172
12214TIP3    H136578   1.592   6.743   6.243
12214TIP3    H236579   1.652   6.878   6.212
12215TIP3   OH236580   3.340   7.213   5.984
12215TIP3    H136581   3.360   7.242   6.073
12215TIP3    H236582   3.396   7.266   5.928
12216TIP3   OH236583   3.358   7.246   6.266
12216TIP3    H136584   3.311   7.163   6.260
12216TIP3    H236585   3.427   7.230   6.330
12217TIP3   OH236586   3.410   6.945   6.841
12217TIP3    H136587   3.339   6.956   6.904
12217TIP3    H236588   3.455   7.029   6.840
12218TIP3   OH236589   3.234   6.464   5.447
12218TIP3    H136590   3.291   6.535   5.419
12218TIP3    H236591   3.277   6.426   5.523
12219TIP3   OH236592   3.359   6.320   5.650
12219TIP3    H136593   3.291   6.282   5.705
12219TIP3    H236594   3.422   6.357   5.712
12220TIP3   OH236595   3.407   6.725   6.084
12220TIP3    H136596   3.458   6.656   6.041
12220TIP3    H236597   3.407   6.798   6.022
12221TIP3   OH236598   3.216   7.006   6.275
12221TIP3    H136599   3.149   7.053   6.324
12221TIP3    H236600   3.169   6.967   6.202
12222TIP3   OH236601   3.268   6.239   5.293
12222TIP3    H136602   3.195   6.238   5.232
12222TIP3    H236603   3.253   6.316   5.348
12223TIP3   OH236604   3.129   5.884   5.226
12223TIP3    H136605   3.078   5.922   5.155
12223TIP3    H236606   3.119   5.789   5.216
12224TIP3   OH236607   3.156   6.182   5.785
12224TIP3    H136608   3.158   6.088   5.771
12224TIP3    H236609   3.138   6.193   5.879
12225TIP3   OH236610   1.777   6.243   6.557
12225TIP3    H136611   1.768   6.210   6.468
12225TIP3    H236612   1.871   6.242   6.574
12226TIP3   OH236613   3.430   6.596   6.646
12226TIP3    H136614   3.499   6.532   6.629
12226TIP3    H236615   3.431   6.653   6.568
12227TIP3   OH236616   3.614   6.389   6.639
12227TIP3    H136617   3.539   6.347   6.681
12227TIP3    H236618   3.688   6.333   6.662
12228TIP3   OH236619   3.085   5.613   5.190
12228TIP3    H136620   3.145   5.586   5.259
12228TIP3    H236621   3.001   5.573   5.214
12229TIP3   OH236622   3.150   5.906   5.666
12229TIP3    H136623   3.195   5.822   5.679
12229TIP3    H236624   3.192   5.944   5.590
12230TIP3   OH236625   3.304   6.068   6.198
12230TIP3    H136626   3.385   6.085   6.149
12230TIP3    H236627   3.319   6.109   6.283
12231TIP3   OH236628   3.380   6.223   6.423
12231TIP3    H136629   3.304   6.250   6.475
12231TIP3    H236630   3.408   6.303   6.378
12232TIP3   OH236631   7.667   1.921   0.265
12232TIP3    H136632   7.762   1.916   0.277
12232TIP3    H236633   7.635   1.835   0.293
12233TIP3   OH236634   3.836   5.820   6.958
12233TIP3    H136635   3.901   5.764   6.916
12233TIP3    H236636   3.795   5.869   6.887
12234TIP3   OH236637   3.264   5.656   5.718
12234TIP3    H136638   3.307   5.642   5.802
12234TIP3    H236639   3.199   5.585   5.713
12235TIP3   OH236640   1.969   5.640   6.565
12235TIP3    H136641   2.021   5.560   6.561
12235TIP3    H236642   2.029   5.710   6.541
12236TIP3   OH236643   1.752   5.908   6.596
12236TIP3    H136644   1.804   5.892   6.517
12236TIP3    H236645   1.787   5.991   6.631
12237TIP3   OH236646   3.684   5.929   6.757
12237TIP3    H136647   3.598   5.968   6.767
12237TIP3    H236648   3.669   5.850   6.705
12238TIP3   OH236649   3.309   5.567   5.354
12238TIP3    H136650   3.359   5.506   5.300
12238TIP3    H236651   3.366   5.645   5.360
12239TIP3   OH236652   1.752   5.429   6.123
12239TIP3    H136653   1.664   5.406   6.155
12239TIP3    H236654   1.736   5.474   6.040
12240TIP3   OH236655   2.905   7.128   5.625
12240TIP3    H136656   2.962   7.120   5.549
12240TIP3    H236657   2.943   7.201   5.675
12241TIP3   OH236658   7.644   1.485   0.008
12241TIP3    H136659   7.585   1.461   0.079
12241TIP3    H236660   7.587   1.522  -0.060
12242TIP3   OH236661   7.679   2.923   0.071
12242TIP3    H136662   7.586   2.912   0.050
12242TIP3    H236663   7.687   2.894   0.162
12243TIP3   OH236664   2.204   6.972   6.554
12243TIP3    H136665   2.153   7.046   6.522
12243TIP3    H236666   2.289   6.981   6.511
12244TIP3   OH236667   2.600   7.201   6.697
12244TIP3    H136668   2.639   7.195   6.784
12244TIP3    H236669   2.661   7.256   6.647
12245TIP3   OH236670   2.787   7.356   6.567
12245TIP3    H136671   2.843   7.305   6.508
12245TIP3    H236672   2.848   7.407   6.620
12246TIP3   OH236673   3.601   5.678   6.656
12246TIP3    H136674   3.513   5.666   6.622
12246TIP3    H236675   3.641   5.591   6.650
12247TIP3   OH236676   1.866   7.203   6.601
12247TIP3    H136677   1.777   7.222   6.570
12247TIP3    H236678   1.886   7.275   6.660
12248TIP3   OH236679   2.097   7.203   6.451
12248TIP3    H136680   2.013   7.206   6.497
12248TIP3    H236681   2.076   7.228   6.361
12249TIP3   OH236682   2.511   7.220   6.246
12249TIP3    H136683   2.441   7.229   6.182
12249TIP3    H236684   2.521   7.307   6.284
12250TIP3   OH236685   2.775   7.161   6.302
12250TIP3    H136686   2.684   7.177   6.279
12250TIP3    H236687   2.825   7.224   6.250
12251TIP3   OH236688   2.979   7.331   6.199
12251TIP3    H136689   2.973   7.418   6.158
12251TIP3    H236690   3.007   7.274   6.128
12252TIP3   OH236691   1.775   6.995   6.310
12252TIP3    H136692   1.801   6.975   6.400
12252TIP3    H236693   1.847   6.962   6.256
12253TIP3   OH236694   1.978   6.875   6.178
12253TIP3    H136695   1.990   6.791   6.224
12253TIP3    H236696   2.065   6.916   6.180
12254TIP3   OH236697   2.246   6.961   6.206
12254TIP3    H136698   2.265   6.868   6.191
12254TIP3    H236699   2.300   6.985   6.280
12255TIP3   OH236700   2.776   5.630   6.290
12255TIP3    H136701   2.738   5.567   6.350
12255TIP3    H236702   2.770   5.588   6.204
12256TIP3   OH236703   3.313   5.509   6.166
12256TIP3    H136704   3.347   5.562   6.095
12256TIP3    H236705   3.218   5.523   6.163
12257TIP3   OH236706   3.425   5.607   5.937
12257TIP3    H136707   3.495   5.547   5.911
12257TIP3    H236708   3.463   5.694   5.925
12258TIP3   OH236709   2.037   5.299   6.293
12258TIP3    H136710   1.947   5.266   6.288
12258TIP3    H236711   2.092   5.220   6.287
12259TIP3   OH236712   1.800   5.219   5.892
12259TIP3    H136713   1.859   5.264   5.831
12259TIP3    H236714   1.814   5.263   5.975
12260TIP3   OH236715   3.038   5.512   6.148
12260TIP3    H136716   2.955   5.518   6.101
12260TIP3    H236717   3.026   5.437   6.207
12261TIP3   OH236718   3.074   5.448   5.723
12261TIP3    H136719   2.997   5.500   5.745
12261TIP3    H236720   3.059   5.364   5.768
12262TIP3   OH236721   1.542   6.794   5.714
12262TIP3    H136722   1.461   6.760   5.674
12262TIP3    H236723   1.549   6.883   5.682
12263TIP3   OH236724   1.980   5.353   5.706
12263TIP3    H136725   2.026   5.291   5.649
12263TIP3    H236726   2.050   5.402   5.749
12264TIP3   OH236727   2.333   6.951   5.300
12264TIP3    H136728   2.416   6.974   5.260
12264TIP3    H236729   2.298   6.880   5.246
12265TIP3   OH236730   3.051   7.085   5.393
12265TIP3    H136731   3.043   6.990   5.388
12265TIP3    H236732   3.004   7.117   5.316
12266TIP3   OH236733   7.944   1.590   0.237
12266TIP3    H136734   7.911   1.522   0.295
12266TIP3    H236735   8.037   1.598   0.260
12267TIP3   OH236736   8.194   1.592   0.355
12267TIP3    H136737   8.269   1.571   0.300
12267TIP3    H236738   8.191   1.521   0.419
12268TIP3   OH236739   1.624   6.777   5.370
12268TIP3    H136740   1.636   6.815   5.456
12268TIP3    H236741   1.709   6.739   5.348
12269TIP3   OH236742   0.511   1.677   0.144
12269TIP3    H136743   0.530   1.648   0.234
12269TIP3    H236744   0.596   1.673   0.100
12270TIP3   OH236745   3.262   7.220   6.588
12270TIP3    H136746   3.188   7.191   6.535
12270TIP3    H236747   3.250   7.315   6.595
12271TIP3   OH236748   4.559   6.612   5.361
12271TIP3    H136749   4.599   6.694   5.388
12271TIP3    H236750   4.495   6.592   5.429
12272TIP3   OH236751   4.530   6.589   5.741
12272TIP3    H136752   4.581   6.585   5.822
12272TIP3    H236753   4.488   6.503   5.735
12273TIP3   OH236754   3.836   6.468   6.093
12273TIP3    H136755   3.875   6.415   6.163
12273TIP3    H236756   3.910   6.492   6.037
12274TIP3   OH236757   4.772   6.881   5.424
12274TIP3    H136758   4.789   6.820   5.496
12274TIP3    H236759   4.797   6.967   5.459
12275TIP3   OH236760   3.830   6.893   5.783
12275TIP3    H136761   3.812   6.799   5.784
12275TIP3    H236762   3.925   6.900   5.778
12276TIP3   OH236763   3.512   6.098   5.565
12276TIP3    H136764   3.471   6.180   5.591
12276TIP3    H236765   3.441   6.047   5.526
12277TIP3   OH236766   3.590   6.405   5.790
12277TIP3    H136767   3.639   6.327   5.816
12277TIP3    H236768   3.655   6.465   5.755
12278TIP3   OH236769   4.457   7.335   5.429
12278TIP3    H136770   4.474   7.274   5.357
12278TIP3    H236771   4.465   7.282   5.508
12279TIP3   OH236772   4.352   6.817   5.756
12279TIP3    H136773   4.396   6.734   5.736
12279TIP3    H236774   4.423   6.874   5.787
12280TIP3   OH236775   5.373   6.146   5.769
12280TIP3    H136776   5.391   6.231   5.810
12280TIP3    H236777   5.405   6.156   5.679
12281TIP3   OH236778   4.751   6.309   5.790
12281TIP3    H136779   4.789   6.227   5.819
12281TIP3    H236780   4.713   6.289   5.705
12282TIP3   OH236781   4.110   5.971   5.747
12282TIP3    H136782   4.085   6.044   5.690
12282TIP3    H236783   4.055   5.898   5.719
12283TIP3   OH236784   4.804   6.072   5.381
12283TIP3    H136785   4.867   6.068   5.453
12283TIP3    H236786   4.854   6.104   5.306
12284TIP3   OH236787   3.731   6.184   5.880
12284TIP3    H136788   3.814   6.164   5.924
12284TIP3    H236789   3.733   6.132   5.800
12285TIP3   OH236790   4.152   6.385   5.690
12285TIP3    H136791   4.245   6.363   5.701
12285TIP3    H236792   4.112   6.303   5.660
12286TIP3   OH236793   5.430   6.365   5.936
12286TIP3    H136794   5.343   6.404   5.931
12286TIP3    H236795   5.468   6.400   6.017
12287TIP3   OH236796   4.087   5.976   6.203
12287TIP3    H136797   4.037   6.009   6.128
12287TIP3    H236798   4.031   5.992   6.278
12288TIP3   OH236799   4.179   6.751   5.964
12288TIP3    H136800   4.126   6.822   5.999
12288TIP3    H236801   4.229   6.791   5.893
12289TIP3   OH236802   4.957   6.107   5.603
12289TIP3    H136803   4.925   6.078   5.689
12289TIP3    H236804   5.020   6.176   5.623
12290TIP3   OH236805   3.980   6.080   5.970
12290TIP3    H136806   4.034   6.156   5.993
12290TIP3    H236807   4.027   6.038   5.898
12291TIP3   OH236808   4.025   6.954   6.073
12291TIP3    H136809   4.012   7.044   6.043
12291TIP3    H236810   3.947   6.934   6.124
12292TIP3   OH236811   3.406   6.654   5.331
12292TIP3    H136812   3.368   6.672   5.245
12292TIP3    H236813   3.427   6.740   5.367
12293TIP3   OH236814   4.828   7.126   5.555
12293TIP3    H136815   4.746   7.133   5.604
12293TIP3    H236816   4.835   7.211   5.510
12294TIP3   OH236817   5.176   6.035   5.941
12294TIP3    H136818   5.090   6.058   5.905
12294TIP3    H236819   5.238   6.062   5.874
12295TIP3   OH236820   4.430   5.666   5.934
12295TIP3    H136821   4.421   5.574   5.959
12295TIP3    H236822   4.353   5.708   5.972
12296TIP3   OH236823   4.531   7.184   5.209
12296TIP3    H136824   4.571   7.097   5.200
12296TIP3    H236825   4.599   7.245   5.180
12297TIP3   OH236826   4.666   6.946   5.176
12297TIP3    H136827   4.697   6.885   5.110
12297TIP3    H236828   4.710   6.919   5.256
12298TIP3   OH236829   5.061   7.059   5.911
12298TIP3    H136830   5.052   6.987   5.849
12298TIP3    H236831   5.037   7.137   5.862
12299TIP3   OH236832   4.297   6.552   5.131
12299TIP3    H136833   4.236   6.486   5.098
12299TIP3    H236834   4.379   6.535   5.084
12300TIP3   OH236835   4.333   6.258   4.874
12300TIP3    H136836   4.397   6.309   4.924
12300TIP3    H236837   4.385   6.192   4.828
12301TIP3   OH236838   5.257   6.707   5.773
12301TIP3    H136839   5.174   6.757   5.774
12301TIP3    H236840   5.291   6.721   5.684
12302TIP3   OH236841   4.716   6.543   5.145
12302TIP3    H136842   4.666   6.567   5.222
12302TIP3    H236843   4.801   6.513   5.180
12303TIP3   OH236844   4.951   6.565   6.082
12303TIP3    H136845   4.948   6.649   6.129
12303TIP3    H236846   4.870   6.563   6.031
12304TIP3   OH236847   3.984   6.535   5.522
12304TIP3    H136848   3.935   6.475   5.466
12304TIP3    H236849   4.043   6.477   5.572
12305TIP3   OH236850   4.095   6.939   5.691
12305TIP3    H136851   4.068   6.923   5.601
12305TIP3    H236852   4.182   6.901   5.697
12306TIP3   OH236853   4.052   6.513   5.916
12306TIP3    H136854   4.093   6.477   5.837
12306TIP3    H236855   4.099   6.595   5.933
12307TIP3   OH236856   4.602   7.149   5.711
12307TIP3    H136857   4.600   7.226   5.768
12307TIP3    H236858   4.591   7.075   5.770
12308TIP3   OH236859   4.221   7.047   6.246
12308TIP3    H136860   4.160   7.105   6.292
12308TIP3    H236861   4.166   6.997   6.186
12309TIP3   OH236862   4.533   6.418   4.986
12309TIP3    H136863   4.599   6.466   5.035
12309TIP3    H236864   4.563   6.422   4.895
12310TIP3   OH236865   3.976   6.593   6.389
12310TIP3    H136866   3.981   6.687   6.405
12310TIP3    H236867   3.883   6.574   6.382
12311TIP3   OH236868   4.014   7.209   6.327
12311TIP3    H136869   3.990   7.221   6.235
12311TIP3    H236870   3.930   7.195   6.372
12312TIP3   OH236871   5.060   5.624   5.023
12312TIP3    H136872   4.985   5.646   5.078
12312TIP3    H236873   5.072   5.701   4.967
12313TIP3   OH236874   3.830   6.374   5.346
12313TIP3    H136875   3.752   6.417   5.312
12313TIP3    H236876   3.801   6.285   5.367
12314TIP3   OH236877   4.889   7.004   4.577
12314TIP3    H136878   4.886   7.097   4.556
12314TIP3    H236879   4.978   6.978   4.555
12315TIP3   OH236880   3.609   6.764   6.278
12315TIP3    H136881   3.538   6.747   6.215
12315TIP3    H236882   3.642   6.677   6.300
12316TIP3   OH236883   3.452   6.957   5.928
12316TIP3    H136884   3.544   6.979   5.940
12316TIP3    H236885   3.405   7.035   5.959
12317TIP3   OH236886   5.339   7.395   6.018
12317TIP3    H136887   5.330   7.300   6.020
12317TIP3    H236888   5.252   7.428   6.039
12318TIP3   OH236889   4.401   7.196   6.101
12318TIP3    H136890   4.392   7.286   6.131
12318TIP3    H236891   4.337   7.147   6.154
12319TIP3   OH236892   3.622   7.154   5.437
12319TIP3    H136893   3.671   7.144   5.518
12319TIP3    H236894   3.578   7.069   5.425
12320TIP3   OH236895   4.392   7.227   4.686
12320TIP3    H136896   4.443   7.153   4.655
12320TIP3    H236897   4.412   7.234   4.779
12321TIP3   OH236898   4.403   7.250   4.966
12321TIP3    H136899   4.320   7.203   4.973
12321TIP3    H236900   4.451   7.227   5.045
12322TIP3   OH236901   5.193   6.526   6.243
12322TIP3    H136902   5.112   6.537   6.193
12322TIP3    H236903   5.213   6.433   6.234
12323TIP3   OH236904   3.808   6.951   6.244
12323TIP3    H136905   3.858   6.938   6.324
12323TIP3    H236906   3.736   6.889   6.250
12324TIP3   OH236907   4.194   5.759   6.059
12324TIP3    H136908   4.110   5.724   6.028
12324TIP3    H236909   4.170   5.839   6.106
12325TIP3   OH236910   4.733   5.879   6.258
12325TIP3    H136911   4.803   5.853   6.319
12325TIP3    H236912   4.652   5.863   6.306
12326TIP3   OH236913   4.951   6.299   6.171
12326TIP3    H136914   4.912   6.297   6.259
12326TIP3    H236915   4.938   6.389   6.142
12327TIP3   OH236916   4.626   6.401   4.728
12327TIP3    H136917   4.581   6.395   4.644
12327TIP3    H236918   4.711   6.439   4.707
12328TIP3   OH236919   4.343   5.802   5.026
12328TIP3    H136920   4.306   5.809   5.114
12328TIP3    H236921   4.306   5.720   4.992
12329TIP3   OH236922   4.129   6.293   6.067
12329TIP3    H136923   4.083   6.299   6.151
12329TIP3    H236924   4.107   6.374   6.021
12330TIP3   OH236925   4.009   6.171   5.588
12330TIP3    H136926   3.920   6.145   5.614
12330TIP3    H236927   4.019   6.137   5.499
12331TIP3   OH236928   4.503   6.259   5.306
12331TIP3    H136929   4.487   6.345   5.269
12331TIP3    H236930   4.558   6.215   5.241
12332TIP3   OH236931   4.675   6.508   6.382
12332TIP3    H136932   4.650   6.441   6.446
12332TIP3    H236933   4.769   6.522   6.398
12333TIP3   OH236934   4.656   6.251   5.540
12333TIP3    H136935   4.592   6.271   5.472
12333TIP3    H236936   4.708   6.179   5.503
12334TIP3   OH236937   3.967   6.309   6.287
12334TIP3    H136938   3.975   6.373   6.357
12334TIP3    H236939   3.947   6.227   6.332
12335TIP3   OH236940   4.011   5.783   5.002
12335TIP3    H136941   4.001   5.785   5.097
12335TIP3    H236942   3.931   5.825   4.969
12336TIP3   OH236943   3.557   5.830   5.863
12336TIP3    H136944   3.633   5.861   5.913
12336TIP3    H236945   3.593   5.803   5.779
12337TIP3   OH236946   3.465   5.800   5.372
12337TIP3    H136947   3.512   5.836   5.296
12337TIP3    H236948   3.401   5.867   5.395
12338TIP3   OH236949   4.699   6.515   5.958
12338TIP3    H136950   4.724   6.447   5.896
12338TIP3    H236951   4.654   6.469   6.029
12339TIP3   OH236952   4.378   5.968   5.635
12339TIP3    H136953   4.299   5.964   5.690
12339TIP3    H236954   4.450   5.954   5.697
12340TIP3   OH236955   3.771   6.045   5.647
12340TIP3    H136956   3.683   6.050   5.611
12340TIP3    H236957   3.798   5.954   5.633
12341TIP3   OH236958   4.029   6.050   5.343
12341TIP3    H136959   4.123   6.059   5.329
12341TIP3    H236960   3.990   6.065   5.256
12342TIP3   OH236961   4.831   6.049   5.850
12342TIP3    H136962   4.807   6.066   5.941
12342TIP3    H236963   4.767   5.985   5.820
12343TIP3   OH236964   3.911   6.070   5.096
12343TIP3    H136965   3.847   6.021   5.045
12343TIP3    H236966   3.963   6.118   5.031
12344TIP3   OH236967   5.011   7.734   6.061
12344TIP3    H136968   5.005   7.726   5.966
12344TIP3    H236969   5.091   7.783   6.077
12345TIP3   OH236970   3.960   6.861   6.477
12345TIP3    H136971   4.041   6.882   6.524
12345TIP3    H236972   3.891   6.870   6.542
12346TIP3   OH236973   4.422   6.324   5.744
12346TIP3    H136974   4.487   6.270   5.699
12346TIP3    H236975   4.418   6.287   5.832
12347TIP3   OH236976   3.918   5.796   5.635
12347TIP3    H136977   3.889   5.722   5.688
12347TIP3    H236978   3.939   5.758   5.549
12348TIP3   OH236979   4.394   6.236   6.009
12348TIP3    H136980   4.307   6.267   6.035
12348TIP3    H236981   4.455   6.288   6.062
12349TIP3   OH236982   5.024   6.851   5.731
12349TIP3    H136983   5.062   6.901   5.658
12349TIP3    H236984   4.947   6.809   5.694
12350TIP3   OH236985   4.596   5.902   5.032
12350TIP3    H136986   4.503   5.881   5.027
12350TIP3    H236987   4.599   5.998   5.040
12351TIP3   OH236988   4.521   6.911   6.145
12351TIP3    H136989   4.581   6.904   6.219
12351TIP3    H236990   4.493   7.003   6.145
12352TIP3   OH236991   4.662   6.171   5.093
12352TIP3    H136992   4.757   6.167   5.104
12352TIP3    H236993   4.648   6.245   5.034
12353TIP3   OH236994   3.834   6.605   5.754
12353TIP3    H136995   3.877   6.594   5.670
12353TIP3    H236996   3.896   6.572   5.819
12354TIP3   OH236997   3.702   6.528   6.408
12354TIP3    H136998   3.703   6.502   6.500
12354TIP3    H236999   3.627   6.483   6.371
12355TIP3   OH237000   4.445   6.664   6.428
12355TIP3    H137001   4.375   6.605   6.401
12355TIP3    H237002   4.525   6.621   6.398
12356TIP3   OH237003   4.672   7.173   6.053
12356TIP3    H137004   4.577   7.187   6.049
12356TIP3    H237005   4.702   7.234   6.121
12357TIP3   OH237006   5.070   6.257   4.917
12357TIP3    H137007   5.013   6.213   4.855
12357TIP3    H237008   5.077   6.347   4.883
12358TIP3   OH237009   5.314   7.108   6.004
12358TIP3    H137010   5.219   7.107   5.990
12358TIP3    H237011   5.351   7.089   5.918
12359TIP3   OH237012   4.814   7.070   4.839
12359TIP3    H137013   4.776   6.996   4.886
12359TIP3    H237014   4.835   7.035   4.752
12360TIP3   OH237015   4.800   6.697   5.630
12360TIP3    H137016   4.716   6.675   5.671
12360TIP3    H237017   4.834   6.614   5.599
12361TIP3   OH237018   3.965   6.926   5.443
12361TIP3    H137019   3.958   7.010   5.398
12361TIP3    H237020   3.875   6.900   5.463
12362TIP3   OH237021   3.504   6.232   5.151
12362TIP3    H137022   3.548   6.315   5.172
12362TIP3    H237023   3.425   6.232   5.204
12363TIP3   OH237024   4.120   6.715   5.354
12363TIP3    H137025   4.073   6.796   5.376
12363TIP3    H237026   4.081   6.649   5.411
12364TIP3   OH237027   4.228   7.270   5.891
12364TIP3    H137028   4.266   7.342   5.841
12364TIP3    H237029   4.300   7.237   5.945
12365TIP3   OH237030   3.884   7.167   5.339
12365TIP3    H137031   3.790   7.175   5.350
12365TIP3    H237032   3.911   7.253   5.306
12366TIP3   OH237033   4.587   6.917   5.875
12366TIP3    H137034   4.558   6.911   5.967
12366TIP3    H237035   4.681   6.901   5.878
12367TIP3   OH237036   4.569   6.804   4.744
12367TIP3    H137037   4.609   6.789   4.830
12367TIP3    H237038   4.481   6.767   4.751
12368TIP3   OH237039   4.889   7.279   4.547
12368TIP3    H137040   4.922   7.347   4.489
12368TIP3    H237041   4.815   7.319   4.592
12369TIP3   OH237042   3.912   6.055   6.406
12369TIP3    H137043   3.817   6.065   6.409
12369TIP3    H237044   3.932   5.998   6.480
12370TIP3   OH237045   4.748   6.760   4.971
12370TIP3    H137046   4.731   6.683   5.025
12370TIP3    H237047   4.841   6.755   4.949
12371TIP3   OH237048   3.657   7.161   6.058
12371TIP3    H137049   3.709   7.100   6.111
12371TIP3    H237050   3.673   7.247   6.097
12372TIP3   OH237051   4.017   6.733   4.752
12372TIP3    H137052   3.986   6.645   4.730
12372TIP3    H237053   3.978   6.752   4.837
12373TIP3   OH237054   3.874   6.794   4.999
12373TIP3    H137055   3.896   6.728   5.063
12373TIP3    H237056   3.946   6.857   5.002
12374TIP3   OH237057   3.603   6.486   5.229
12374TIP3    H137058   3.537   6.531   5.282
12374TIP3    H237059   3.620   6.545   5.156
12375TIP3   OH237060   4.759   6.110   6.109
12375TIP3    H137061   4.837   6.156   6.141
12375TIP3    H237062   4.751   6.033   6.165
12376TIP3   OH237063   4.655   5.852   5.299
12376TIP3    H137064   4.634   5.869   5.207
12376TIP3    H237065   4.700   5.931   5.328
12377TIP3   OH237066   4.313   6.063   5.381
12377TIP3    H137067   4.375   6.131   5.355
12377TIP3    H237068   4.335   6.043   5.472
12378TIP3   OH237069   4.602   6.349   6.156
12378TIP3    H137070   4.627   6.392   6.238
12378TIP3    H237071   4.651   6.267   6.156
12379TIP3   OH237072   4.468   5.750   5.476
12379TIP3    H137073   4.446   5.829   5.526
12379TIP3    H237074   4.538   5.778   5.417
12380TIP3   OH237075   3.983   5.775   5.281
12380TIP3    H137076   3.970   5.865   5.311
12380TIP3    H237077   4.077   5.761   5.287
12381TIP3   OH237078   5.218   6.257   6.157
12381TIP3    H137079   5.123   6.258   6.165
12381TIP3    H237080   5.235   6.204   6.079
12382TIP3   OH237081   4.884   6.443   5.540
12382TIP3    H137082   4.812   6.382   5.555
12382TIP3    H237083   4.957   6.408   5.591
12383TIP3   OH237084   3.620   6.672   5.012
12383TIP3    H137085   3.683   6.744   5.010
12383TIP3    H237086   3.655   6.608   4.950
12384TIP3   OH237087   3.531   5.953   5.153
12384TIP3    H137088   3.543   6.048   5.160
12384TIP3    H237089   3.465   5.942   5.085
12385TIP3   OH237090   4.862   7.386   5.471
12385TIP3    H137091   4.816   7.450   5.417
12385TIP3    H237092   4.949   7.423   5.483
12386TIP3   OH237093   3.934   5.670   6.020
12386TIP3    H137094   3.904   5.637   5.935
12386TIP3    H237095   3.923   5.595   6.079
12387TIP3   OH237096   3.453   6.923   5.415
12387TIP3    H137097   3.411   6.961   5.493
12387TIP3    H237098   3.411   6.966   5.341
12388TIP3   OH237099   3.655   7.461   6.477
12388TIP3    H137100   3.736   7.466   6.527
12388TIP3    H237101   3.640   7.368   6.464
12389TIP3   OH237102   4.115   7.376   6.522
12389TIP3    H137103   4.208   7.358   6.532
12389TIP3    H237104   4.086   7.319   6.450
12390TIP3   OH237105   4.090   6.972   4.637
12390TIP3    H137106   4.062   6.898   4.692
12390TIP3    H237107   4.169   6.941   4.593
12391TIP3   OH237108   4.738   7.319   6.278
12391TIP3    H137109   4.757   7.249   6.340
12391TIP3    H237110   4.812   7.378   6.285
12392TIP3   OH237111   4.527   7.017   4.571
12392TIP3    H137112   4.559   6.950   4.632
12392TIP3    H237113   4.585   7.010   4.495
12393TIP3   OH237114   3.756   6.861   6.667
12393TIP3    H137115   3.773   6.768   6.678
12393TIP3    H237116   3.670   6.865   6.626
12394TIP3   OH237117   3.743   6.476   4.867
12394TIP3    H137118   3.794   6.451   4.944
12394TIP3    H237119   3.808   6.483   4.797
12395TIP3   OH237120   4.378   6.938   6.445
12395TIP3    H137121   4.334   6.961   6.363
12395TIP3    H237122   4.413   6.850   6.430
12396TIP3   OH237123   4.307   6.696   4.715
12396TIP3    H137124   4.228   6.720   4.762
12396TIP3    H237125   4.295   6.604   4.693
12397TIP3   OH237126   4.841   6.960   6.045
12397TIP3    H137127   4.919   6.998   6.003
12397TIP3    H237128   4.778   7.032   6.049
12398TIP3   OH237129   3.872   6.607   6.676
12398TIP3    H137130   3.946   6.591   6.618
12398TIP3    H237131   3.911   6.626   6.761
12399TIP3   OH237132   3.917   6.416   5.074
12399TIP3    H137133   3.902   6.388   5.164
12399TIP3    H237134   3.967   6.344   5.035
12400TIP3   OH237135   4.237   6.492   6.335
12400TIP3    H137136   4.150   6.531   6.345
12400TIP3    H237137   4.267   6.522   6.249
12401TIP3   OH237138   4.061   6.227   4.925
12401TIP3    H137139   4.028   6.226   4.835
12401TIP3    H237140   4.156   6.230   4.916
12402TIP3   OH237141   4.738   6.860   6.414
12402TIP3    H137142   4.807   6.823   6.359
12402TIP3    H237143   4.729   6.798   6.487
12403TIP3   OH237144   4.851   6.512   4.609
12403TIP3    H137145   4.838   6.470   4.524
12403TIP3    H237146   4.828   6.604   4.594
12404TIP3   OH237147   4.340   6.260   6.441
12404TIP3    H137148   4.342   6.189   6.376
12404TIP3    H237149   4.305   6.335   6.393
12405TIP3   OH237150   4.347   6.061   6.238
12405TIP3    H137151   4.374   6.097   6.153
12405TIP3    H237152   4.256   6.034   6.224
12406TIP3   OH237153   4.351   6.595   6.110
12406TIP3    H137154   4.436   6.639   6.108
12406TIP3    H237155   4.293   6.652   6.059
12407TIP3   OH237156   4.947   6.541   6.473
12407TIP3    H137157   4.987   6.454   6.478
12407TIP3    H237158   5.021   6.601   6.459
12408TIP3   OH237159   4.976   6.807   6.224
12408TIP3    H137160   4.919   6.862   6.169
12408TIP3    H237161   5.064   6.824   6.192
12409TIP3   OH237162   4.223   6.339   6.684
12409TIP3    H137163   4.153   6.277   6.703
12409TIP3    H237164   4.251   6.317   6.595
12410TIP3   OH237165   4.468   5.829   6.340
12410TIP3    H137166   4.428   5.909   6.307
12410TIP3    H237167   4.402   5.762   6.327
12411TIP3   OH237168   4.595   6.300   6.543
12411TIP3    H137169   4.585   6.287   6.638
12411TIP3    H237170   4.509   6.279   6.507
12412TIP3   OH237171   4.841   6.258   6.414
12412TIP3    H137172   4.763   6.256   6.468
12412TIP3    H237173   4.912   6.229   6.472
12413TIP3   OH237174   5.074   6.214   6.560
12413TIP3    H137175   5.089   6.119   6.566
12413TIP3    H237176   5.069   6.243   6.651
12414TIP3   OH237177   4.053   6.123   6.748
12414TIP3    H137178   4.058   6.035   6.711
12414TIP3    H237179   4.092   6.115   6.835
12415TIP3   OH237180   4.533   5.803   6.606
12415TIP3    H137181   4.602   5.737   6.598
12415TIP3    H237182   4.503   5.816   6.516
12416TIP3   OH237183   4.629   6.017   6.751
12416TIP3    H137184   4.597   5.945   6.696
12416TIP3    H237185   4.556   6.080   6.752
12417TIP3   OH237186   3.841   7.225   4.789
12417TIP3    H137187   3.935   7.218   4.808
12417TIP3    H237188   3.835   7.297   4.726
12418TIP3   OH237189   3.348   6.653   5.044
12418TIP3    H137190   3.443   6.668   5.036
12418TIP3    H237191   3.334   6.568   5.001
12419TIP3   OH237192   3.251   7.239   5.498
12419TIP3    H137193   3.188   7.185   5.449
12419TIP3    H237194   3.296   7.177   5.555
12420TIP3   OH237195   3.394   7.068   5.663
12420TIP3    H137196   3.384   7.000   5.729
12420TIP3    H237197   3.448   7.135   5.705
12421TIP3   OH237198   5.112   7.492   5.524
12421TIP3    H137199   5.087   7.542   5.602
12421TIP3    H237200   5.162   7.554   5.471
12422TIP3   OH237201   5.216   7.206   6.323
12422TIP3    H137202   5.136   7.218   6.375
12422TIP3    H237203   5.259   7.291   6.325
12423TIP3   OH237204   5.023   6.725   4.937
12423TIP3    H137205   5.081   6.793   4.904
12423TIP3    H237206   5.072   6.685   5.010
12424TIP3   OH237207   5.156   6.580   5.136
12424TIP3    H137208   5.090   6.542   5.194
12424TIP3    H237209   5.224   6.612   5.195
12425TIP3   OH237210   5.204   6.988   5.567
12425TIP3    H137211   5.257   6.924   5.520
12425TIP3    H237212   5.204   7.066   5.511
12426TIP3   OH237213   4.989   7.271   5.755
12426TIP3    H137214   4.998   7.361   5.724
12426TIP3    H237215   4.943   7.225   5.685
12427TIP3   OH237216   5.063   6.498   4.783
12427TIP3    H137217   4.991   6.496   4.720
12427TIP3    H237218   5.047   6.577   4.835
12428TIP3   OH237219   4.911   6.150   4.722
12428TIP3    H137220   4.871   6.185   4.643
12428TIP3    H237221   4.903   6.055   4.713
12429TIP3   OH237222   4.945   6.439   5.268
12429TIP3    H137223   4.957   6.345   5.252
12429TIP3    H237224   4.931   6.446   5.363
12430TIP3   OH237225   3.571   6.502   6.045
12430TIP3    H137226   3.561   6.470   5.956
12430TIP3    H237227   3.665   6.499   6.061
12431TIP3   OH237228   5.231   6.859   6.130
12431TIP3    H137229   5.298   6.793   6.110
12431TIP3    H237230   5.255   6.934   6.075
12432TIP3   OH237231   5.408   6.648   6.121
12432TIP3    H137232   5.333   6.606   6.165
12432TIP3    H237233   5.483   6.592   6.143
12433TIP3   OH237234   4.873   5.880   4.691
12433TIP3    H137235   4.942   5.851   4.751
12433TIP3    H237236   4.794   5.836   4.721
12434TIP3   OH237237   4.948   6.160   5.153
12434TIP3    H137238   4.994   6.078   5.168
12434TIP3    H237239   4.991   6.198   5.077
12435TIP3   OH237240   5.104   6.333   5.675
12435TIP3    H137241   5.185   6.350   5.628
12435TIP3    H237242   5.119   6.371   5.762
12436TIP3   OH237243   5.172   6.480   5.906
12436TIP3    H137244   5.098   6.509   5.960
12436TIP3    H237245   5.203   6.560   5.863
12437TIP3   OH237246   3.788   6.180   6.691
12437TIP3    H137247   3.882   6.176   6.707
12437TIP3    H237248   3.753   6.098   6.727
12438TIP3   OH237249   5.628   6.079   6.443
12438TIP3    H137250   5.694   6.020   6.406
12438TIP3    H237251   5.594   6.128   6.368
12439TIP3   OH237252   5.063   5.913   5.212
12439TIP3    H137253   5.109   5.899   5.294
12439TIP3    H237254   5.002   5.840   5.205
12440TIP3   OH237255   3.771   5.895   6.029
12440TIP3    H137256   3.824   5.815   6.038
12440TIP3    H237257   3.835   5.964   6.013
12441TIP3   OH237258   3.549   6.156   6.099
12441TIP3    H137259   3.598   6.144   6.018
12441TIP3    H237260   3.573   6.244   6.129
12442TIP3   OH237261   5.481   6.196   6.248
12442TIP3    H137262   5.399   6.235   6.278
12442TIP3    H237263   5.454   6.121   6.195
12443TIP3   OH237264   5.101   5.830   4.844
12443TIP3    H137265   5.147   5.769   4.785
12443TIP3    H237266   5.159   5.905   4.850
12444TIP3   OH237267   3.536   5.677   5.605
12444TIP3    H137268   3.450   5.660   5.643
12444TIP3    H237269   3.518   5.727   5.525
12445TIP3   OH237270   4.693   7.378   5.113
12445TIP3    H137271   4.751   7.368   5.038
12445TIP3    H237272   4.741   7.435   5.173
12446TIP3   OH237273   3.760   5.730   6.425
12446TIP3    H137274   3.706   5.717   6.503
12446TIP3    H237275   3.704   5.777   6.364
12447TIP3   OH237276   3.788   7.183   6.490
12447TIP3    H137277   3.694   7.163   6.483
12447TIP3    H237278   3.807   7.175   6.584
12448TIP3   OH237279   4.002   7.231   6.045
12448TIP3    H137280   3.950   7.304   6.013
12448TIP3    H237281   4.086   7.240   5.999
12449TIP3   OH237282   4.388   7.461   6.181
12449TIP3    H137283   4.431   7.454   6.267
12449TIP3    H237284   4.448   7.513   6.128
12450TIP3   OH237285   4.570   7.608   6.038
12450TIP3    H137286   4.618   7.553   5.975
12450TIP3    H237287   4.639   7.657   6.083
12451TIP3   OH237288   5.388   5.954   6.142
12451TIP3    H137289   5.306   5.948   6.094
12451TIP3    H237290   5.427   5.867   6.134
12452TIP3   OH237291   3.661   7.467   6.092
12452TIP3    H137292   3.569   7.484   6.069
12452TIP3    H237293   3.683   7.534   6.156
12453TIP3   OH237294   3.890   7.459   5.940
12453TIP3    H137295   3.807   7.464   5.987
12453TIP3    H237296   3.868   7.481   5.850
12454TIP3   OH237297   4.312   7.479   5.728
12454TIP3    H137298   4.239   7.487   5.666
12454TIP3    H237299   4.319   7.565   5.769
12455TIP3   OH237300   4.577   7.419   5.797
12455TIP3    H137301   4.488   7.437   5.767
12455TIP3    H237302   4.632   7.445   5.723
12456TIP3   OH237303   3.569   7.247   5.808
12456TIP3    H137304   3.596   7.223   5.897
12456TIP3    H237305   3.640   7.215   5.753
12457TIP3   OH237306   3.773   7.135   5.668
12457TIP3    H137307   3.785   7.050   5.711
12457TIP3    H237308   3.860   7.175   5.667
12458TIP3   OH237309   4.042   7.218   5.690
12458TIP3    H137310   4.062   7.125   5.677
12458TIP3    H237311   4.096   7.244   5.765
12459TIP3   OH237312   4.603   5.868   5.774
12459TIP3    H137313   4.566   5.795   5.824
12459TIP3    H237314   4.672   5.827   5.721
12460TIP3   OH237315   5.107   5.774   5.668
12460TIP3    H137316   5.146   5.822   5.595
12460TIP3    H237317   5.014   5.797   5.665
12461TIP3   OH237318   5.220   5.863   5.434
12461TIP3    H137319   5.284   5.800   5.403
12461TIP3    H237320   5.262   5.948   5.422
12462TIP3   OH237321   3.845   5.569   5.778
12462TIP3    H137322   3.756   5.536   5.787
12462TIP3    H237323   3.899   5.491   5.768
12463TIP3   OH237324   3.664   5.482   5.436
12463TIP3    H137325   3.687   5.530   5.357
12463TIP3    H237326   3.627   5.548   5.495
12464TIP3   OH237327   4.321   5.609   5.673
12464TIP3    H137328   4.369   5.654   5.604
12464TIP3    H237329   4.363   5.636   5.754
12465TIP3   OH237330   4.821   5.757   5.641
12465TIP3    H137331   4.835   5.722   5.553
12465TIP3    H237332   4.823   5.680   5.698
12466TIP3   OH237333   4.877   5.703   5.214
12466TIP3    H137334   4.796   5.749   5.238
12466TIP3    H237335   4.866   5.616   5.251
12467TIP3   OH237336   3.339   7.046   5.199
12467TIP3    H137337   3.255   7.009   5.171
12467TIP3    H237338   3.338   7.136   5.167
12468TIP3   OH237339   3.770   5.609   5.195
12468TIP3    H137340   3.814   5.545   5.138
12468TIP3    H237341   3.841   5.663   5.230
12469TIP3   OH237342   4.258   5.808   5.290
12469TIP3    H137343   4.315   5.753   5.344
12469TIP3    H237344   4.277   5.898   5.318
12470TIP3   OH237345   4.119   7.220   4.756
12470TIP3    H137346   4.209   7.239   4.731
12470TIP3    H237347   4.103   7.131   4.725
12471TIP3   OH237348   4.848   7.338   4.885
12471TIP3    H137349   4.841   7.243   4.875
12471TIP3    H237350   4.802   7.373   4.809
12472TIP3   OH237351   4.069   5.853   6.663
12472TIP3    H137352   4.035   5.785   6.721
12472TIP3    H237353   4.161   5.860   6.687
12473TIP3   OH237354   4.318   5.858   6.784
12473TIP3    H137355   4.394   5.835   6.731
12473TIP3    H237356   4.311   5.788   6.848
12474TIP3   OH237357   3.394   7.028   4.863
12474TIP3    H137358   3.406   7.055   4.954
12474TIP3    H237359   3.481   7.003   4.833
12475TIP3   OH237360   5.141   5.946   6.565
12475TIP3    H137361   5.157   5.916   6.655
12475TIP3    H237362   5.226   5.940   6.522
12476TIP3   OH237363   5.074   7.465   6.064
12476TIP3    H137364   5.033   7.432   5.983
12476TIP3    H237365   5.052   7.558   6.065
12477TIP3   OH237366   6.336   6.862   4.817
12477TIP3    H137367   6.306   6.950   4.791
12477TIP3    H237368   6.265   6.805   4.790
12478TIP3   OH237369   6.337   6.860   5.223
12478TIP3    H137370   6.382   6.845   5.306
12478TIP3    H237371   6.283   6.782   5.211
12479TIP3   OH237372   5.630   6.723   5.582
12479TIP3    H137373   5.667   6.671   5.653
12479TIP3    H237374   5.704   6.743   5.525
12480TIP3   OH237375   6.605   7.163   4.911
12480TIP3    H137376   6.590   7.097   4.979
12480TIP3    H237377   6.626   7.243   4.960
12481TIP3   OH237378   5.628   7.145   5.261
12481TIP3    H137379   5.609   7.052   5.272
12481TIP3    H237380   5.723   7.150   5.256
12482TIP3   OH237381   5.309   6.354   5.053
12482TIP3    H137382   5.270   6.438   5.078
12482TIP3    H237383   5.236   6.305   5.014
12483TIP3   OH237384   5.391   6.655   5.276
12483TIP3    H137385   5.443   6.579   5.302
12483TIP3    H237386   5.455   6.721   5.251
12484TIP3   OH237387   6.251   7.598   4.923
12484TIP3    H137388   6.283   7.534   4.859
12484TIP3    H237389   6.260   7.554   5.008
12485TIP3   OH237390   6.142   7.083   5.238
12485TIP3    H137391   6.185   7.006   5.202
12485TIP3    H237392   6.213   7.136   5.275
12486TIP3   OH237393   7.173   6.398   5.257
12486TIP3    H137394   7.190   6.481   5.301
12486TIP3    H237395   7.205   6.411   5.168
12487TIP3   OH237396   6.515   6.535   5.277
12487TIP3    H137397   6.574   6.467   5.308
12487TIP3    H237398   6.481   6.501   5.193
12488TIP3   OH237399   6.603   6.326   4.867
12488TIP3    H137400   6.670   6.326   4.935
12488TIP3    H237401   6.646   6.363   4.790
12489TIP3   OH237402   5.541   6.438   5.367
12489TIP3    H137403   5.628   6.424   5.406
12489TIP3    H237404   5.544   6.390   5.285
12490TIP3   OH237405   5.942   6.643   5.183
12490TIP3    H137406   6.036   6.628   5.193
12490TIP3    H237407   5.908   6.559   5.150
12491TIP3   OH237408   7.226   6.616   5.424
12491TIP3    H137409   7.137   6.652   5.420
12491TIP3    H237410   7.264   6.653   5.504
12492TIP3   OH237411   5.896   6.231   5.686
12492TIP3    H137412   5.851   6.269   5.610
12492TIP3    H237413   5.841   6.255   5.760
12493TIP3   OH237414   6.236   7.081   4.677
12493TIP3    H137415   6.196   7.053   4.595
12493TIP3    H237416   6.184   7.157   4.704
12494TIP3   OH237417   5.977   7.004   5.449
12494TIP3    H137418   5.924   7.076   5.483
12494TIP3    H237419   6.026   7.044   5.376
12495TIP3   OH237420   6.765   6.360   5.082
12495TIP3    H137421   6.741   6.331   5.170
12495TIP3    H237422   6.826   6.432   5.096
12496TIP3   OH237423   5.797   6.332   5.441
12496TIP3    H137424   5.846   6.407   5.474
12496TIP3    H237425   5.853   6.296   5.372
12497TIP3   OH237426   5.822   7.207   5.556
12497TIP3    H137427   5.808   7.297   5.526
12497TIP3    H237428   5.744   7.187   5.608
12498TIP3   OH237429   5.195   6.911   4.815
12498TIP3    H137430   5.163   6.931   4.727
12498TIP3    H237431   5.219   6.996   4.852
12499TIP3   OH237432   6.637   7.404   5.058
12499TIP3    H137433   6.549   7.393   5.094
12499TIP3    H237434   6.633   7.486   5.009
12500TIP3   OH237435   6.971   6.288   5.424
12500TIP3    H137436   6.885   6.305   5.384
12500TIP3    H237437   7.034   6.316   5.357
12501TIP3   OH237438   6.237   5.918   5.428
12501TIP3    H137439   6.220   5.825   5.442
12501TIP3    H237440   6.159   5.963   5.462
12502TIP3   OH237441   6.346   7.448   4.710
12502TIP3    H137442   6.400   7.369   4.700
12502TIP3    H237443   6.403   7.520   4.682
12503TIP3   OH237444   6.484   7.217   4.669
12503TIP3    H137445   6.413   7.153   4.666
12503TIP3    H237446   6.536   7.192   4.745
12504TIP3   OH237447   6.854   7.305   5.389
12504TIP3    H137448   6.840   7.232   5.328
12504TIP3    H237449   6.840   7.384   5.336
12505TIP3   OH237450   6.162   6.699   4.671
12505TIP3    H137451   6.080   6.744   4.652
12505TIP3    H237452   6.209   6.699   4.588
12506TIP3   OH237453   6.128   6.511   4.357
12506TIP3    H137454   6.193   6.561   4.406
12506TIP3    H237455   6.178   6.445   4.310
12507TIP3   OH237456   7.041   6.952   5.253
12507TIP3    H137457   6.959   7.000   5.254
12507TIP3    H237458   7.079   6.970   5.167
12508TIP3   OH237459   6.519   6.794   4.626
12508TIP3    H137460   6.465   6.822   4.700
12508TIP3    H237461   6.603   6.771   4.664
12509TIP3   OH237462   6.741   6.805   5.550
12509TIP3    H137463   6.745   6.890   5.595
12509TIP3    H237464   6.658   6.807   5.504
12510TIP3   OH237465   5.748   6.775   5.030
12510TIP3    H137466   5.712   6.715   4.965
12510TIP3    H237467   5.818   6.726   5.073
12511TIP3   OH237468   5.891   7.200   5.171
12511TIP3    H137469   5.869   7.185   5.079
12511TIP3    H237470   5.978   7.163   5.181
12512TIP3   OH237471   5.844   6.767   5.409
12512TIP3    H137472   5.881   6.728   5.330
12512TIP3    H237473   5.894   6.848   5.422
12513TIP3   OH237474   6.395   7.391   5.178
12513TIP3    H137475   6.377   7.474   5.222
12513TIP3    H237476   6.379   7.324   5.245
12514TIP3   OH237477   6.018   7.302   5.727
12514TIP3    H137478   5.958   7.361   5.772
12514TIP3    H237479   5.962   7.252   5.667
12515TIP3   OH237480   6.349   6.654   4.458
12515TIP3    H137481   6.409   6.713   4.505
12515TIP3    H237482   6.378   6.659   4.367
12516TIP3   OH237483   5.771   6.854   5.879
12516TIP3    H137484   5.775   6.949   5.895
12516TIP3    H237485   5.677   6.837   5.867
12517TIP3   OH237486   6.100   7.321   4.716
12517TIP3    H137487   6.181   7.372   4.724
12517TIP3    H237488   6.039   7.380   4.671
12518TIP3   OH237489   5.817   7.467   5.813
12518TIP3    H137490   5.789   7.479   5.722
12518TIP3    H237491   5.737   7.448   5.861
12519TIP3   OH237492   6.863   5.880   4.516
12519TIP3    H137493   6.788   5.901   4.570
12519TIP3    H237494   6.874   5.957   4.459
12520TIP3   OH237495   5.622   6.620   4.828
12520TIP3    H137496   5.541   6.662   4.799
12520TIP3    H237497   5.594   6.535   4.862
12521TIP3   OH237498   6.672   7.252   4.067
12521TIP3    H137499   6.670   7.346   4.049
12521TIP3    H237500   6.763   7.226   4.048
12522TIP3   OH237501   5.405   7.023   5.763
12522TIP3    H137502   5.336   7.006   5.699
12522TIP3    H237503   5.439   6.936   5.784
12523TIP3   OH237504   5.229   7.242   5.437
12523TIP3    H137505   5.317   7.270   5.461
12523TIP3    H237506   5.171   7.311   5.471
12524TIP3   OH237507   6.204   7.447   5.588
12524TIP3    H137508   6.200   7.538   5.617
12524TIP3    H237509   6.136   7.403   5.639
12525TIP3   OH237510   5.986   7.546   4.547
12525TIP3    H137511   5.941   7.528   4.464
12525TIP3    H237512   5.949   7.630   4.575
12526TIP3   OH237513   5.420   7.405   4.923
12526TIP3    H137514   5.466   7.399   5.007
12526TIP3    H237515   5.374   7.322   4.915
12527TIP3   OH237516   6.189   7.478   4.172
12527TIP3    H137517   6.240   7.406   4.134
12527TIP3    H237518   6.224   7.487   4.261
12528TIP3   OH237519   6.238   7.511   4.445
12528TIP3    H137520   6.152   7.516   4.487
12528TIP3    H237521   6.296   7.474   4.512
12529TIP3   OH237522   7.005   6.767   5.707
12529TIP3    H137523   6.918   6.784   5.671
12529TIP3    H237524   7.018   6.673   5.695
12530TIP3   OH237525   5.606   7.208   5.727
12530TIP3    H137526   5.654   7.201   5.810
12530TIP3    H237527   5.533   7.146   5.737
12531TIP3   OH237528   5.998   6.014   5.538
12531TIP3    H137529   5.909   5.987   5.516
12531TIP3    H237530   5.986   6.098   5.582
12532TIP3   OH237531   6.740   6.548   5.649
12532TIP3    H137532   6.699   6.549   5.736
12532TIP3    H237533   6.729   6.636   5.616
12533TIP3   OH237534   6.429   6.633   4.195
12533TIP3    H137535   6.385   6.638   4.111
12533TIP3    H237536   6.512   6.680   4.182
12534TIP3   OH237537   6.138   6.060   4.520
12534TIP3    H137538   6.096   6.071   4.605
12534TIP3    H237539   6.101   5.979   4.486
12535TIP3   OH237540   5.925   6.540   5.562
12535TIP3    H137541   5.877   6.554   5.643
12535TIP3    H237542   5.914   6.622   5.514
12536TIP3   OH237543   5.807   6.438   5.055
12536TIP3    H137544   5.730   6.396   5.094
12536TIP3    H237545   5.818   6.394   4.971
12537TIP3   OH237546   6.275   6.484   4.806
12537TIP3    H137547   6.229   6.560   4.772
12537TIP3    H237548   6.337   6.460   4.736
12538TIP3   OH237549   6.479   6.783   5.893
12538TIP3    H137550   6.453   6.713   5.953
12538TIP3    H237551   6.569   6.804   5.918
12539TIP3   OH237552   6.411   6.419   5.042
12539TIP3    H137553   6.362   6.475   4.982
12539TIP3    H237554   6.484   6.387   4.989
12540TIP3   OH237555   5.759   6.572   5.779
12540TIP3    H137556   5.770   6.636   5.849
12540TIP3    H237557   5.744   6.489   5.823
12541TIP3   OH237558   5.807   6.042   4.485
12541TIP3    H137559   5.793   6.040   4.579
12541TIP3    H237560   5.728   6.085   4.450
12542TIP3   OH237561   5.363   6.080   5.360
12542TIP3    H137562   5.432   6.117   5.414
12542TIP3    H237563   5.404   6.065   5.275
12543TIP3   OH237564   5.259   6.060   4.860
12543TIP3    H137565   5.306   6.095   4.784
12543TIP3    H237566   5.197   6.129   4.884
12544TIP3   OH237567   6.483   6.755   5.441
12544TIP3    H137568   6.502   6.680   5.384
12544TIP3    H237569   6.451   6.716   5.522
12545TIP3   OH237570   5.572   6.306   5.130
12545TIP3    H137571   5.483   6.309   5.095
12545TIP3    H237572   5.599   6.215   5.118
12546TIP3   OH237573   5.830   6.306   4.811
12546TIP3    H137574   5.911   6.283   4.766
12546TIP3    H237575   5.767   6.323   4.741
12547TIP3   OH237576   6.665   6.295   5.332
12547TIP3    H137577   6.650   6.296   5.426
12547TIP3    H237578   6.611   6.222   5.300
12548TIP3   OH237579   5.689   6.329   4.579
12548TIP3    H137580   5.630   6.277   4.525
12548TIP3    H237581   5.746   6.374   4.516
12549TIP3   OH237582   5.763   7.120   5.968
12549TIP3    H137583   5.841   7.146   6.016
12549TIP3    H237584   5.691   7.131   6.031
12550TIP3   OH237585   6.221   6.600   5.258
12550TIP3    H137586   6.303   6.589   5.306
12550TIP3    H237587   6.173   6.519   5.275
12551TIP3   OH237588   5.677   6.051   5.114
12551TIP3    H137589   5.651   5.974   5.165
12551TIP3    H237590   5.768   6.035   5.091
12552TIP3   OH237591   6.185   6.436   5.701
12552TIP3    H137592   6.108   6.406   5.652
12552TIP3    H237593   6.220   6.508   5.649
12553TIP3   OH237594   5.927   6.838   4.613
12553TIP3    H137595   5.851   6.785   4.588
12553TIP3    H237596   5.901   6.881   4.694
12554TIP3   OH237597   6.807   7.094   5.217
12554TIP3    H137598   6.847   7.140   5.143
12554TIP3    H237599   6.727   7.055   5.181
12555TIP3   OH237600   6.391   6.161   4.516
12555TIP3    H137601   6.298   6.140   4.513
12555TIP3    H237602   6.394   6.256   4.527
12556TIP3   OH237603   6.323   7.176   5.631
12556TIP3    H137604   6.381   7.170   5.706
12556TIP3    H237605   6.285   7.264   5.637
12557TIP3   OH237606   6.449   6.426   4.588
12557TIP3    H137607   6.544   6.430   4.594
12557TIP3    H237608   6.424   6.503   4.537
12558TIP3   OH237609   5.613   6.854   5.259
12558TIP3    H137610   5.652   6.837   5.174
12558TIP3    H237611   5.679   6.825   5.322
12559TIP3   OH237612   6.078   7.002   4.456
12559TIP3    H137613   6.031   7.085   4.453
12559TIP3    H237614   6.024   6.945   4.509
12560TIP3   OH237615   5.497   6.788   5.893
12560TIP3    H137616   5.498   6.759   5.984
12560TIP3    H237617   5.422   6.742   5.854
12561TIP3   OH237618   6.242   6.929   5.922
12561TIP3    H137619   6.173   6.873   5.889
12561TIP3    H237620   6.323   6.889   5.891
12562TIP3   OH237621   6.469   7.458   5.507
12562TIP3    H137622   6.374   7.450   5.517
12562TIP3    H237623   6.499   7.499   5.588
12563TIP3   OH237624   6.866   6.512   4.403
12563TIP3    H137625   6.809   6.467   4.341
12563TIP3    H237626   6.872   6.602   4.369
12564TIP3   OH237627   7.100   7.330   5.504
12564TIP3    H137628   7.009   7.332   5.474
12564TIP3    H237629   7.152   7.325   5.424
12565TIP3   OH237630   6.588   7.311   4.332
12565TIP3    H137631   6.571   7.237   4.391
12565TIP3    H237632   6.611   7.270   4.249
12566TIP3   OH237633   6.583   6.962   5.109
12566TIP3    H137634   6.493   6.942   5.135
12566TIP3    H237635   6.616   6.881   5.070
12567TIP3   OH237636   5.743   7.201   4.929
12567TIP3    H137637   5.736   7.276   4.869
12567TIP3    H237638   5.658   7.197   4.972
12568TIP3   OH237639   5.300   6.484   4.640
12568TIP3    H137640   5.344   6.566   4.662
12568TIP3    H237641   5.220   6.485   4.692
12569TIP3   OH237642   5.827   6.956   4.834
12569TIP3    H137643   5.809   7.045   4.864
12569TIP3    H237644   5.802   6.901   4.907
12570TIP3   OH237645   6.022   7.525   5.383
12570TIP3    H137646   6.057   7.598   5.332
12570TIP3    H237647   6.097   7.492   5.433
12571TIP3   OH237648   5.655   7.423   4.777
12571TIP3    H137649   5.568   7.429   4.818
12571TIP3    H237650   5.690   7.512   4.783
12572TIP3   OH237651   6.373   7.178   5.360
12572TIP3    H137652   6.355   7.175   5.454
12572TIP3    H237653   6.462   7.143   5.352
12573TIP3   OH237654   6.366   7.064   4.225
12573TIP3    H137655   6.416   7.040   4.302
12573TIP3    H237656   6.281   7.022   4.236
12574TIP3   OH237657   6.597   7.693   5.396
12574TIP3    H137658   6.531   7.623   5.397
12574TIP3    H237659   6.579   7.742   5.316
12575TIP3   OH237660   6.680   7.523   4.036
12575TIP3    H137661   6.727   7.599   4.002
12575TIP3    H237662   6.599   7.559   4.071
12576TIP3   OH237663   5.709   6.319   5.891
12576TIP3    H137664   5.614   6.324   5.893
12576TIP3    H237665   5.731   6.252   5.956
12577TIP3   OH237666   6.539   6.985   4.422
12577TIP3    H137667   6.522   6.930   4.498
12577TIP3    H237668   6.635   6.988   4.415
12578TIP3   OH237669   5.449   7.392   5.541
12578TIP3    H137670   5.509   7.333   5.587
12578TIP3    H237671   5.449   7.472   5.593
12579TIP3   OH237672   5.720   7.029   4.239
12579TIP3    H137673   5.731   6.938   4.213
12579TIP3    H237674   5.706   7.026   4.334
12580TIP3   OH237675   5.662   7.047   4.512
12580TIP3    H137676   5.725   7.021   4.579
12580TIP3    H237677   5.661   7.143   4.516
12581TIP3   OH237678   5.392   6.735   4.722
12581TIP3    H137679   5.328   6.784   4.774
12581TIP3    H237680   5.413   6.794   4.649
12582TIP3   OH237681   6.616   6.309   5.598
12582TIP3    H137682   6.660   6.393   5.612
12582TIP3    H237683   6.595   6.279   5.687
12583TIP3   OH237684   6.456   6.107   4.779
12583TIP3    H137685   6.433   6.124   4.688
12583TIP3    H237686   6.502   6.186   4.807
12584TIP3   OH237687   5.932   7.230   4.448
12584TIP3    H137688   5.847   7.256   4.485
12584TIP3    H237689   5.957   7.304   4.393
12585TIP3   OH237690   6.169   6.270   4.950
12585TIP3    H137691   6.192   6.344   4.894
12585TIP3    H237692   6.097   6.303   5.004
12586TIP3   OH237693   6.423   6.625   5.674
12586TIP3    H137694   6.436   6.689   5.743
12586TIP3    H237695   6.435   6.540   5.717
12587TIP3   OH237696   6.271   6.008   4.959
12587TIP3    H137697   6.230   6.094   4.969
12587TIP3    H237698   6.344   6.024   4.899
12588TIP3   OH237699   5.682   7.320   4.524
12588TIP3    H137700   5.662   7.392   4.464
12588TIP3    H237701   5.671   7.358   4.612
12589TIP3   OH237702   5.772   6.025   4.757
12589TIP3    H137703   5.743   6.103   4.804
12589TIP3    H237704   5.867   6.022   4.772
12590TIP3   OH237705   7.007   6.493   5.632
12590TIP3    H137706   6.912   6.502   5.645
12590TIP3    H237707   7.015   6.435   5.556
12591TIP3   OH237708   6.682   6.700   5.033
12591TIP3    H137709   6.612   6.653   5.078
12591TIP3    H237710   6.762   6.670   5.075
12592TIP3   OH237711   5.418   6.913   4.505
12592TIP3    H137712   5.489   6.976   4.515
12592TIP3    H237713   5.450   6.850   4.441
12593TIP3   OH237714   5.329   6.206   4.638
12593TIP3    H137715   5.341   6.301   4.647
12593TIP3    H237716   5.271   6.197   4.562
12594TIP3   OH237717   6.639   7.663   4.966
12594TIP3    H137718   6.597   7.723   4.904
12594TIP3    H237719   6.733   7.682   4.958
12595TIP3   OH237720   5.730   5.929   5.511
12595TIP3    H137721   5.698   5.898   5.427
12595TIP3    H237722   5.718   5.854   5.570
12596TIP3   OH237723   5.245   7.181   4.902
12596TIP3    H137724   5.203   7.218   4.979
12596TIP3    H237725   5.204   7.225   4.828
12597TIP3   OH237726   5.443   7.706   5.964
12597TIP3    H137727   5.526   7.705   6.011
12597TIP3    H237728   5.418   7.614   5.956
12598TIP3   OH237729   5.918   7.611   6.027
12598TIP3    H137730   6.013   7.610   6.018
12598TIP3    H237731   5.886   7.565   5.949
12599TIP3   OH237732   5.874   7.231   4.129
12599TIP3    H137733   5.828   7.160   4.174
12599TIP3    H237734   5.950   7.189   4.088
12600TIP3   OH237735   6.549   7.552   5.753
12600TIP3    H137736   6.537   7.485   5.821
12600TIP3    H237737   6.639   7.581   5.763
12601TIP3   OH237738   6.317   7.270   4.050
12601TIP3    H137739   6.352   7.207   4.113
12601TIP3    H237740   6.378   7.266   3.976
12602TIP3   OH237741   5.551   7.108   6.150
12602TIP3    H137742   5.573   7.016   6.160
12602TIP3    H237743   5.463   7.108   6.111
12603TIP3   OH237744   5.541   6.724   4.352
12603TIP3    H137745   5.593   6.700   4.429
12603TIP3    H237746   5.607   6.737   4.283
12604TIP3   OH237747   6.173   7.198   5.928
12604TIP3    H137748   6.127   7.216   5.846
12604TIP3    H237749   6.206   7.109   5.918
12605TIP3   OH237750   6.110   6.946   4.189
12605TIP3    H137751   6.088   6.957   4.281
12605TIP3    H237752   6.093   6.854   4.171
12606TIP3   OH237753   6.633   7.234   5.535
12606TIP3    H137754   6.712   7.263   5.489
12606TIP3    H237755   6.570   7.305   5.523
12607TIP3   OH237756   5.669   6.856   6.162
12607TIP3    H137757   5.742   6.843   6.101
12607TIP3    H237758   5.711   6.878   6.245
12608TIP3   OH237759   5.715   6.666   4.564
12608TIP3    H137760   5.693   6.638   4.653
12608TIP3    H237761   5.763   6.591   4.527
12609TIP3   OH237762   6.034   6.770   5.826
12609TIP3    H137763   5.944   6.803   5.831
12609TIP3    H237764   6.063   6.792   5.738
12610TIP3   OH237765   5.855   6.476   4.413
12610TIP3    H137766   5.825   6.481   4.323
12610TIP3    H237767   5.950   6.485   4.408
12611TIP3   OH237768   6.536   7.115   5.918
12611TIP3    H137769   6.629   7.106   5.895
12611TIP3    H237770   6.523   7.052   5.989
12612TIP3   OH237771   6.650   6.765   4.092
12612TIP3    H137772   6.638   6.725   4.006
12612TIP3    H237773   6.625   6.857   4.079
12613TIP3   OH237774   6.126   6.544   5.945
12613TIP3    H137775   6.140   6.484   5.873
12613TIP3    H237776   6.092   6.624   5.904
12614TIP3   OH237777   6.154   6.856   5.597
12614TIP3    H137778   6.240   6.897   5.583
12614TIP3    H237779   6.094   6.908   5.544
12615TIP3   OH237780   6.764   6.778   6.029
12615TIP3    H137781   6.786   6.695   5.987
12615TIP3    H237782   6.844   6.830   6.023
12616TIP3   OH237783   6.771   7.044   5.677
12616TIP3    H137784   6.714   7.108   5.634
12616TIP3    H237785   6.860   7.076   5.661
12617TIP3   OH237786   6.004   6.605   6.186
12617TIP3    H137787   5.937   6.540   6.206
12617TIP3    H237788   6.032   6.585   6.097
12618TIP3   OH237789   6.391   6.564   6.031
12618TIP3    H137790   6.382   6.546   6.125
12618TIP3    H237791   6.303   6.552   5.997
12619TIP3   OH237792   6.630   6.510   5.895
12619TIP3    H137793   6.554   6.515   5.953
12619TIP3    H237794   6.702   6.485   5.954
12620TIP3   OH237795   6.866   6.479   6.048
12620TIP3    H137796   6.885   6.385   6.050
12620TIP3    H237797   6.860   6.505   6.140
12621TIP3   OH237798   5.842   6.384   6.244
12621TIP3    H137799   5.845   6.298   6.203
12621TIP3    H237800   5.883   6.372   6.329
12622TIP3   OH237801   6.323   6.055   6.071
12622TIP3    H137802   6.401   6.002   6.057
12622TIP3    H237803   6.268   6.039   5.994
12623TIP3   OH237804   6.415   6.275   6.212
12623TIP3    H137805   6.383   6.205   6.155
12623TIP3    H237806   6.343   6.337   6.217
12624TIP3   OH237807   5.679   7.530   4.342
12624TIP3    H137808   5.768   7.509   4.315
12624TIP3    H237809   5.641   7.575   4.267
12625TIP3   OH237810   5.144   6.911   4.520
12625TIP3    H137811   5.239   6.922   4.518
12625TIP3    H237812   5.129   6.824   4.482
12626TIP3   OH237813   5.045   7.498   4.990
12626TIP3    H137814   4.984   7.442   4.942
12626TIP3    H237815   5.091   7.438   5.049
12627TIP3   OH237816   5.191   7.330   5.156
12627TIP3    H137817   5.179   7.266   5.226
12627TIP3    H237818   5.247   7.397   5.194
12628TIP3   OH237819   6.904   7.724   4.969
12628TIP3    H137820   6.927   7.760   5.054
12628TIP3    H237821   6.971   7.756   4.910
12629TIP3   OH237822   6.934   7.767   5.243
12629TIP3    H137823   6.888   7.683   5.247
12629TIP3    H237824   7.000   7.762   5.312
12630TIP3   OH237825   6.816   6.969   4.424
12630TIP3    H137826   6.873   7.038   4.390
12630TIP3    H237827   6.864   6.933   4.499
12631TIP3   OH237828   6.953   6.831   4.622
12631TIP3    H137829   6.885   6.797   4.681
12631TIP3    H237830   7.018   6.870   4.680
12632TIP3   OH237831   6.988   7.219   5.055
12632TIP3    H137832   7.045   7.159   5.008
12632TIP3    H237833   6.986   7.298   5.001
12633TIP3   OH237834   6.787   7.535   5.256
12633TIP3    H137835   6.720   7.578   5.308
12633TIP3    H237836   6.739   7.493   5.184
12634TIP3   OH237837   6.861   6.751   4.266
12634TIP3    H137838   6.789   6.750   4.203
12634TIP3    H237839   6.844   6.827   4.321
12635TIP3   OH237840   6.711   6.402   4.207
12635TIP3    H137841   6.664   6.440   4.133
12635TIP3    H237842   6.703   6.307   4.194
12636TIP3   OH237843   6.746   6.697   4.760
12636TIP3    H137844   6.752   6.603   4.744
12636TIP3    H237845   6.725   6.704   4.853
12637TIP3   OH237846   5.367   6.761   5.528
12637TIP3    H137847   5.358   6.725   5.440
12637TIP3    H237848   5.461   6.758   5.546
12638TIP3   OH237849   7.032   7.119   5.666
12638TIP3    H137850   7.107   7.060   5.659
12638TIP3    H237851   7.060   7.198   5.619
12639TIP3   OH237852   7.223   6.915   5.639
12639TIP3    H137853   7.145   6.868   5.666
12639TIP3    H237854   7.294   6.852   5.649
12640TIP3   OH237855   6.675   6.130   4.177
12640TIP3    H137856   6.740   6.104   4.242
12640TIP3    H237857   6.593   6.092   4.207
12641TIP3   OH237858   6.741   6.419   4.640
12641TIP3    H137859   6.788   6.336   4.653
12641TIP3    H237860   6.783   6.459   4.564
12642TIP3   OH237861   6.902   6.587   5.160
12642TIP3    H137862   6.983   6.605   5.113
12642TIP3    H237863   6.916   6.622   5.248
12643TIP3   OH237864   6.965   6.726   5.391
12643TIP3    H137865   6.891   6.754   5.445
12643TIP3    H237866   6.994   6.806   5.347
12644TIP3   OH237867   5.581   6.441   6.173
12644TIP3    H137868   5.675   6.438   6.191
12644TIP3    H237869   5.547   6.358   6.208
12645TIP3   OH237870   7.439   6.323   5.928
12645TIP3    H137871   7.490   6.259   5.879
12645TIP3    H237872   7.395   6.375   5.860
12646TIP3   OH237873   6.859   6.170   4.695
12646TIP3    H137874   6.904   6.155   4.778
12646TIP3    H237875   6.797   6.096   4.688
12647TIP3   OH237876   5.572   6.157   5.529
12647TIP3    H137877   5.624   6.077   5.537
12647TIP3    H237878   5.635   6.224   5.501
12648TIP3   OH237879   5.347   6.422   5.576
12648TIP3    H137880   5.404   6.406   5.501
12648TIP3    H237881   5.378   6.505   5.612
12649TIP3   OH237882   7.271   6.453   5.758
12649TIP3    H137883   7.202   6.498   5.807
12649TIP3    H237884   7.223   6.397   5.696
12650TIP3   OH237885   6.902   6.083   4.334
12650TIP3    H137886   6.950   6.022   4.277
12650TIP3    H237887   6.957   6.161   4.337
12651TIP3   OH237888   5.327   5.911   5.080
12651TIP3    H137889   5.242   5.908   5.125
12651TIP3    H237890   5.313   5.973   5.008
12652TIP3   OH237891   6.482   7.652   4.597
12652TIP3    H137892   6.524   7.618   4.519
12652TIP3    H237893   6.525   7.737   4.613
12653TIP3   OH237894   5.559   6.010   5.922
12653TIP3    H137895   5.503   5.993   5.998
12653TIP3    H237896   5.500   6.046   5.856
12654TIP3   OH237897   5.607   7.424   5.985
12654TIP3    H137898   5.513   7.408   5.986
12654TIP3    H237899   5.631   7.439   6.076
12655TIP3   OH237900   5.795   7.483   5.531
12655TIP3    H137901   5.741   7.555   5.499
12655TIP3    H237902   5.879   7.494   5.488
12656TIP3   OH237903   6.209   7.714   5.654
12656TIP3    H137904   6.244   7.709   5.743
12656TIP3    H237905   6.275   7.763   5.605
12657TIP3   OH237906   6.400   7.861   5.520
12657TIP3    H137907   6.467   7.804   5.483
12657TIP3    H237908   6.450   7.927   5.569
12658TIP3   OH237909   7.183   6.204   5.631
12658TIP3    H137910   7.099   6.203   5.585
12658TIP3    H237911   7.217   6.115   5.621
12659TIP3   OH237912   5.455   7.734   5.567
12659TIP3    H137913   5.364   7.749   5.541
12659TIP3    H237914   5.470   7.797   5.638
12660TIP3   OH237915   5.685   7.710   5.423
12660TIP3    H137916   5.603   7.719   5.472
12660TIP3    H237917   5.661   7.736   5.334
12661TIP3   OH237918   6.092   7.733   5.214
12661TIP3    H137919   6.018   7.744   5.154
12661TIP3    H237920   6.102   7.819   5.255
12662TIP3   OH237921   6.349   7.651   5.251
12662TIP3    H137922   6.259   7.679   5.235
12662TIP3    H237923   6.403   7.720   5.212
12663TIP3   OH237924   6.545   7.831   5.164
12663TIP3    H137925   6.539   7.919   5.127
12663TIP3    H237926   6.578   7.776   5.093
12664TIP3   OH237927   5.368   7.504   5.291
12664TIP3    H137928   5.387   7.478   5.382
12664TIP3    H237929   5.443   7.470   5.241
12665TIP3   OH237930   5.572   7.389   5.152
12665TIP3    H137931   5.583   7.305   5.197
12665TIP3    H237932   5.659   7.430   5.159
12666TIP3   OH237933   5.838   7.476   5.178
12666TIP3    H137934   5.859   7.384   5.163
12666TIP3    H237935   5.891   7.501   5.254
12667TIP3   OH237936   6.413   6.150   5.212
12667TIP3    H137937   6.373   6.092   5.276
12667TIP3    H237938   6.484   6.098   5.174
12668TIP3   OH237939   6.912   6.043   5.159
12668TIP3    H137940   6.948   6.089   5.084
12668TIP3    H237941   6.817   6.056   5.153
12669TIP3   OH237942   7.017   6.115   4.917
12669TIP3    H137943   7.085   6.054   4.888
12669TIP3    H237944   7.055   6.202   4.904
12670TIP3   OH237945   5.632   5.826   5.271
12670TIP3    H137946   5.543   5.793   5.277
12670TIP3    H237947   5.686   5.747   5.263
12671TIP3   OH237948   5.436   5.718   4.906
12671TIP3    H137949   5.472   5.770   4.834
12671TIP3    H237950   5.407   5.783   4.970
12672TIP3   OH237951   6.094   5.881   5.143
12672TIP3    H137952   6.160   5.920   5.086
12672TIP3    H237953   6.101   5.929   5.225
12673TIP3   OH237954   6.630   6.007   5.126
12673TIP3    H137955   6.653   5.968   5.041
12673TIP3    H237956   6.629   5.933   5.187
12674TIP3   OH237957   6.676   5.956   4.702
12674TIP3    H137958   6.595   6.003   4.725
12674TIP3    H237959   6.664   5.869   4.740
12675TIP3   OH237960   5.133   7.304   4.684
12675TIP3    H137961   5.048   7.269   4.654
12675TIP3    H237962   5.135   7.393   4.649
12676TIP3   OH237963   5.561   5.855   4.678
12676TIP3    H137964   5.608   5.795   4.620
12676TIP3    H237965   5.630   5.912   4.714
12677TIP3   OH237966   6.046   6.070   4.784
12677TIP3    H137967   6.086   5.990   4.816
12677TIP3    H237968   6.085   6.140   4.837
12678TIP3   OH237969   5.934   7.454   4.274
12678TIP3    H137970   6.018   7.481   4.237
12678TIP3    H237971   5.904   7.383   4.218
12679TIP3   OH237972   6.613   7.579   4.367
12679TIP3    H137973   6.611   7.483   4.359
12679TIP3    H237974   6.573   7.610   4.285
12680TIP3   OH237975   5.862   6.118   6.160
12680TIP3    H137976   5.828   6.046   6.213
12680TIP3    H237977   5.955   6.123   6.182
12681TIP3   OH237978   6.116   6.112   6.270
12681TIP3    H137979   6.193   6.088   6.217
12681TIP3    H237980   6.108   6.041   6.333
12682TIP3   OH237981   5.244   7.296   4.333
12682TIP3    H137982   5.248   7.305   4.428
12682TIP3    H237983   5.325   7.250   4.311
12683TIP3   OH237984   6.944   6.216   6.056
12683TIP3    H137985   6.957   6.181   6.144
12683TIP3    H237986   7.029   6.207   6.013
12684TIP3   OH237987   8.097   7.091   4.355
12684TIP3    H137988   8.072   7.177   4.320
12684TIP3    H237989   8.042   7.029   4.308
12685TIP3   OH237990   8.078   7.101   4.681
12685TIP3    H137991   8.132   7.033   4.721
12685TIP3    H237992   8.085   7.085   4.587
12686TIP3   OH237993   7.434   6.971   5.073
12686TIP3    H137994   7.465   6.903   5.132
12686TIP3    H237995   7.502   6.978   5.006
12687TIP3   OH237996   7.406   7.371   4.797
12687TIP3    H137997   7.386   7.278   4.790
12687TIP3    H237998   7.500   7.377   4.777
12688TIP3   OH237999   7.100   6.605   4.542
12688TIP3    H138000   7.064   6.690   4.567
12688TIP3    H238001   7.028   6.559   4.499
12689TIP3   OH238002   7.183   6.916   4.760
12689TIP3    H138003   7.234   6.839   4.784
12689TIP3    H238004   7.248   6.981   4.735
12690TIP3   OH238005   7.953   7.330   4.763
12690TIP3    H138006   7.975   7.240   4.738
12690TIP3    H238007   8.032   7.380   4.743
12691TIP3   OH238008   8.308   6.856   4.756
12691TIP3    H138009   8.342   6.776   4.796
12691TIP3    H238010   8.278   6.829   4.669
12692TIP3   OH238011   7.692   6.481   4.723
12692TIP3    H138012   7.672   6.554   4.665
12692TIP3    H238013   7.638   6.409   4.690
12693TIP3   OH238014   8.387   6.582   4.367
12693TIP3    H138015   8.453   6.563   4.433
12693TIP3    H238016   8.436   6.618   4.293
12694TIP3   OH238017   7.327   6.698   4.853
12694TIP3    H138018   7.409   6.676   4.896
12694TIP3    H238019   7.328   6.646   4.772
12695TIP3   OH238020   7.744   6.882   4.665
12695TIP3    H138021   7.837   6.860   4.672
12695TIP3    H238022   7.703   6.803   4.629
12696TIP3   OH238023   7.677   6.481   5.179
12696TIP3    H138024   7.626   6.518   5.106
12696TIP3    H238025   7.621   6.495   5.256
12697TIP3   OH238026   7.991   7.285   4.193
12697TIP3    H138027   7.975   7.272   4.099
12697TIP3    H238028   7.969   7.377   4.209
12698TIP3   OH238029   7.763   7.235   4.947
12698TIP3    H138030   7.717   7.313   4.979
12698TIP3    H238031   7.834   7.270   4.893
12699TIP3   OH238032   0.056   6.585   4.585
12699TIP3    H138033  -0.003   6.576   4.660
12699TIP3    H238034   0.073   6.679   4.580
12700TIP3   OH238035   7.568   6.588   4.946
12700TIP3    H138036   7.628   6.660   4.968
12700TIP3    H238037   7.611   6.543   4.873
12701TIP3   OH238038   6.984   7.146   4.296
12701TIP3    H138039   6.949   7.163   4.208
12701TIP3    H238040   6.988   7.232   4.337
12702TIP3   OH238041   8.009   6.175   4.899
12702TIP3    H138042   8.003   6.084   4.927
12702TIP3    H238043   7.933   6.217   4.940
12703TIP3   OH238044   8.280   7.455   4.135
12703TIP3    H138045   8.250   7.406   4.059
12703TIP3    H238046   8.356   7.504   4.104
12704TIP3   OH238047   7.955   6.948   4.158
12704TIP3    H138048   7.875   6.997   4.137
12704TIP3    H238049   8.004   6.947   4.076
12705TIP3   OH238050   7.925   6.764   3.838
12705TIP3    H138051   7.990   6.812   3.890
12705TIP3    H238052   7.976   6.697   3.793
12706TIP3   OH238053   8.286   7.049   4.133
12706TIP3    H138054   8.236   7.081   4.208
12706TIP3    H238055   8.365   7.012   4.171
12707TIP3   OH238056   7.541   7.013   4.522
12707TIP3    H138057   7.504   6.955   4.456
12707TIP3    H238058   7.614   6.964   4.559
12708TIP3   OH238059   7.665   7.396   4.689
12708TIP3    H138060   7.632   7.384   4.600
12708TIP3    H238061   7.753   7.357   4.687
12709TIP3   OH238062   7.636   7.003   4.885
12709TIP3    H138063   7.676   6.969   4.806
12709TIP3    H238064   7.684   7.083   4.905
12710TIP3   OH238065   8.138   6.906   3.953
12710TIP3    H138066   8.193   6.963   4.006
12710TIP3    H238067   8.169   6.918   3.863
12711TIP3   OH238068   7.516   7.127   5.291
12711TIP3    H138069   7.485   7.101   5.205
12711TIP3    H238070   7.442   7.110   5.350
12712TIP3   OH238071   7.912   7.547   4.195
12712TIP3    H138072   7.973   7.598   4.249
12712TIP3    H238073   7.904   7.598   4.114
12713TIP3   OH238074   0.141   6.116   4.009
12713TIP3    H138075   0.068   6.162   4.050
12713TIP3    H238076   0.192   6.185   3.967
12714TIP3   OH238077   7.419   6.867   4.315
12714TIP3    H138078   7.342   6.917   4.286
12714TIP3    H238079   7.386   6.778   4.327
12715TIP3   OH238080   7.191   7.262   5.248
12715TIP3    H138081   7.118   7.243   5.190
12715TIP3    H238082   7.215   7.178   5.286
12716TIP3   OH238083   7.016   7.460   4.924
12716TIP3    H138084   7.105   7.491   4.939
12716TIP3    H238085   6.961   7.536   4.946
12717TIP3   OH238086   7.747   7.756   4.065
12717TIP3    H138087   7.711   7.787   3.982
12717TIP3    H238088   7.817   7.818   4.085
12718TIP3   OH238089   7.168   7.625   4.428
12718TIP3    H138090   7.211   7.605   4.511
12718TIP3    H238091   7.196   7.555   4.369
12719TIP3   OH238092   7.368   7.461   5.190
12719TIP3    H138093   7.447   7.431   5.235
12719TIP3    H238094   7.303   7.392   5.207
12720TIP3   OH238095   7.779   6.267   5.034
12720TIP3    H138096   7.695   6.236   5.002
12720TIP3    H238097   7.759   6.348   5.080
12721TIP3   OH238098   8.298   6.404   5.220
12721TIP3    H138099   8.368   6.361   5.268
12721TIP3    H238100   8.218   6.381   5.267
12722TIP3   OH238101   8.213   6.921   3.692
12722TIP3    H138102   8.182   6.924   3.602
12722TIP3    H238103   8.276   6.993   3.699
12723TIP3   OH238104   7.926   6.316   4.000
12723TIP3    H138105   7.892   6.320   4.089
12723TIP3    H238106   7.894   6.232   3.966
12724TIP3   OH238107   7.736   6.791   5.032
12724TIP3    H138108   7.689   6.796   5.115
12724TIP3    H238109   7.709   6.870   4.985
12725TIP3   OH238110   7.595   6.678   4.559
12725TIP3    H138111   7.506   6.653   4.584
12725TIP3    H238112   7.605   6.645   4.469
12726TIP3   OH238113   8.077   6.743   4.284
12726TIP3    H138114   8.030   6.815   4.244
12726TIP3    H238115   8.138   6.713   4.216
12727TIP3   OH238116   8.230   6.763   4.512
12727TIP3    H138117   8.167   6.781   4.442
12727TIP3    H238118   8.282   6.690   4.478
12728TIP3   OH238119   7.561   6.793   5.246
12728TIP3    H138120   7.616   6.845   5.303
12728TIP3    H238121   7.539   6.715   5.297
12729TIP3   OH238122   7.598   6.292   3.977
12729TIP3    H138123   7.590   6.297   4.072
12729TIP3    H238124   7.521   6.337   3.944
12730TIP3   OH238125   7.148   6.339   4.846
12730TIP3    H138126   7.217   6.376   4.900
12730TIP3    H238127   7.188   6.329   4.759
12731TIP3   OH238128   7.054   6.316   4.344
12731TIP3    H138129   7.099   6.351   4.267
12731TIP3    H238130   6.991   6.384   4.368
12732TIP3   OH238131   7.955   6.465   4.608
12732TIP3    H138132   7.878   6.470   4.664
12732TIP3    H238133   8.028   6.455   4.668
12733TIP3   OH238134   7.359   6.553   4.623
12733TIP3    H138135   7.271   6.558   4.585
12733TIP3    H238136   7.388   6.464   4.604
12734TIP3   OH238137   7.610   6.556   4.314
12734TIP3    H138138   7.705   6.567   4.307
12734TIP3    H238139   7.577   6.575   4.226
12735TIP3   OH238140   8.368   6.577   4.788
12735TIP3    H138141   8.371   6.586   4.883
12735TIP3    H238142   8.300   6.512   4.772
12736TIP3   OH238143   7.502   6.584   4.065
12736TIP3    H138144   7.439   6.535   4.012
12736TIP3    H238145   7.557   6.629   4.001
12737TIP3   OH238146   7.998   6.781   4.702
12737TIP3    H138147   8.076   6.762   4.649
12737TIP3    H238148   8.014   6.736   4.785
12738TIP3   OH238149   7.504   6.308   4.604
12738TIP3    H138150   7.476   6.232   4.656
12738TIP3    H238151   7.529   6.271   4.519
12739TIP3   OH238152   7.990   6.699   4.983
12739TIP3    H138153   7.902   6.735   4.994
12739TIP3    H238154   8.049   6.770   5.010
12740TIP3   OH238155   7.729   7.088   4.082
12740TIP3    H138156   7.651   7.037   4.062
12740TIP3    H238157   7.711   7.126   4.168
12741TIP3   OH238158   8.180   6.416   4.005
12741TIP3    H138159   8.086   6.397   4.003
12741TIP3    H238160   8.186   6.510   4.019
12742TIP3   OH238161   8.242   6.675   4.072
12742TIP3    H138162   8.337   6.679   4.085
12742TIP3    H238163   8.222   6.754   4.021
12743TIP3   OH238164   7.405   7.094   4.747
12743TIP3    H138165   7.441   7.082   4.659
12743TIP3    H238166   7.475   7.065   4.806
12744TIP3   OH238167   7.884   7.249   3.927
12744TIP3    H138168   7.821   7.322   3.924
12744TIP3    H238169   7.840   7.181   3.978
12745TIP3   OH238170   7.268   7.034   5.391
12745TIP3    H138171   7.266   7.004   5.482
12745TIP3    H238172   7.194   6.989   5.350
12746TIP3   OH238173   7.547   7.401   4.440
12746TIP3    H138174   7.570   7.467   4.374
12746TIP3    H238175   7.453   7.388   4.429
12747TIP3   OH238176   7.099   6.739   4.127
12747TIP3    H138177   7.142   6.822   4.149
12747TIP3    H238178   7.018   6.740   4.177
12748TIP3   OH238179   7.653   7.175   4.327
12748TIP3    H138180   7.630   7.262   4.359
12748TIP3    H238181   7.620   7.115   4.393
12749TIP3   OH238182   7.395   7.738   4.137
12749TIP3    H138183   7.350   7.808   4.185
12749TIP3    H238184   7.455   7.700   4.200
12750TIP3   OH238185   8.142   7.217   3.634
12750TIP3    H138186   8.196   7.225   3.712
12750TIP3    H238187   8.064   7.169   3.664
12751TIP3   OH238188   7.501   6.553   5.381
12751TIP3    H138189   7.406   6.565   5.390
12751TIP3    H238190   7.529   6.520   5.466
12752TIP3   OH238191   8.331   7.144   3.872
12752TIP3    H138192   8.316   7.121   3.964
12752TIP3    H238193   8.404   7.206   3.873
12753TIP3   OH238194   7.236   7.653   5.048
12753TIP3    H138195   7.277   7.582   5.097
12753TIP3    H238196   7.246   7.730   5.103
12754TIP3   OH238197   7.500   7.283   3.713
12754TIP3    H138198   7.513   7.190   3.693
12754TIP3    H238199   7.552   7.298   3.791
12755TIP3   OH238200   7.410   7.302   4.062
12755TIP3    H138201   7.503   7.279   4.068
12755TIP3    H238202   7.409   7.384   4.013
12756TIP3   OH238203   7.193   6.987   4.209
12756TIP3    H138204   7.127   7.033   4.261
12756TIP3    H238205   7.205   7.043   4.132
12757TIP3   OH238206   8.354   6.617   5.057
12757TIP3    H138207   8.394   6.678   5.119
12757TIP3    H238208   8.330   6.541   5.109
12758TIP3   OH238209   8.242   6.364   4.271
12758TIP3    H138210   8.224   6.383   4.179
12758TIP3    H238211   8.284   6.443   4.304
12759TIP3   OH238212   7.651   7.405   3.910
12759TIP3    H138213   7.574   7.459   3.930
12759TIP3    H238214   7.720   7.468   3.889
12760TIP3   OH238215   7.886   6.563   4.359
12760TIP3    H138216   7.951   6.628   4.332
12760TIP3    H238217   7.909   6.542   4.449
12761TIP3   OH238218   8.056   6.260   4.445
12761TIP3    H138219   8.031   6.336   4.498
12761TIP3    H238220   8.128   6.291   4.390
12762TIP3   OH238221   7.421   7.548   3.947
12762TIP3    H138222   7.410   7.596   3.865
12762TIP3    H238223   7.404   7.612   4.015
12763TIP3   OH238224   7.571   6.284   4.256
12763TIP3    H138225   7.560   6.375   4.284
12763TIP3    H238226   7.665   6.268   4.263
12764TIP3   OH238227   8.504   6.876   4.532
12764TIP3    H138228   8.412   6.865   4.509
12764TIP3    H238229   8.502   6.928   4.613
12765TIP3   OH238230   7.193   7.158   3.987
12765TIP3    H138231   7.262   7.218   4.015
12765TIP3    H238232   7.235   7.103   3.921
12766TIP3   OH238233   7.122   6.462   4.122
12766TIP3    H138234   7.135   6.556   4.132
12766TIP3    H238235   7.066   6.454   4.045
12767TIP3   OH238236   7.517   6.186   4.992
12767TIP3    H138237   7.489   6.153   4.906
12767TIP3    H238238   7.509   6.109   5.049
12768TIP3   OH238239   6.978   7.402   4.388
12768TIP3    H138240   6.980   7.457   4.467
12768TIP3    H238241   6.980   7.465   4.316
12769TIP3   OH238242   7.671   7.464   3.589
12769TIP3    H138243   7.599   7.414   3.628
12769TIP3    H238244   7.747   7.407   3.598
12770TIP3   OH238245   7.338   6.980   3.838
12770TIP3    H138246   7.388   6.956   3.916
12770TIP3    H238247   7.404   6.993   3.770
12771TIP3   OH238248   7.830   7.201   3.656
12771TIP3    H138249   7.840   7.208   3.751
12771TIP3    H238250   7.827   7.107   3.640
12772TIP3   OH238251   7.512   6.919   4.048
12772TIP3    H138252   7.492   6.891   4.137
12772TIP3    H238253   7.559   6.846   4.009
12773TIP3   OH238254   7.757   6.988   5.306
12773TIP3    H138255   7.680   7.045   5.315
12773TIP3    H238256   7.823   7.044   5.265
12774TIP3   OH238257   7.654   6.735   3.894
12774TIP3    H138258   7.624   6.740   3.803
12774TIP3    H238259   7.749   6.742   3.888
12775TIP3   OH238260   7.832   6.737   5.435
12775TIP3    H138261   7.884   6.686   5.372
12775TIP3    H238262   7.827   6.824   5.396
12776TIP3   OH238263   7.937   6.559   5.224
12776TIP3    H138264   7.967   6.591   5.139
12776TIP3    H238265   7.845   6.534   5.209
12777TIP3   OH238266   8.056   6.332   5.331
12777TIP3    H138267   8.014   6.413   5.302
12777TIP3    H238268   7.991   6.264   5.315
12778TIP3   OH238269   7.638   6.622   5.689
12778TIP3    H138270   7.651   6.527   5.679
12778TIP3    H238271   7.717   6.661   5.653
12779TIP3   OH238272   8.144   6.311   5.590
12779TIP3    H138273   8.239   6.301   5.581
12779TIP3    H238274   8.112   6.316   5.500
12780TIP3   OH238275   7.437   7.760   3.780
12780TIP3    H138276   7.478   7.825   3.836
12780TIP3    H238277   7.426   7.805   3.695
12781TIP3   OH238278   6.924   7.155   4.014
12781TIP3    H138279   7.019   7.168   4.007
12781TIP3    H238280   6.908   7.071   3.971
12782TIP3   OH238281   6.807   7.725   4.488
12782TIP3    H138282   6.747   7.671   4.436
12782TIP3    H238283   6.854   7.662   4.542
12783TIP3   OH238284   6.951   7.550   4.645
12783TIP3    H138285   6.936   7.475   4.703
12783TIP3    H238286   7.007   7.609   4.696
12784TIP3   OH238287   8.499   6.664   3.679
12784TIP3    H138288   8.451   6.672   3.596
12784TIP3    H238289   8.487   6.572   3.704
12785TIP3   OH238290  -0.003   6.923   4.251
12785TIP3    H138291   0.032   6.841   4.215
12785TIP3    H238292   0.032   6.925   4.341
12786TIP3   OH238293   7.167   7.006   5.017
12786TIP3    H138294   7.159   6.977   4.926
12786TIP3    H238295   7.261   7.006   5.034
12787TIP3   OH238296   8.460   6.397   3.707
12787TIP3    H138297   8.511   6.332   3.658
12787TIP3    H238298   8.374   6.356   3.719
12788TIP3   OH238299   0.023   6.667   4.123
12788TIP3    H138300   0.065   6.584   4.148
12788TIP3    H238301   0.066   6.691   4.041
12789TIP3   OH238302   7.375   6.685   5.653
12789TIP3    H138303   7.469   6.681   5.667
12789TIP3    H238304   7.341   6.606   5.697
12790TIP3   OH238305   0.132   6.434   4.207
12790TIP3    H138306   0.194   6.419   4.278
12790TIP3    H238307   0.080   6.354   4.204
12791TIP3   OH238308   7.355   6.410   5.018
12791TIP3    H138309   7.408   6.330   5.020
12791TIP3    H238310   7.417   6.480   5.000
12792TIP3   OH238311   7.140   6.678   5.063
12792TIP3    H138312   7.196   6.670   4.985
12792TIP3    H238313   7.163   6.763   5.100
12793TIP3   OH238314   7.127   6.181   4.571
12793TIP3    H138315   7.041   6.171   4.612
12793TIP3    H238316   7.110   6.237   4.494
12794TIP3   OH238317   7.344   6.224   5.393
12794TIP3    H138318   7.301   6.232   5.478
12794TIP3    H238319   7.291   6.279   5.334
12795TIP3   OH238320   7.124   7.714   4.798
12795TIP3    H138321   7.163   7.711   4.885
12795TIP3    H238322   7.191   7.678   4.740
12796TIP3   OH238323   7.314   7.585   4.658
12796TIP3    H138324   7.325   7.501   4.703
12796TIP3    H238325   7.401   7.626   4.661
12797TIP3   OH238326   7.584   7.655   4.636
12797TIP3    H138327   7.612   7.572   4.672
12797TIP3    H238328   7.611   7.720   4.701
12798TIP3   OH238329   8.172   6.373   4.750
12798TIP3    H138330   8.133   6.301   4.800
12798TIP3    H238331   8.240   6.331   4.697
12799TIP3   OH238332   0.175   6.285   4.645
12799TIP3    H138333   0.216   6.356   4.595
12799TIP3    H238334   0.109   6.328   4.699
12800TIP3   OH238335   0.308   6.395   4.415
12800TIP3    H138336   0.370   6.328   4.443
12800TIP3    H238337   0.354   6.477   4.427
12801TIP3   OH238338   7.433   6.081   4.750
12801TIP3    H138339   7.344   6.048   4.759
12801TIP3    H238340   7.487   6.003   4.742
12802TIP3   OH238341   7.256   5.989   4.404
12802TIP3    H138342   7.282   6.038   4.326
12802TIP3    H238343   7.219   6.055   4.463
12803TIP3   OH238344   7.908   6.119   4.639
12803TIP3    H138345   7.958   6.165   4.572
12803TIP3    H238346   7.947   6.148   4.722
12804TIP3   OH238347   8.374   6.253   4.612
12804TIP3    H138348   8.447   6.245   4.551
12804TIP3    H238349   8.386   6.180   4.673
12805TIP3   OH238350   8.466   6.213   4.206
12805TIP3    H138351   8.383   6.257   4.227
12805TIP3    H238352   8.461   6.130   4.254
12806TIP3   OH238353   6.939   7.558   4.156
12806TIP3    H138354   6.860   7.506   4.145
12806TIP3    H238355   6.919   7.642   4.116
12807TIP3   OH238356   7.361   6.118   4.166
12807TIP3    H138357   7.408   6.057   4.108
12807TIP3    H238358   7.430   6.174   4.202
12808TIP3   OH238359   7.845   6.311   4.264
12808TIP3    H138360   7.907   6.261   4.318
12808TIP3    H238361   7.857   6.402   4.291
12809TIP3   OH238362   7.748   7.722   3.646
12809TIP3    H138363   7.732   7.768   3.564
12809TIP3    H238364   7.711   7.635   3.633
12810TIP3   OH238365   7.646   6.343   5.631
12810TIP3    H138366   7.609   6.272   5.684
12810TIP3    H238367   7.739   6.344   5.654
12811TIP3   OH238368   7.902   6.333   5.719
12811TIP3    H138369   7.980   6.354   5.669
12811TIP3    H238370   7.928   6.260   5.775
12812TIP3   OH238371   7.038   7.543   3.821
12812TIP3    H138372   7.038   7.544   3.916
12812TIP3    H238373   7.119   7.498   3.797
12813TIP3   OH238374   1.424   7.434   6.407
12813TIP3    H138375   1.449   7.514   6.452
12813TIP3    H238376   1.467   7.441   6.321
12814TIP3   OH238377   0.859   7.343   6.096
12814TIP3    H138378   0.927   7.355   6.162
12814TIP3    H238379   0.894   7.387   6.018
12815TIP3   OH238380   1.494   7.634   6.592
12815TIP3    H138381   1.468   7.720   6.559
12815TIP3    H238382   1.422   7.607   6.649
12816TIP3   OH238383   1.077   7.394   6.279
12816TIP3    H138384   1.144   7.357   6.221
12816TIP3    H238385   1.105   7.485   6.292
12817TIP3   OH238386   1.194   7.357   6.544
12817TIP3    H138387   1.124   7.363   6.478
12817TIP3    H238388   1.274   7.375   6.495
12818TIP3   OH238389   1.128   6.923   5.691
12818TIP3    H138390   1.046   6.941   5.736
12818TIP3    H238391   1.144   7.001   5.638
12819TIP3   OH238392   1.132   7.541   5.582
12819TIP3    H138393   1.076   7.498   5.518
12819TIP3    H238394   1.131   7.634   5.557
12820TIP3   OH238395   1.293   7.531   6.747
12820TIP3    H138396   1.231   7.542   6.820
12820TIP3    H238397   1.251   7.467   6.689
12821TIP3   OH238398   0.914   7.706   6.206
12821TIP3    H138399   0.853   7.640   6.238
12821TIP3    H238400   0.996   7.688   6.252
12822TIP3   OH238401   0.961   7.814   5.244
12822TIP3    H138402   0.905   7.759   5.189
12822TIP3    H238403   1.031   7.843   5.185
12823TIP3   OH238404   1.028   8.002   5.631
12823TIP3    H138405   1.097   8.055   5.590
12823TIP3    H238406   1.072   7.957   5.703
12824TIP3   OH238407   1.200   7.863   5.801
12824TIP3    H138408   1.140   7.818   5.861
12824TIP3    H238409   1.263   7.907   5.858
12825TIP3   OH238410   1.120   7.789   5.464
12825TIP3    H138411   1.055   7.796   5.394
12825TIP3    H238412   1.098   7.860   5.525
12826TIP3   OH238413   0.992   7.438   5.368
12826TIP3    H138414   0.923   7.479   5.317
12826TIP3    H238415   0.976   7.344   5.359
12827TIP3   OH238416   1.033   7.718   5.958
12827TIP3    H138417   1.018   7.627   5.932
12827TIP3    H238418   0.982   7.729   6.038
12828TIP3   OH238419   0.954   7.163   5.361
12828TIP3    H138420   1.020   7.149   5.429
12828TIP3    H238421   0.873   7.129   5.400
12829TIP3   OH238422   1.012   7.454   5.862
12829TIP3    H138423   1.050   7.367   5.862
12829TIP3    H238424   1.031   7.488   5.774
12830TIP3   OH238425   1.153   7.653   6.340
12830TIP3    H138426   1.234   7.680   6.297
12830TIP3    H238427   1.146   7.710   6.416
12831TIP3   OH238428   7.408   3.402   0.146
12831TIP3    H138429   7.454   3.327   0.108
12831TIP3    H238430   7.360   3.441   0.073
12832TIP3   OH238431   1.114   7.196   5.870
12832TIP3    H138432   1.153   7.176   5.955
12832TIP3    H238433   1.042   7.134   5.861
12833TIP3   OH238434   1.585   7.452   6.863
12833TIP3    H138435   1.548   7.535   6.833
12833TIP3    H238436   1.543   7.385   6.809
12834TIP3   OH238437   1.179   7.126   5.514
12834TIP3    H138438   1.221   7.066   5.452
12834TIP3    H238439   1.237   7.202   5.518
12835TIP3   OH238440   1.437   7.221   6.758
12835TIP3    H138441   1.350   7.197   6.726
12835TIP3    H238442   1.487   7.140   6.757
12836TIP3   OH238443   1.164   7.053   6.317
12836TIP3    H138444   1.205   7.103   6.246
12836TIP3    H238445   1.071   7.073   6.310
12837TIP3   OH238446   1.274   7.160   6.094
12837TIP3    H138447   1.340   7.097   6.065
12837TIP3    H238448   1.313   7.246   6.076
12838TIP3   OH238449   0.901   7.078   6.279
12838TIP3    H138450   0.829   7.118   6.229
12838TIP3    H238451   0.859   7.007   6.328
12839TIP3   OH238452   0.912   7.003   5.840
12839TIP3    H138453   0.830   7.024   5.795
12839TIP3    H238454   0.889   6.929   5.897
12840TIP3   OH238455   5.250   0.091   5.544
12840TIP3    H138456   5.205   0.167   5.582
12840TIP3    H238457   5.183   0.047   5.492
12841TIP3   OH238458   5.217   0.134   5.906
12841TIP3    H138459   5.269   0.115   5.984
12841TIP3    H238460   5.174   0.051   5.886
12842TIP3   OH238461   1.689   8.015   6.249
12842TIP3    H138462   1.724   7.965   6.323
12842TIP3    H238463   1.767   8.044   6.201
12843TIP3   OH238464   5.486   0.391   5.597
12843TIP3    H138465   5.469   0.311   5.646
12843TIP3    H238466   5.478   0.461   5.661
12844TIP3   OH238467   4.604   0.393   6.094
12844TIP3    H138468   4.513   0.364   6.106
12844TIP3    H238469   4.627   0.362   6.006
12845TIP3   OH238470   1.362   7.646   5.720
12845TIP3    H138471   1.320   7.729   5.746
12845TIP3    H238472   1.290   7.593   5.685
12846TIP3   OH238473   1.426   7.941   5.948
12846TIP3    H138474   1.462   7.856   5.973
12846TIP3    H238475   1.501   7.992   5.918
12847TIP3   OH238476   5.084   0.360   6.001
12847TIP3    H138477   5.121   0.284   5.956
12847TIP3    H238478   5.154   0.426   5.998
12848TIP3   OH238479   3.222   7.700   5.923
12848TIP3    H138480   3.237   7.785   5.964
12848TIP3    H238481   3.245   7.713   5.831
12849TIP3   OH238482   2.606   7.869   5.950
12849TIP3    H138483   2.636   7.782   5.978
12849TIP3    H238484   2.559   7.853   5.869
12850TIP3   OH238485   1.939   7.524   5.902
12850TIP3    H138486   1.929   7.597   5.841
12850TIP3    H238487   1.894   7.451   5.860
12851TIP3   OH238488   2.651   7.623   5.544
12851TIP3    H138489   2.713   7.616   5.617
12851TIP3    H238490   2.702   7.658   5.472
12852TIP3   OH238491   1.564   7.719   6.033
12852TIP3    H138492   1.649   7.709   6.075
12852TIP3    H238493   1.574   7.677   5.948
12853TIP3   OH238494   2.011   7.924   5.857
12853TIP3    H138495   2.106   7.911   5.862
12853TIP3    H238496   1.978   7.843   5.818
12854TIP3   OH238497   3.279   7.919   6.090
12854TIP3    H138498   3.189   7.949   6.089
12854TIP3    H238499   3.315   7.952   6.172
12855TIP3   OH238500   1.930   7.528   6.354
12855TIP3    H138501   1.878   7.563   6.281
12855TIP3    H238502   1.877   7.545   6.432
12856TIP3   OH238503   5.168   0.296   5.279
12856TIP3    H138504   5.083   0.298   5.236
12856TIP3    H238505   5.180   0.384   5.313
12857TIP3   OH238506   4.872   0.275   6.151
12857TIP3    H138507   4.806   0.342   6.171
12857TIP3    H238508   4.937   0.321   6.098
12858TIP3   OH238509   2.808   7.640   5.765
12858TIP3    H138510   2.762   7.619   5.847
12858TIP3    H238511   2.865   7.714   5.788
12859TIP3   OH238512   1.815   7.632   6.123
12859TIP3    H138513   1.873   7.706   6.143
12859TIP3    H238514   1.857   7.589   6.049
12860TIP3   OH238515   4.091   0.072   5.499
12860TIP3    H138516   4.042   0.068   5.417
12860TIP3    H238517   4.123   0.162   5.504
12861TIP3   OH238518   3.018   7.595   6.092
12861TIP3    H138519   2.932   7.619   6.057
12861TIP3    H238520   3.080   7.621   6.023
12862TIP3   OH238521   2.274   7.226   6.086
12862TIP3    H138522   2.263   7.133   6.106
12862TIP3    H238523   2.196   7.268   6.122
12863TIP3   OH238524   5.532   0.403   5.317
12863TIP3    H138525   5.459   0.425   5.260
12863TIP3    H238526   5.494   0.398   5.405
12864TIP3   OH238527   5.784   0.554   6.032
12864TIP3    H138528   5.764   0.471   5.989
12864TIP3    H238529   5.772   0.620   5.963
12865TIP3   OH238530   2.242   7.995   5.361
12865TIP3    H138531   2.152   8.028   5.356
12865TIP3    H238532   2.274   7.997   5.271
12866TIP3   OH238533   2.161   7.800   5.039
12866TIP3    H138534   2.226   7.843   5.094
12866TIP3    H238535   2.209   7.729   4.996
12867TIP3   OH238536   5.955   0.220   5.921
12867TIP3    H138537   5.866   0.256   5.927
12867TIP3    H238538   5.982   0.238   5.831
12868TIP3   OH238539   5.398   0.042   5.315
12868TIP3    H138540   5.351   0.070   5.394
12868TIP3    H238541   5.487   0.023   5.345
12869TIP3   OH238542   5.629   0.098   6.227
12869TIP3    H138543   5.628   0.180   6.276
12869TIP3    H238544   5.545   0.097   6.180
12870TIP3   OH238545   1.810   8.035   5.696
12870TIP3    H138546   1.771   7.970   5.637
12870TIP3    H238547   1.880   7.988   5.740
12871TIP3   OH238548   4.686   0.338   5.844
12871TIP3    H138549   4.630   0.358   5.769
12871TIP3    H238550   4.775   0.342   5.810
12872TIP3   OH238551   4.739   0.047   6.073
12872TIP3    H138552   4.781   0.015   5.994
12872TIP3    H238553   4.784   0.129   6.092
12873TIP3   OH238554   2.400   7.925   5.137
12873TIP3    H138555   2.459   7.981   5.187
12873TIP3    H238556   2.435   7.928   5.047
12874TIP3   OH238557   2.903   7.181   5.178
12874TIP3    H138558   2.826   7.200   5.231
12874TIP3    H238559   2.913   7.258   5.122
12875TIP3   OH238560   1.678   7.868   5.519
12875TIP3    H138561   1.611   7.921   5.475
12875TIP3    H238562   1.629   7.795   5.558
12876TIP3   OH238563   5.875   0.060   6.396
12876TIP3    H138564   5.788   0.072   6.357
12876TIP3    H238565   5.890  -0.034   6.392
12877TIP3   OH238566   2.035   7.315   6.208
12877TIP3    H138567   1.953   7.284   6.170
12877TIP3    H238568   2.011   7.396   6.253
12878TIP3   OH238569   2.571   7.439   6.407
12878TIP3    H138570   2.640   7.415   6.469
12878TIP3    H238571   2.490   7.421   6.453
12879TIP3   OH238572   2.804   7.852   6.317
12879TIP3    H138573   2.762   7.847   6.403
12879TIP3    H238574   2.786   7.941   6.287
12880TIP3   OH238575   2.470   7.907   4.868
12880TIP3    H138576   2.452   7.884   4.777
12880TIP3    H238577   2.464   8.002   4.870
12881TIP3   OH238578   2.183   7.359   5.230
12881TIP3    H138579   2.125   7.361   5.306
12881TIP3    H238580   2.149   7.287   5.177
12882TIP3   OH238581   1.977   7.837   6.216
12882TIP3    H138582   1.929   7.844   6.298
12882TIP3    H238583   1.954   7.917   6.168
12883TIP3   OH238584   1.870   7.725   5.727
12883TIP3    H138585   1.780   7.697   5.746
12883TIP3    H238586   1.884   7.702   5.635
12884TIP3   OH238587   2.348   7.774   5.477
12884TIP3    H138588   2.303   7.851   5.440
12884TIP3    H238589   2.406   7.744   5.407
12885TIP3   OH238590   5.366   0.049   6.521
12885TIP3    H138591   5.340  -0.013   6.589
12885TIP3    H238592   5.455   0.076   6.545
12886TIP3   OH238593   2.506   7.803   5.704
12886TIP3    H138594   2.439   7.828   5.641
12886TIP3    H238595   2.547   7.725   5.666
12887TIP3   OH238596   1.823   7.854   6.442
12887TIP3    H138597   1.885   7.905   6.493
12887TIP3    H238598   1.803   7.777   6.495
12888TIP3   OH238599   1.862   7.348   5.156
12888TIP3    H138600   1.878   7.317   5.245
12888TIP3    H238601   1.802   7.422   5.167
12889TIP3   OH238602   1.396   7.389   6.030
12889TIP3    H138603   1.471   7.426   6.077
12889TIP3    H238604   1.426   7.383   5.939
12890TIP3   OH238605   1.331   7.356   5.527
12890TIP3    H138606   1.372   7.390   5.448
12890TIP3    H238607   1.265   7.422   5.549
12891TIP3   OH238608   5.374   0.053   6.119
12891TIP3    H138609   5.403  -0.013   6.057
12891TIP3    H238610   5.332   0.003   6.190
12892TIP3   OH238611   2.213   7.569   5.824
12892TIP3    H138612   2.135   7.540   5.871
12892TIP3    H238613   2.285   7.525   5.869
12893TIP3   OH238614   1.627   7.601   5.786
12893TIP3    H138615   1.537   7.603   5.754
12893TIP3    H238616   1.658   7.513   5.763
12894TIP3   OH238617   1.908   7.619   5.472
12894TIP3    H138618   1.992   7.576   5.489
12894TIP3    H238619   1.855   7.552   5.429
12895TIP3   OH238620   2.663   7.603   6.005
12895TIP3    H138621   2.640   7.622   6.095
12895TIP3    H238622   2.595   7.543   5.975
12896TIP3   OH238623   1.714   7.573   5.201
12896TIP3    H138624   1.644   7.623   5.242
12896TIP3    H238625   1.776   7.638   5.170
12897TIP3   OH238626   2.282   7.879   5.903
12897TIP3    H138627   2.326   7.816   5.845
12897TIP3    H238628   2.274   7.833   5.986
12898TIP3   OH238629   1.778   7.357   5.745
12898TIP3    H138630   1.750   7.274   5.785
12898TIP3    H238631   1.817   7.331   5.662
12899TIP3   OH238632   2.240   7.777   6.162
12899TIP3    H138633   2.151   7.806   6.183
12899TIP3    H238634   2.296   7.830   6.217
12900TIP3   OH238635   4.825   0.083   5.345
12900TIP3    H138636   4.756   0.026   5.311
12900TIP3    H238637   4.785   0.127   5.419
12901TIP3   OH238638   5.698   0.318   5.904
12901TIP3    H138639   5.721   0.377   5.832
12901TIP3    H238640   5.614   0.280   5.879
12902TIP3   OH238641   2.389   7.493   5.106
12902TIP3    H138642   2.316   7.451   5.153
12902TIP3    H238643   2.428   7.551   5.171
12903TIP3   OH238644   5.250   0.470   6.234
12903TIP3    H138645   5.248   0.396   6.294
12903TIP3    H238646   5.158   0.494   6.223
12904TIP3   OH238647   2.505   7.695   5.259
12904TIP3    H138648   2.599   7.704   5.273
12904TIP3    H238649   2.480   7.776   5.214
12905TIP3   OH238650   4.499   0.061   5.926
12905TIP3    H138651   4.538   0.062   5.838
12905TIP3    H238652   4.574   0.048   5.984
12906TIP3   OH238653   4.914   0.307   5.182
12906TIP3    H138654   4.870   0.365   5.244
12906TIP3    H238655   4.866   0.225   5.187
12907TIP3   OH238656   5.152   0.231   6.541
12907TIP3    H138657   5.104   0.197   6.466
12907TIP3    H238658   5.229   0.174   6.548
12908TIP3   OH238659   2.923   7.799   5.081
12908TIP3    H138660   2.867   7.755   5.017
12908TIP3    H238661   2.935   7.887   5.046
12909TIP3   OH238662   6.026   0.579   6.145
12909TIP3    H138663   5.935   0.592   6.120
12909TIP3    H238664   6.070   0.557   6.063
12910TIP3   OH238665   5.471   0.195   5.791
12910TIP3    H138666   5.381   0.176   5.820
12910TIP3    H238667   5.501   0.112   5.752
12911TIP3   OH238668   1.347   7.764   5.305
12911TIP3    H138669   1.400   7.841   5.322
12911TIP3    H238670   1.270   7.775   5.360
12912TIP3   OH238671   4.742   0.231   5.560
12912TIP3    H138672   4.673   0.297   5.560
12912TIP3    H238673   4.709   0.161   5.616
12913TIP3   OH238674   5.242   0.161   4.885
12913TIP3    H138675   5.293   0.185   4.962
12913TIP3    H238676   5.152   0.179   4.909
12914TIP3   OH238677   1.772   7.599   6.570
12914TIP3    H138678   1.677   7.603   6.580
12914TIP3    H238679   1.801   7.544   6.643
12915TIP3   OH238680   5.405   0.206   5.095
12915TIP3    H138681   5.386   0.168   5.181
12915TIP3    H238682   5.500   0.205   5.088
12916TIP3   OH238683   4.517   0.429   5.053
12916TIP3    H138684   4.487   0.355   5.001
12916TIP3    H238685   4.612   0.428   5.045
12917TIP3   OH238686   4.314  -0.022   5.381
12917TIP3    H138687   4.244   0.004   5.441
12917TIP3    H238688   4.306   0.039   5.307
12918TIP3   OH238689   2.597   7.673   6.263
12918TIP3    H138690   2.678   7.714   6.294
12918TIP3    H238691   2.588   7.595   6.317
12919TIP3   OH238692   2.495   7.417   5.448
12919TIP3    H138693   2.420   7.455   5.403
12919TIP3    H238694   2.543   7.491   5.484
12920TIP3   OH238695   2.192   7.560   5.551
12920TIP3    H138696   2.239   7.638   5.521
12920TIP3    H238697   2.191   7.568   5.646
12921TIP3   OH238698   2.435   7.904   6.312
12921TIP3    H138699   2.467   7.950   6.390
12921TIP3    H238700   2.487   7.823   6.310
12922TIP3   OH238701   2.309   7.306   5.627
12922TIP3    H138702   2.242   7.372   5.606
12922TIP3    H238703   2.385   7.333   5.575
12923TIP3   OH238704   3.067   7.797   6.307
12923TIP3    H138705   2.973   7.809   6.317
12923TIP3    H238706   3.077   7.741   6.231
12924TIP3   OH238707   2.734   7.969   5.690
12924TIP3    H138708   2.657   7.914   5.701
12924TIP3    H238709   2.799   7.933   5.750
12925TIP3   OH238710   4.249   0.138   5.162
12925TIP3    H138711   4.276   0.229   5.156
12925TIP3    H238712   4.314   0.090   5.110
12926TIP3   OH238713   1.365   7.492   5.290
12926TIP3    H138714   1.367   7.586   5.306
12926TIP3    H238715   1.276   7.475   5.259
12927TIP3   OH238716   1.773   7.233   6.157
12927TIP3    H138717   1.746   7.205   6.070
12927TIP3    H238718   1.762   7.155   6.212
12928TIP3   OH238719   1.597   7.959   5.078
12928TIP3    H138720   1.649   7.951   5.158
12928TIP3    H238721   1.662   7.957   5.008
12929TIP3   OH238722   4.978   0.193   4.930
12929TIP3    H138723   4.927   0.227   5.003
12929TIP3    H238724   4.939   0.108   4.911
12930TIP3   OH238725   1.795   7.920   5.270
12930TIP3    H138726   1.772   7.886   5.356
12930TIP3    H238727   1.836   7.846   5.224
12931TIP3   OH238728   4.886  -0.001   6.502
12931TIP3    H138729   4.875   0.068   6.566
12931TIP3    H238730   4.934   0.040   6.430
12932TIP3   OH238731   1.891   7.743   5.078
12932TIP3    H138732   1.869   7.727   4.986
12932TIP3    H238733   1.986   7.757   5.077
12933TIP3   OH238734   5.446   0.436   6.584
12933TIP3    H138735   5.529   0.406   6.621
12933TIP3    H238736   5.379   0.382   6.628
12934TIP3   OH238737   5.581   0.045   4.733
12934TIP3    H138738   5.493   0.044   4.696
12934TIP3    H238739   5.610   0.136   4.725
12935TIP3   OH238740   2.193   7.799   6.600
12935TIP3    H138741   2.194   7.726   6.538
12935TIP3    H238742   2.152   7.871   6.551
12936TIP3   OH238743   2.189   7.611   6.391
12936TIP3    H138744   2.217   7.646   6.307
12936TIP3    H238745   2.097   7.585   6.377
12937TIP3   OH238746   5.037   0.126   6.309
12937TIP3    H138747   5.107   0.101   6.248
12937TIP3    H238748   4.978   0.180   6.257
12938TIP3   OH238749   5.633   0.064   6.624
12938TIP3    H138750   5.674  -0.022   6.628
12938TIP3    H238751   5.706   0.125   6.633
12939TIP3   OH238752   5.658   0.337   6.358
12939TIP3    H138753   5.604   0.396   6.304
12939TIP3    H238754   5.748   0.357   6.331
12940TIP3   OH238755   2.035   7.924   6.803
12940TIP3    H138756   1.969   7.861   6.831
12940TIP3    H238757   2.069   7.888   6.721
12941TIP3   OH238758   2.310   7.383   6.491
12941TIP3    H138759   2.270   7.463   6.457
12941TIP3    H238760   2.245   7.314   6.476
12942TIP3   OH238761   2.453   7.856   6.681
12942TIP3    H138762   2.445   7.853   6.776
12942TIP3    H238763   2.366   7.833   6.649
12943TIP3   OH238764   2.690   7.795   6.552
12943TIP3    H138765   2.612   7.807   6.606
12943TIP3    H238766   2.759   7.771   6.614
12944TIP3   OH238767   2.926   7.759   6.699
12944TIP3    H138768   2.938   7.664   6.708
12944TIP3    H238769   2.915   7.791   6.789
12945TIP3   OH238770   1.892   7.700   6.874
12945TIP3    H138771   1.880   7.612   6.838
12945TIP3    H238772   1.948   7.686   6.951
12946TIP3   OH238773   2.379   7.365   6.754
12946TIP3    H138774   2.447   7.298   6.749
12946TIP3    H238775   2.350   7.377   6.663
12947TIP3   OH238776   2.463   7.578   6.912
12947TIP3    H138777   2.441   7.506   6.852
12947TIP3    H238778   2.391   7.641   6.901
12948TIP3   OH238779   3.996   0.078   5.245
12948TIP3    H138780   4.082   0.102   5.209
12948TIP3    H238781   3.943   0.059   5.167
12949TIP3   OH238782   5.674   0.217   5.088
12949TIP3    H138783   5.699   0.309   5.078
12949TIP3    H238784   5.728   0.186   5.160
12950TIP3   OH238785   5.826   0.104   5.285
12950TIP3    H138786   5.764   0.065   5.346
12950TIP3    H238787   5.893   0.144   5.340
12951TIP3   OH238788   5.866   0.479   5.750
12951TIP3    H138789   5.887   0.415   5.682
12951TIP3    H238790   5.845   0.559   5.703
12952TIP3   OH238791   5.770   0.013   4.931
12952TIP3    H138792   5.700   0.009   4.866
12952TIP3    H238793   5.746   0.088   4.986
12953TIP3   OH238794   2.782   7.701   4.872
12953TIP3    H138795   2.729   7.752   4.811
12953TIP3    H238796   2.757   7.610   4.855
12954TIP3   OH238797   2.805   7.975   5.427
12954TIP3    H138798   2.808   7.881   5.410
12954TIP3    H238799   2.785   7.982   5.520
12955TIP3   OH238800   4.255   0.029   6.203
12955TIP3    H138801   4.245   0.000   6.112
12955TIP3    H238802   4.349   0.023   6.220
12956TIP3   OH238803   5.918   0.381   6.300
12956TIP3    H138804   5.980   0.309   6.291
12956TIP3    H238805   5.946   0.445   6.234
12957TIP3   OH238806   6.097   0.177   6.295
12957TIP3    H138807   6.020   0.133   6.331
12957TIP3    H238808   6.170   0.119   6.315
12958TIP3   OH238809   2.717   7.430   4.842
12958TIP3    H138810   2.779   7.410   4.912
12958TIP3    H238811   2.635   7.387   4.869
12959TIP3   OH238812   2.790   7.710   5.312
12959TIP3    H138813   2.834   7.626   5.325
12959TIP3    H238814   2.834   7.749   5.237
12960TIP3   OH238815   2.947   7.867   5.842
12960TIP3    H138816   3.027   7.887   5.794
12960TIP3    H238817   2.958   7.910   5.927
12961TIP3   OH238818   5.851   0.007   6.066
12961TIP3    H138819   5.775   0.038   6.116
12961TIP3    H238820   5.883   0.084   6.019
12962TIP3   OH238821   3.478   7.631   6.595
12962TIP3    H138822   3.543   7.577   6.550
12962TIP3    H238823   3.435   7.681   6.525
12963TIP3   OH238824   2.905   7.462   5.357
12963TIP3    H138825   2.947   7.448   5.442
12963TIP3    H238826   2.839   7.393   5.352
12964TIP3   OH238827   1.610   7.452   6.199
12964TIP3    H138828   1.665   7.373   6.192
12964TIP3    H238829   1.669   7.524   6.177
12965TIP3   OH238830   1.391   7.765   6.260
12965TIP3    H138831   1.443   7.738   6.185
12965TIP3    H238832   1.389   7.860   6.255
12966TIP3   OH238833   3.324   7.739   6.398
12966TIP3    H138834   3.239   7.781   6.409
12966TIP3    H238835   3.306   7.661   6.345
12967TIP3   OH238836   2.945   7.382   4.992
12967TIP3    H138837   2.993   7.318   4.939
12967TIP3    H238838   3.005   7.455   5.003
12968TIP3   OH238839   1.380   7.220   5.758
12968TIP3    H138840   1.290   7.207   5.791
12968TIP3    H238841   1.369   7.277   5.681
12969TIP3   OH238842   1.610   7.277   6.543
12969TIP3    H138843   1.549   7.262   6.615
12969TIP3    H238844   1.559   7.324   6.477
12970TIP3   OH238845   3.238   7.496   6.291
12970TIP3    H138846   3.150   7.489   6.254
12970TIP3    H238847   3.274   7.407   6.286
12971TIP3   OH238848   2.435   7.431   5.940
12971TIP3    H138849   2.393   7.357   5.984
12971TIP3    H238850   2.499   7.389   5.881
12972TIP3   OH238851   2.943   7.337   5.816
12972TIP3    H138852   2.979   7.389   5.744
12972TIP3    H238853   2.850   7.358   5.818
12973TIP3   OH238854   3.060   7.420   5.581
12973TIP3    H138855   3.129   7.359   5.556
12973TIP3    H238856   3.098   7.507   5.568
12974TIP3   OH238857   1.688   7.132   5.914
12974TIP3    H138858   1.597   7.104   5.919
12974TIP3    H238859   1.738   7.051   5.908
12975TIP3   OH238860   1.508   7.032   5.579
12975TIP3    H138861   1.544   7.083   5.507
12975TIP3    H238862   1.473   7.098   5.640
12976TIP3   OH238863   2.172   7.160   5.824
12976TIP3    H138864   2.206   7.212   5.752
12976TIP3    H238865   2.211   7.197   5.902
12977TIP3   OH238866   2.654   7.322   5.801
12977TIP3    H138867   2.647   7.290   5.711
12977TIP3    H238868   2.659   7.244   5.855
12978TIP3   OH238869   2.709   7.263   5.357
12978TIP3    H138870   2.630   7.312   5.379
12978TIP3    H238871   2.696   7.177   5.398
12979TIP3   OH238872   1.634   7.155   5.350
12979TIP3    H138873   1.674   7.093   5.289
12979TIP3    H238874   1.707   7.201   5.390
12980TIP3   OH238875   1.900   7.426   6.782
12980TIP3    H138876   1.858   7.364   6.842
12980TIP3    H238877   1.992   7.427   6.809
12981TIP3   OH238878   2.149   7.402   6.908
12981TIP3    H138879   2.229   7.391   6.856
12981TIP3    H238880   2.147   7.325   6.965
12982TIP3   OH238881   2.983   7.488   6.718
12982TIP3    H138882   3.000   7.463   6.809
12982TIP3    H238883   3.069   7.486   6.676
12983TIP3   OH238884   7.027   0.327   5.011
12983TIP3    H138885   7.022   0.382   5.089
12983TIP3    H238886   6.990   0.243   5.038
12984TIP3   OH238887   7.077   0.287   5.368
12984TIP3    H138888   7.073   0.323   5.456
12984TIP3    H238889   7.001   0.228   5.362
12985TIP3   OH238890   6.306   0.271   5.746
12985TIP3    H138891   6.345   0.210   5.808
12985TIP3    H238892   6.371   0.340   5.737
12986TIP3   OH238893   7.242   0.682   5.095
12986TIP3    H138894   7.241   0.597   5.139
12986TIP3    H238895   7.151   0.694   5.065
12987TIP3   OH238896   6.430   0.587   5.549
12987TIP3    H138897   6.335   0.582   5.560
12987TIP3    H238898   6.443   0.589   5.455
12988TIP3   OH238899   3.159   7.904   5.203
12988TIP3    H138900   3.119   7.988   5.227
12988TIP3    H238901   3.085   7.850   5.176
12989TIP3   OH238902   6.056   0.174   5.420
12989TIP3    H138903   6.097   0.094   5.453
12989TIP3    H238904   6.129   0.230   5.395
12990TIP3   OH238905   6.835   0.654   5.446
12990TIP3    H138906   6.833   0.601   5.367
12990TIP3    H238907   6.923   0.691   5.449
12991TIP3   OH238908   5.009   7.962   5.397
12991TIP3    H138909   5.035   8.041   5.444
12991TIP3    H238910   5.053   7.969   5.312
12992TIP3   OH238911   7.271   0.102   5.438
12992TIP3    H138912   7.204   0.034   5.448
12992TIP3    H238913   7.227   0.172   5.389
12993TIP3   OH238914   3.748   7.785   5.394
12993TIP3    H138915   3.724   7.855   5.334
12993TIP3    H238916   3.696   7.710   5.366
12994TIP3   OH238917   3.365   7.980   5.525
12994TIP3    H138918   3.450   7.969   5.566
12994TIP3    H238919   3.372   7.931   5.443
12995TIP3   OH238920   6.643   0.172   5.312
12995TIP3    H138921   6.733   0.145   5.329
12995TIP3    H238922   6.599   0.091   5.285
12996TIP3   OH238923   7.901   0.160   5.567
12996TIP3    H138924   7.811   0.194   5.569
12996TIP3    H238925   7.939   0.190   5.650
12997TIP3   OH238926   3.724   7.783   5.841
12997TIP3    H138927   3.673   7.819   5.768
12997TIP3    H238928   3.669   7.799   5.918
12998TIP3   OH238929   7.022   0.549   4.845
12998TIP3    H138930   6.960   0.527   4.775
12998TIP3    H238931   7.019   0.474   4.904
12999TIP3   OH238932   6.680   0.510   5.618
12999TIP3    H138933   6.592   0.547   5.610
12999TIP3    H238934   6.735   0.567   5.565
13000TIP3   OH238935   3.615   7.892   5.612
13000TIP3    H138936   3.671   7.966   5.638
13000TIP3    H238937   3.662   7.850   5.541
13001TIP3   OH238938   6.557   0.790   5.691
13001TIP3    H138939   6.496   0.723   5.662
13001TIP3    H238940   6.515   0.829   5.768
13002TIP3   OH238941   5.928   0.317   5.003
13002TIP3    H138942   5.857   0.322   4.939
13002TIP3    H238943   5.950   0.409   5.021
13003TIP3   OH238944   4.760   7.909   5.511
13003TIP3    H138945   4.773   7.828   5.561
13003TIP3    H238946   4.844   7.923   5.467
13004TIP3   OH238947   4.065   7.477   5.564
13004TIP3    H138948   4.058   7.385   5.587
13004TIP3    H238949   3.988   7.518   5.605
13005TIP3   OH238950   7.313   0.645   4.828
13005TIP3    H138951   7.232   0.644   4.777
13005TIP3    H238952   7.283   0.650   4.919
13006TIP3   OH238953   7.654   0.813   5.512
13006TIP3    H138954   7.600   0.741   5.479
13006TIP3    H238955   7.590   0.879   5.541
13007TIP3   OH238956   6.816   0.165   4.766
13007TIP3    H138957   6.738   0.216   4.791
13007TIP3    H238958   6.872   0.228   4.720
13008TIP3   OH238959   6.786   0.018   4.517
13008TIP3    H138960   6.818   0.059   4.597
13008TIP3    H238961   6.862  -0.029   4.482
13009TIP3   OH238962   7.751   0.476   5.409
13009TIP3    H138963   7.668   0.524   5.412
13009TIP3    H238964   7.784   0.493   5.321
13010TIP3   OH238965   7.198   0.301   4.796
13010TIP3    H138966   7.139   0.313   4.870
13010TIP3    H238967   7.284   0.283   4.835
13011TIP3   OH238968   7.435   0.354   5.721
13011TIP3    H138969   7.438   0.436   5.771
13011TIP3    H238970   7.349   0.355   5.679
13012TIP3   OH238971   6.433   0.300   5.184
13012TIP3    H138972   6.393   0.237   5.124
13012TIP3    H238973   6.509   0.254   5.220
13013TIP3   OH238974   6.512   0.637   5.297
13013TIP3    H138975   6.449   0.664   5.230
13013TIP3    H238976   6.553   0.719   5.325
13014TIP3   OH238977   6.544   0.284   5.541
13014TIP3    H138978   6.582   0.255   5.459
13014TIP3    H238979   6.592   0.364   5.563
13015TIP3   OH238980   6.740   0.744   5.910
13015TIP3    H138981   6.799   0.806   5.868
13015TIP3    H238982   6.673   0.725   5.844
13016TIP3   OH238983   7.072   0.130   4.622
13016TIP3    H138984   7.118   0.198   4.670
13016TIP3    H238985   7.076   0.157   4.530
13017TIP3   OH238986   6.455   0.379   6.017
13017TIP3    H138987   6.458   0.466   6.056
13017TIP3    H238988   6.363   0.353   6.025
13018TIP3   OH238989   4.700   7.440   4.672
13018TIP3    H138990   4.623   7.453   4.727
13018TIP3    H238991   4.703   7.516   4.615
13019TIP3   OH238992   6.309   0.118   5.014
13019TIP3    H138993   6.241   0.165   4.965
13019TIP3    H238994   6.265   0.041   5.048
13020TIP3   OH238995   6.100   0.492   5.903
13020TIP3    H138996   6.019   0.490   5.852
13020TIP3    H238997   6.124   0.400   5.914
13021TIP3   OH238998   7.669   0.323   5.884
13021TIP3    H138999   7.587   0.325   5.835
13021TIP3    H239000   7.691   0.229   5.889
13022TIP3   OH239001   6.295   0.644   5.797
13022TIP3    H139002   6.339   0.690   5.868
13022TIP3    H239003   6.224   0.596   5.840
13023TIP3   OH239004   3.830   7.571   5.694
13023TIP3    H139005   3.746   7.536   5.663
13023TIP3    H239006   3.807   7.650   5.742
13024TIP3   OH239007   4.357   7.703   5.886
13024TIP3    H139008   4.427   7.677   5.946
13024TIP3    H239009   4.277   7.686   5.934
13025TIP3   OH239010   7.418   0.087   5.801
13025TIP3    H139011   7.375   0.079   5.886
13025TIP3    H239012   7.413   0.181   5.780
13026TIP3   OH239013   7.060   0.189   4.357
13026TIP3    H139014   7.045   0.158   4.267
13026TIP3    H239015   7.026   0.279   4.356
13027TIP3   OH239016   3.972   7.627   4.670
13027TIP3    H139017   3.939   7.624   4.760
13027TIP3    H239018   3.940   7.545   4.630
13028TIP3   OH239019   6.607   0.082   5.711
13028TIP3    H139020   6.557   0.092   5.793
13028TIP3    H239021   6.579   0.156   5.658
13029TIP3   OH239022   3.653   7.978   5.228
13029TIP3    H139023   3.564   7.956   5.256
13029TIP3    H239024   3.658   7.946   5.138
13030TIP3   OH239025   6.958   0.023   4.951
13030TIP3    H139026   6.906   0.073   4.887
13030TIP3    H239027   7.031  -0.012   4.900
13031TIP3   OH239028   7.172   0.315   6.033
13031TIP3    H139029   7.135   0.249   6.093
13031TIP3    H239030   7.265   0.318   6.055
13032TIP3   OH239031   6.439   0.098   5.926
13032TIP3    H139032   6.441   0.164   5.995
13032TIP3    H239033   6.420   0.016   5.971
13033TIP3   OH239034   3.632   7.594   4.634
13033TIP3    H139035   3.627   7.592   4.729
13033TIP3    H239036   3.556   7.644   4.606
13034TIP3   OH239037   3.196   7.640   5.505
13034TIP3    H139038   3.266   7.674   5.560
13034TIP3    H239039   3.239   7.614   5.423
13035TIP3   OH239040   3.110   7.604   5.015
13035TIP3    H139041   3.151   7.638   4.936
13035TIP3    H239042   3.049   7.674   5.041
13036TIP3   OH239043   7.183   0.295   5.628
13036TIP3    H139044   7.220   0.220   5.581
13036TIP3    H239045   7.130   0.255   5.698
13037TIP3   OH239046   4.013   7.829   5.311
13037TIP3    H139047   3.932   7.801   5.353
13037TIP3    H239048   4.081   7.775   5.351
13038TIP3   OH239049   3.416   7.854   5.286
13038TIP3    H139050   3.327   7.858   5.249
13038TIP3    H239051   3.445   7.764   5.269
13039TIP3   OH239052   3.658   7.851   4.985
13039TIP3    H139053   3.753   7.859   4.974
13039TIP3    H239054   3.622   7.869   4.898
13040TIP3   OH239055   4.479   7.843   5.435
13040TIP3    H139056   4.452   7.841   5.527
13040TIP3    H239057   4.442   7.764   5.397
13041TIP3   OH239058   3.537   7.872   4.738
13041TIP3    H139059   3.464   7.829   4.692
13041TIP3    H239060   3.592   7.906   4.667
13042TIP3   OH239061   6.446   0.622   6.163
13042TIP3    H139062   6.517   0.626   6.227
13042TIP3    H239063   6.366   0.630   6.215
13043TIP3   OH239064   6.893   0.077   5.393
13043TIP3    H139065   6.887  -0.010   5.354
13043TIP3    H239066   6.889   0.062   5.487
13044TIP3   OH239067   3.565   7.607   5.278
13044TIP3    H139068   3.529   7.534   5.328
13044TIP3    H239069   3.606   7.566   5.202
13045TIP3   OH239070   6.876   0.040   5.665
13045TIP3    H139071   6.788   0.068   5.689
13045TIP3    H239072   6.934   0.088   5.724
13046TIP3   OH239073   6.612   0.335   4.830
13046TIP3    H139074   6.528   0.292   4.816
13046TIP3    H239075   6.603   0.378   4.916
13047TIP3   OH239076   7.513   0.606   5.392
13047TIP3    H139077   7.536   0.655   5.313
13047TIP3    H239078   7.432   0.560   5.369
13048TIP3   OH239079   4.218   7.727   4.617
13048TIP3    H139080   4.127   7.705   4.636
13048TIP3    H239081   4.236   7.804   4.670
13049TIP3   OH239082   7.000   0.633   5.759
13049TIP3    H139083   7.002   0.664   5.849
13049TIP3    H239084   6.947   0.698   5.712
13050TIP3   OH239085   4.319   7.936   4.775
13050TIP3    H139086   4.414   7.949   4.784
13050TIP3    H239087   4.291   8.007   4.717
13051TIP3   OH239088   6.293   0.314   5.419
13051TIP3    H139089   6.333   0.322   5.332
13051TIP3    H239090   6.367   0.297   5.478
13052TIP3   OH239091   6.805   0.478   4.690
13052TIP3    H139092   6.779   0.560   4.731
13052TIP3    H239093   6.733   0.418   4.709
13053TIP3   OH239094   6.200   0.269   6.055
13053TIP3    H139095   6.187   0.250   6.148
13053TIP3    H239096   6.123   0.230   6.012
13054TIP3   OH239097   6.924   0.432   6.082
13054TIP3    H139098   6.856   0.378   6.041
13054TIP3    H239099   7.006   0.400   6.043
13055TIP3   OH239100   7.553   0.038   4.559
13055TIP3    H139101   7.489  -0.004   4.500
13055TIP3    H239102   7.567   0.124   4.520
13056TIP3   OH239103   7.880   0.854   5.650
13056TIP3    H139104   7.796   0.859   5.605
13056TIP3    H239105   7.945   0.855   5.580
13057TIP3   OH239106   7.274   0.488   5.318
13057TIP3    H139107   7.230   0.559   5.364
13057TIP3    H239108   7.211   0.416   5.319
13058TIP3   OH239109   5.997  -0.002   4.777
13058TIP3    H139110   6.050   0.076   4.794
13058TIP3    H239111   5.922   0.008   4.836
13059TIP3   OH239112   6.595   0.483   5.057
13059TIP3    H139113   6.541   0.554   5.022
13059TIP3    H239114   6.537   0.437   5.118
13060TIP3   OH239115   6.982   0.479   4.427
13060TIP3    H139116   7.041   0.465   4.501
13060TIP3    H239117   7.040   0.502   4.354
13061TIP3   OH239118   3.553   7.862   6.046
13061TIP3    H139119   3.458   7.872   6.051
13061TIP3    H239120   3.575   7.811   6.124
13062TIP3   OH239121   7.221   0.455   4.572
13062TIP3    H139122   7.204   0.406   4.652
13062TIP3    H239123   7.315   0.470   4.572
13063TIP3   OH239124   6.396   0.458   4.590
13063TIP3    H139125   6.329   0.419   4.533
13063TIP3    H239126   6.445   0.517   4.532
13064TIP3   OH239127   6.124   0.230   4.852
13064TIP3    H139128   6.057   0.252   4.917
13064TIP3    H239129   6.130   0.307   4.796
13065TIP3   OH239130   4.434   7.890   5.698
13065TIP3    H139131   4.490   7.954   5.743
13065TIP3    H239132   4.406   7.830   5.767
13066TIP3   OH239133   4.286   7.673   4.897
13066TIP3    H139134   4.254   7.647   4.811
13066TIP3    H239135   4.307   7.765   4.889
13067TIP3   OH239136   3.936   7.858   5.042
13067TIP3    H139137   4.000   7.921   5.008
13067TIP3    H239138   3.957   7.850   5.135
13068TIP3   OH239139   7.082   0.138   5.832
13068TIP3    H139140   7.102   0.204   5.898
13068TIP3    H239141   7.127   0.059   5.863
13069TIP3   OH239142   4.116   7.591   5.112
13069TIP3    H139143   4.129   7.666   5.170
13069TIP3    H239144   4.179   7.605   5.041
13070TIP3   OH239145   3.617   7.583   4.912
13070TIP3    H139146   3.605   7.670   4.949
13070TIP3    H239147   3.711   7.566   4.921
13071TIP3   OH239148   7.690   0.053   5.789
13071TIP3    H139149   7.595   0.050   5.802
13071TIP3    H239150   7.704   0.007   5.706
13072TIP3   OH239151   6.054   0.424   4.660
13072TIP3    H139152   6.013   0.474   4.589
13072TIP3    H239153   6.104   0.355   4.615
13073TIP3   OH239154   3.166   7.737   4.783
13073TIP3    H139155   3.189   7.829   4.795
13073TIP3    H239156   3.088   7.738   4.728
13074TIP3   OH239157   3.568   7.484   5.657
13074TIP3    H139158   3.537   7.453   5.572
13074TIP3    H239159   3.559   7.409   5.716
13075TIP3   OH239160   6.219   0.571   6.334
13075TIP3    H139161   6.268   0.489   6.333
13075TIP3    H239162   6.156   0.563   6.262
13076TIP3   OH239163   6.208   0.221   4.556
13076TIP3    H139164   6.259   0.197   4.634
13076TIP3    H239165   6.270   0.214   4.484
13077TIP3   OH239166   6.826   0.679   6.154
13077TIP3    H139167   6.795   0.708   6.068
13077TIP3    H239168   6.872   0.596   6.136
13078TIP3   OH239169   6.725   0.421   4.366
13078TIP3    H139170   6.806   0.447   4.408
13078TIP3    H239171   6.673   0.382   4.436
13079TIP3   OH239172   7.277   0.676   5.692
13079TIP3    H139173   7.253   0.743   5.757
13079TIP3    H239174   7.193   0.639   5.665
13080TIP3   OH239175   6.392   0.358   6.329
13080TIP3    H139176   6.471   0.337   6.280
13080TIP3    H239177   6.424   0.397   6.411
13081TIP3   OH239178   6.405   0.164   4.752
13081TIP3    H139179   6.376   0.131   4.837
13081TIP3    H239180   6.439   0.086   4.707
13082TIP3   OH239181   6.716   0.281   5.964
13082TIP3    H139182   6.630   0.321   5.969
13082TIP3    H239183   6.754   0.314   5.883
13083TIP3   OH239184   3.686   8.005   4.554
13083TIP3    H139185   3.659   7.991   4.463
13083TIP3    H239186   3.782   8.000   4.551
13084TIP3   OH239187   7.205   0.647   6.063
13084TIP3    H139188   7.227   0.557   6.039
13084TIP3    H239189   7.165   0.640   6.149
13085TIP3   OH239190   7.407   0.283   4.207
13085TIP3    H139191   7.354   0.233   4.146
13085TIP3    H239192   7.477   0.320   4.153
13086TIP3   OH239193   6.807   0.052   6.082
13086TIP3    H139194   6.811  -0.020   6.020
13086TIP3    H239195   6.775   0.127   6.031
13087TIP3   OH239196   3.981   7.872   5.879
13087TIP3    H139197   4.009   7.911   5.797
13087TIP3    H239198   3.890   7.845   5.864
13088TIP3   OH239199   6.870   0.384   5.761
13088TIP3    H139200   6.938   0.451   5.764
13088TIP3    H239201   6.800   0.422   5.708
13089TIP3   OH239202   7.432   0.323   6.138
13089TIP3    H139203   7.481   0.242   6.152
13089TIP3    H239204   7.499   0.392   6.133
13090TIP3   OH239205   7.471   0.586   5.859
13090TIP3    H139206   7.407   0.626   5.800
13090TIP3    H239207   7.556   0.614   5.825
13091TIP3   OH239208   6.679   0.143   6.313
13091TIP3    H139209   6.616   0.075   6.336
13091TIP3    H239210   6.715   0.115   6.229
13092TIP3   OH239211   4.101   7.641   5.976
13092TIP3    H139212   4.059   7.721   5.945
13092TIP3    H239213   4.035   7.573   5.963
13093TIP3   OH239214   7.061   0.111   6.179
13093TIP3    H139215   7.060   0.097   6.273
13093TIP3    H239216   6.974   0.084   6.150
13094TIP3   OH239217   7.288   0.034   6.032
13094TIP3    H139218   7.217   0.044   6.095
13094TIP3    H239219   7.365   0.014   6.086
13095TIP3   OH239220   4.693   8.017   6.173
13095TIP3    H139221   4.712   7.924   6.180
13095TIP3    H239222   4.692   8.049   6.263
13096TIP3   OH239223   3.696   7.932   6.381
13096TIP3    H139224   3.703   7.844   6.344
13096TIP3    H239225   3.732   7.923   6.470
13097TIP3   OH239226   4.165   7.617   6.241
13097TIP3    H139227   4.235   7.552   6.236
13097TIP3    H239228   4.136   7.629   6.150
13098TIP3   OH239229   4.262   7.844   6.364
13098TIP3    H139230   4.228   7.768   6.316
13098TIP3    H239231   4.187   7.902   6.374
13099TIP3   OH239232   5.796   0.332   4.744
13099TIP3    H139233   5.872   0.389   4.732
13099TIP3    H239234   5.805   0.264   4.677
13100TIP3   OH239235   7.716   1.075   5.919
13100TIP3    H139236   7.669   1.022   5.984
13100TIP3    H239237   7.746   1.151   5.968
13101TIP3   OH239238   7.486   0.482   4.581
13101TIP3    H139239   7.553   0.540   4.544
13101TIP3    H239240   7.524   0.450   4.662
13102TIP3   OH239241   7.616   0.367   4.789
13102TIP3    H139242   7.562   0.318   4.851
13102TIP3    H239243   7.694   0.391   4.840
13103TIP3   OH239244   7.665   0.738   5.205
13103TIP3    H139245   7.739   0.679   5.194
13103TIP3    H239246   7.620   0.737   5.121
13104TIP3   OH239247   7.571   0.273   4.425
13104TIP3    H139248   7.505   0.272   4.356
13104TIP3    H239249   7.549   0.348   4.479
13105TIP3   OH239250   4.551   7.952   4.369
13105TIP3    H139251   4.514   7.994   4.291
13105TIP3    H239252   4.547   7.858   4.351
13106TIP3   OH239253   7.429   0.211   4.927
13106TIP3    H139254   7.430   0.124   4.887
13106TIP3    H239255   7.436   0.194   5.021
13107TIP3   OH239256   6.047   0.278   5.671
13107TIP3    H139257   6.034   0.243   5.583
13107TIP3    H239258   6.142   0.273   5.685
13108TIP3   OH239259   7.724   0.658   5.786
13108TIP3    H139260   7.781   0.582   5.776
13108TIP3    H239261   7.760   0.723   5.726
13109TIP3   OH239262   7.892   0.442   5.788
13109TIP3    H139263   7.815   0.398   5.824
13109TIP3    H239264   7.963   0.378   5.800
13110TIP3   OH239265   4.514   7.681   4.309
13110TIP3    H139266   4.579   7.659   4.376
13110TIP3    H239267   4.434   7.638   4.338
13111TIP3   OH239268   4.595   7.977   4.797
13111TIP3    H139269   4.632   7.892   4.821
13111TIP3    H239270   4.641   8.002   4.717
13112TIP3   OH239271   7.549   0.114   5.331
13112TIP3    H139272   7.617   0.124   5.264
13112TIP3    H239273   7.575   0.174   5.401
13113TIP3   OH239274   7.638   0.267   5.542
13113TIP3    H139275   7.571   0.301   5.602
13113TIP3    H239276   7.676   0.344   5.502
13114TIP3   OH239277   3.433   7.981   6.324
13114TIP3    H139278   3.527   7.980   6.344
13114TIP3    H239279   3.400   7.900   6.363
13115TIP3   OH239280   5.255   7.880   6.060
13115TIP3    H139281   5.322   7.819   6.028
13115TIP3    H239282   5.218   7.919   5.981
13116TIP3   OH239283   4.690   7.719   4.854
13116TIP3    H139284   4.738   7.707   4.936
13116TIP3    H239285   4.630   7.644   4.850
13117TIP3   OH239286   3.404   7.707   5.677
13117TIP3    H139287   3.458   7.628   5.683
13117TIP3    H239288   3.465   7.778   5.660
13118TIP3   OH239289   3.187   7.960   5.743
13118TIP3    H139290   3.238   7.953   5.663
13118TIP3    H239291   3.212   8.045   5.780
13119TIP3   OH239292   5.110   7.974   5.849
13119TIP3    H139293   5.022   8.012   5.853
13119TIP3    H239294   5.097   7.887   5.811
13120TIP3   OH239295   4.733   7.638   4.478
13120TIP3    H139296   4.780   7.574   4.424
13120TIP3    H239297   4.794   7.710   4.488
13121TIP3   OH239298   3.174   7.472   5.243
13121TIP3    H139299   3.088   7.462   5.284
13121TIP3    H239300   3.158   7.527   5.167
13122TIP3   OH239301   3.398   7.537   6.060
13122TIP3    H139302   3.346   7.529   6.140
13122TIP3    H239303   3.343   7.587   6.000
13123TIP3   OH239304   4.210   7.658   5.397
13123TIP3    H139305   4.174   7.593   5.458
13123TIP3    H239306   4.287   7.616   5.359
13124TIP3   OH239307   4.748   7.579   5.307
13124TIP3    H139308   4.784   7.630   5.235
13124TIP3    H239309   4.655   7.601   5.308
13125TIP3   OH239310   4.853   7.680   5.074
13125TIP3    H139311   4.921   7.618   5.048
13125TIP3    H239312   4.893   7.766   5.059
13126TIP3   OH239313   3.475   7.386   5.417
13126TIP3    H139314   3.386   7.352   5.426
13126TIP3    H239315   3.529   7.307   5.409
13127TIP3   OH239316   3.281   7.280   5.062
13127TIP3    H139317   3.316   7.331   4.989
13127TIP3    H239318   3.253   7.345   5.127
13128TIP3   OH239319   3.954   7.436   5.288
13128TIP3    H139320   4.010   7.478   5.223
13128TIP3    H239321   3.996   7.457   5.372
13129TIP3   OH239322   4.456   7.569   5.291
13129TIP3    H139323   4.466   7.535   5.202
13129TIP3    H239324   4.460   7.491   5.347
13130TIP3   OH239325   4.505   7.501   4.864
13130TIP3    H139326   4.427   7.553   4.883
13130TIP3    H239327   4.487   7.415   4.903
13131TIP3   OH239328   3.409   7.413   4.835
13131TIP3    H139329   3.457   7.348   4.782
13131TIP3    H239330   3.477   7.470   4.870
13132TIP3   OH239331   3.892   7.607   4.934
13132TIP3    H139332   3.951   7.549   4.983
13132TIP3    H239333   3.908   7.693   4.972
13133TIP3   OH239334   3.708   7.663   6.294
13133TIP3    H139335   3.673   7.597   6.353
13133TIP3    H239336   3.800   7.671   6.318
13134TIP3   OH239337   3.954   7.669   6.418
13134TIP3    H139338   4.031   7.648   6.365
13134TIP3    H239339   3.950   7.599   6.483
13135TIP3   OH239340   4.766   7.750   6.185
13135TIP3    H139341   4.783   7.723   6.276
13135TIP3    H239342   4.851   7.743   6.142
13136TIP3   OH239343   0.272   0.637   4.471
13136TIP3    H139344   0.234   0.724   4.482
13136TIP3    H239345   0.201   0.584   4.436
13137TIP3   OH239346   0.233   0.616   4.874
13137TIP3    H139347   0.277   0.607   4.958
13137TIP3    H239348   0.203   0.528   4.853
13138TIP3   OH239349   8.106   0.514   5.222
13138TIP3    H139350   8.139   0.455   5.290
13138TIP3    H239351   8.185   0.554   5.185
13139TIP3   OH239352   0.423   1.006   4.672
13139TIP3    H139353   0.434   0.919   4.711
13139TIP3    H239354   0.497   1.056   4.705
13140TIP3   OH239355   8.194   0.878   4.889
13140TIP3    H139356   8.132   0.807   4.902
13140TIP3    H239357   8.180   0.937   4.964
13141TIP3   OH239358   7.781   0.148   4.692
13141TIP3    H139359   7.740   0.232   4.712
13141TIP3    H239360   7.710   0.095   4.656
13142TIP3   OH239361   7.852   0.433   4.910
13142TIP3    H139362   7.896   0.354   4.940
13142TIP3    H239363   7.924   0.492   4.886
13143TIP3   OH239364   0.133   0.879   4.880
13143TIP3    H139365   0.158   0.790   4.855
13143TIP3    H239366   0.213   0.919   4.913
13144TIP3   OH239367   1.068   0.231   4.915
13144TIP3    H139368   1.112   0.302   4.963
13144TIP3    H239369   1.137   0.190   4.863
13145TIP3   OH239370   0.500   0.376   4.925
13145TIP3    H139371   0.543   0.296   4.953
13145TIP3    H239372   0.465   0.356   4.838
13146TIP3   OH239373   8.374   0.024   4.878
13146TIP3    H139374   8.353   0.098   4.821
13146TIP3    H239375   8.319  -0.047   4.847
13147TIP3   OH239376   0.571   0.126   4.514
13147TIP3    H139377   0.635   0.130   4.584
13147TIP3    H239378   0.620   0.148   4.435
13148TIP3   OH239379   7.985   0.219   5.012
13148TIP3    H139380   8.069   0.211   5.056
13148TIP3    H239381   7.997   0.172   4.930
13149TIP3   OH239382   8.422   0.432   4.808
13149TIP3    H139383   8.512   0.405   4.821
13149TIP3    H239384   8.376   0.353   4.778
13150TIP3   OH239385   8.351   0.027   5.326
13150TIP3    H139386   8.300   0.066   5.255
13150TIP3    H239387   8.296   0.038   5.404
13151TIP3   OH239388   0.110   0.853   4.362
13151TIP3    H139389   0.047   0.793   4.323
13151TIP3    H239390   0.130   0.915   4.292
13152TIP3   OH239391   8.482   0.784   5.087
13152TIP3    H139392   8.462   0.858   5.146
13152TIP3    H239393   8.528   0.824   5.014
13153TIP3   OH239394   0.725   0.180   4.733
13153TIP3    H139395   0.688   0.147   4.815
13153TIP3    H239396   0.772   0.259   4.758
13154TIP3   OH239397   8.237   0.133   5.098
13154TIP3    H139398   8.289   0.210   5.121
13154TIP3    H239399   8.287   0.090   5.028
13155TIP3   OH239400   8.385   0.988   5.248
13155TIP3    H139401   8.347   1.032   5.172
13155TIP3    H239402   8.313   0.935   5.282
13156TIP3   OH239403   7.708   0.578   4.457
13156TIP3    H139404   7.669   0.584   4.370
13156TIP3    H239405   7.743   0.666   4.474
13157TIP3   OH239406   0.883   0.074   5.065
13157TIP3    H139407   0.801   0.086   5.017
13157TIP3    H239408   0.948   0.122   5.013
13158TIP3   OH239409   5.856   7.737   5.056
13158TIP3    H139410   5.850   7.645   5.082
13158TIP3    H239411   5.779   7.778   5.095
13159TIP3   OH239412   0.540   0.969   4.099
13159TIP3    H139413   0.477   0.919   4.151
13159TIP3    H239414   0.622   0.962   4.148
13160TIP3   OH239415   0.113   0.485   4.301
13160TIP3    H139416   0.034   0.537   4.286
13160TIP3    H239417   0.155   0.479   4.215
13161TIP3   OH239418   0.087   0.294   3.982
13161TIP3    H139419   0.149   0.351   4.027
13161TIP3    H239420   0.142   0.228   3.938
13162TIP3   OH239421   0.442   0.525   4.288
13162TIP3    H139422   0.390   0.548   4.365
13162TIP3    H239423   0.522   0.489   4.324
13163TIP3   OH239424   8.234   0.567   4.653
13163TIP3    H139425   8.204   0.499   4.592
13163TIP3    H239426   8.310   0.527   4.697
13164TIP3   OH239427   8.406   1.040   4.820
13164TIP3    H139428   8.337   0.975   4.834
13164TIP3    H239429   8.488   0.991   4.832
13165TIP3   OH239430   8.323   0.568   5.029
13165TIP3    H139431   8.362   0.532   4.949
13165TIP3    H239432   8.373   0.648   5.047
13166TIP3   OH239433   8.504   1.045   5.499
13166TIP3    H139434   8.433   1.108   5.511
13166TIP3    H239435   8.494   1.014   5.409
13167TIP3   OH239436   0.280   0.460   4.078
13167TIP3    H139437   0.344   0.500   4.137
13167TIP3    H239438   0.320   0.466   3.991
13168TIP3   OH239439   8.245   0.629   5.501
13168TIP3    H139440   8.243   0.715   5.544
13168TIP3    H239441   8.155   0.596   5.509
13169TIP3   OH239442   6.477   7.675   4.145
13169TIP3    H139443   6.399   7.695   4.198
13169TIP3    H239444   6.489   7.753   4.091
13170TIP3   OH239445   8.127   0.383   4.474
13170TIP3    H139446   8.051   0.420   4.428
13170TIP3    H239447   8.100   0.294   4.496
13171TIP3   OH239448   7.910   0.760   5.380
13171TIP3    H139449   7.817   0.774   5.396
13171TIP3    H239450   7.932   0.682   5.430
13172TIP3   OH239451   8.144   0.892   5.337
13172TIP3    H139452   8.164   0.887   5.431
13172TIP3    H239453   8.062   0.845   5.327
13173TIP3   OH239454   5.620   7.827   5.181
13173TIP3    H139455   5.535   7.794   5.151
13173TIP3    H239456   5.599   7.907   5.229
13174TIP3   OH239457   6.165   7.945   5.379
13174TIP3    H139458   6.235   7.912   5.434
13174TIP3    H239459   6.084   7.927   5.427
13175TIP3   OH239460   0.392   0.432   3.827
13175TIP3    H139461   0.363   0.422   3.737
13175TIP3    H239462   0.465   0.494   3.822
13176TIP3   OH239463   5.769   7.873   4.151
13176TIP3    H139464   5.736   7.878   4.240
13176TIP3    H239465   5.734   7.790   4.117
13177TIP3   OH239466   8.395   0.344   5.172
13177TIP3    H139467   8.387   0.370   5.264
13177TIP3    H239468   8.372   0.423   5.123
13178TIP3   OH239469   8.276   0.220   4.715
13178TIP3    H139470   8.187   0.195   4.741
13178TIP3    H239471   8.285   0.187   4.625
13179TIP3   OH239472   0.255   0.293   4.440
13179TIP3    H139473   0.203   0.360   4.396
13179TIP3    H239474   0.316   0.262   4.373
13180TIP3   OH239475   0.415   0.307   4.670
13180TIP3    H139476   0.349   0.325   4.604
13180TIP3    H239477   0.469   0.238   4.632
13181TIP3   OH239478   8.211   0.338   5.408
13181TIP3    H139479   8.273   0.391   5.459
13181TIP3    H239480   8.204   0.256   5.457
13182TIP3   OH239481   5.431   7.854   4.122
13182TIP3    H139482   5.425   7.856   4.218
13182TIP3    H239483   5.355   7.903   4.092
13183TIP3   OH239484   4.987   7.901   4.995
13183TIP3    H139485   5.059   7.934   5.049
13183TIP3    H239486   5.029   7.875   4.913
13184TIP3   OH239487   4.904   7.856   4.501
13184TIP3    H139488   4.950   7.888   4.423
13184TIP3    H239489   4.844   7.926   4.524
13185TIP3   OH239490   0.373   0.548   5.102
13185TIP3    H139491   0.430   0.501   5.040
13185TIP3    H239492   0.379   0.497   5.183
13186TIP3   OH239493   0.141   0.013   4.766
13186TIP3    H139494   0.064   0.014   4.822
13186TIP3    H239495   0.215   0.007   4.827
13187TIP3   OH239496   8.039   0.096   4.774
13187TIP3    H139497   7.952   0.100   4.735
13187TIP3    H239498   8.068   0.006   4.757
13188TIP3   OH239499   8.285   0.100   4.468
13188TIP3    H139500   8.380   0.110   4.458
13188TIP3    H239501   8.250   0.116   4.381
13189TIP3   OH239502   0.594   0.115   4.977
13189TIP3    H139503   0.580   0.130   5.070
13189TIP3    H239504   0.525   0.055   4.951
13190TIP3   OH239505   8.164   0.121   4.223
13190TIP3    H139506   8.096   0.079   4.170
13190TIP3    H239507   8.221   0.163   4.158
13191TIP3   OH239508   8.212   0.882   5.612
13191TIP3    H139509   8.283   0.946   5.606
13191TIP3    H239510   8.186   0.883   5.704
13192TIP3   OH239511   0.177   0.343   4.864
13192TIP3    H139512   0.250   0.299   4.819
13192TIP3    H239513   0.181   0.309   4.953
13193TIP3   OH239514   5.348   7.865   4.760
13193TIP3    H139515   5.319   7.790   4.812
13193TIP3    H239516   5.378   7.826   4.677
13194TIP3   OH239517   0.162   0.274   5.136
13194TIP3    H139518   0.075   0.311   5.151
13194TIP3    H239519   0.220   0.325   5.192
13195TIP3   OH239520   8.399   0.662   4.265
13195TIP3    H139521   8.335   0.596   4.238
13195TIP3    H239522   8.360   0.704   4.342
13196TIP3   OH239523   6.025   7.970   4.156
13196TIP3    H139524   5.932   7.949   4.150
13196TIP3    H239525   6.029   8.065   4.165
13197TIP3   OH239526   0.422   0.219   4.226
13197TIP3    H139527   0.516   0.207   4.239
13197TIP3    H239528   0.415   0.300   4.175
13198TIP3   OH239529   8.081   0.583   4.881
13198TIP3    H139530   8.130   0.587   4.798
13198TIP3    H239531   8.149   0.576   4.948
13199TIP3   OH239532   8.439   0.825   4.047
13199TIP3    H139533   8.478   0.903   4.086
13199TIP3    H239534   8.429   0.764   4.120
13200TIP3   OH239535   7.978   0.554   5.548
13200TIP3    H139536   7.976   0.524   5.639
13200TIP3    H239537   7.910   0.503   5.505
13201TIP3   OH239538   0.827   0.305   4.044
13201TIP3    H139539   0.771   0.265   3.978
13201TIP3    H239540   0.871   0.377   3.998
13202TIP3   OH239541   0.453   0.757   4.780
13202TIP3    H139542   0.381   0.695   4.790
13202TIP3    H239543   0.530   0.701   4.765
13203TIP3   OH239544   7.784   0.256   4.249
13203TIP3    H139545   7.843   0.330   4.264
13203TIP3    H239546   7.716   0.265   4.316
13204TIP3   OH239547   8.295   0.778   4.486
13204TIP3    H139548   8.325   0.851   4.541
13204TIP3    H239549   8.266   0.712   4.549
13205TIP3   OH239550   0.384   0.926   4.989
13205TIP3    H139551   0.440   0.913   5.066
13205TIP3    H239552   0.423   0.870   4.921
13206TIP3   OH239553   0.333   0.862   3.819
13206TIP3    H139554   0.372   0.792   3.872
13206TIP3    H239555   0.242   0.833   3.806
13207TIP3   OH239556   8.179   0.089   5.536
13207TIP3    H139557   8.084   0.101   5.543
13207TIP3    H239558   8.202   0.035   5.612
13208TIP3   OH239559   0.482   0.695   3.985
13208TIP3    H139560   0.444   0.732   4.064
13208TIP3    H239561   0.562   0.745   3.971
13209TIP3   OH239562   8.173   0.784   3.971
13209TIP3    H139563   8.183   0.705   3.918
13209TIP3    H239564   8.262   0.811   3.991
13210TIP3   OH239565   7.923   0.485   4.327
13210TIP3    H139566   7.850   0.509   4.383
13210TIP3    H239567   7.939   0.563   4.273
13211TIP3   OH239568   0.552   0.164   5.247
13211TIP3    H139569   0.634   0.187   5.292
13211TIP3    H239570   0.524   0.083   5.289
13212TIP3   OH239571   6.085   7.923   4.425
13212TIP3    H139572   6.066   7.943   4.333
13212TIP3    H239573   6.130   8.001   4.457
13213TIP3   OH239574   0.065   0.108   4.515
13213TIP3    H139575   0.129   0.173   4.488
13213TIP3    H239576   0.089   0.087   4.606
13214TIP3   OH239577   0.365   0.368   5.308
13214TIP3    H139578   0.362   0.375   5.404
13214TIP3    H239579   0.426   0.296   5.291
13215TIP3   OH239580   5.899   7.818   4.600
13215TIP3    H139581   5.876   7.895   4.652
13215TIP3    H239582   5.969   7.849   4.542
13216TIP3   OH239583   5.414   7.841   4.402
13216TIP3    H139584   5.402   7.931   4.434
13216TIP3    H239585   5.508   7.826   4.408
13217TIP3   OH239586   0.615   0.516   4.672
13217TIP3    H139587   0.540   0.458   4.682
13217TIP3    H239588   0.679   0.484   4.736
13218TIP3   OH239589   7.931   0.734   4.169
13218TIP3    H139590   7.981   0.809   4.139
13218TIP3    H239591   7.955   0.664   4.108
13219TIP3   OH239592   7.798  -0.021   4.274
13219TIP3    H139593   7.803   0.075   4.267
13219TIP3    H239594   7.733  -0.046   4.208
13220TIP3   OH239595   5.357   7.743   5.145
13220TIP3    H139596   5.329   7.708   5.060
13220TIP3    H239597   5.351   7.668   5.204
13221TIP3   OH239598   8.061   0.812   5.849
13221TIP3    H139599   8.110   0.731   5.832
13221TIP3    H239600   8.001   0.820   5.775
13222TIP3   OH239601   8.025   0.513   4.033
13222TIP3    H139602   8.082   0.489   4.106
13222TIP3    H239603   8.084   0.525   3.959
13223TIP3   OH239604   0.083   0.746   3.820
13223TIP3    H139605   0.023   0.768   3.891
13223TIP3    H239606   0.058   0.657   3.795
13224TIP3   OH239607   8.202   0.582   5.800
13224TIP3    H139608   8.282   0.559   5.752
13224TIP3    H239609   8.201   0.522   5.874
13225TIP3   OH239610   8.224   0.454   4.217
13225TIP3    H139611   8.202   0.416   4.302
13225TIP3    H239612   8.260   0.381   4.167
13226TIP3   OH239613   8.459   0.488   5.410
13226TIP3    H139614   8.399   0.555   5.441
13226TIP3    H239615   8.524   0.535   5.357
13227TIP3   OH239616   8.323   0.259   4.049
13227TIP3    H139617   8.292   0.259   3.959
13227TIP3    H239618   8.419   0.265   4.041
13228TIP3   OH239619   0.600   0.577   3.698
13228TIP3    H139620   0.593   0.531   3.615
13228TIP3    H239621   0.585   0.669   3.677
13229TIP3   OH239622   0.076   0.293   5.558
13229TIP3    H139623   0.093   0.219   5.500
13229TIP3    H239624   0.041   0.361   5.500
13230TIP3   OH239625   0.112   0.102   5.357
13230TIP3    H139626   0.138   0.143   5.275
13230TIP3    H239627   0.020   0.078   5.344
13231TIP3   OH239628   0.128   0.604   5.232
13231TIP3    H139629   0.216   0.601   5.195
13231TIP3    H239630   0.082   0.670   5.180
13232TIP3   OH239631   8.448   0.397   5.779
13232TIP3    H139632   8.393   0.324   5.809
13232TIP3    H239633   8.489   0.364   5.699
13233TIP3   OH239634   5.901   7.886   5.453
13233TIP3    H139635   5.859   7.967   5.423
13233TIP3    H239636   5.833   7.819   5.445
13234TIP3   OH239637   0.344   0.360   5.587
13234TIP3    H139638   0.366   0.368   5.679
13234TIP3    H239639   0.251   0.337   5.586
13235TIP3   OH239640   8.310   0.171   5.866
13235TIP3    H139641   8.316   0.083   5.829
13235TIP3    H239642   8.352   0.164   5.952
13236TIP3   OH239643   6.003   7.890   5.707
13236TIP3    H139644   6.068   7.820   5.699
13236TIP3    H239645   5.956   7.890   5.624
13237TIP3   OH239646   0.292   0.049   5.913
13237TIP3    H139647   0.324  -0.006   5.842
13237TIP3    H239648   0.286   0.137   5.874
13238TIP3   OH239649   7.656   0.628   4.192
13238TIP3    H139650   7.733   0.676   4.161
13238TIP3    H239651   7.600   0.621   4.115
13239TIP3   OH239652   0.791   0.887   4.179
13239TIP3    H139653   0.856   0.955   4.162
13239TIP3    H239654   0.779   0.844   4.094
13240TIP3   OH239655   0.772   0.707   4.390
13240TIP3    H139656   0.728   0.631   4.351
13240TIP3    H239657   0.770   0.773   4.322
13241TIP3   OH239658   0.804   0.546   3.877
13241TIP3    H139659   0.738   0.525   3.810
13241TIP3    H239660   0.791   0.639   3.896
13242TIP3   OH239661   0.674   0.202   3.841
13242TIP3    H139662   0.625   0.233   3.765
13242TIP3    H239663   0.669   0.107   3.836
13243TIP3   OH239664   0.660   0.436   4.409
13243TIP3    H139665   0.712   0.356   4.403
13243TIP3    H239666   0.663   0.460   4.502
13244TIP3   OH239667   7.848   0.541   5.161
13244TIP3    H139668   7.838   0.504   5.074
13244TIP3    H239669   7.940   0.530   5.182
13245TIP3   OH239670   6.302   7.946   3.814
13245TIP3    H139671   6.368   7.913   3.874
13245TIP3    H239672   6.221   7.903   3.840
13246TIP3   OH239673   0.702   0.180   4.268
13246TIP3    H139674   0.749   0.097   4.279
13246TIP3    H239675   0.742   0.221   4.192
13247TIP3   OH239676   0.839   0.423   4.813
13247TIP3    H139677   0.880   0.499   4.771
13247TIP3    H239678   0.868   0.428   4.904
13248TIP3   OH239679   8.044   0.215   5.804
13248TIP3    H139680   8.137   0.219   5.827
13248TIP3    H239681   8.016   0.129   5.834
13249TIP3   OH239682   6.482   7.947   4.318
13249TIP3    H139683   6.520   7.940   4.406
13249TIP3    H239684   6.417   7.878   4.314
13250TIP3   OH239685   5.194   7.965   5.175
13250TIP3    H139686   5.246   7.886   5.178
13250TIP3    H239687   5.256   8.034   5.152
13251TIP3   OH239688   7.777   0.209   5.202
13251TIP3    H139689   7.838   0.196   5.129
13251TIP3    H239690   7.823   0.266   5.263
13252TIP3   OH239691   6.519   7.882   3.970
13252TIP3    H139692   6.567   7.822   3.912
13252TIP3    H239693   6.574   7.959   3.976
13253TIP3   OH239694   4.969   7.735   4.735
13253TIP3    H139695   4.882   7.722   4.773
13253TIP3    H239696   4.953   7.785   4.655
13254TIP3   OH239697   5.191   7.785   5.516
13254TIP3    H139698   5.144   7.758   5.595
13254TIP3    H239699   5.129   7.839   5.468
13255TIP3   OH239700   6.811   8.019   5.226
13255TIP3    H139701   6.717   8.010   5.211
13255TIP3    H239702   6.842   7.930   5.242
13256TIP3   OH239703   6.040   7.946   4.907
13256TIP3    H139704   6.000   7.874   4.955
13256TIP3    H239705   6.106   7.904   4.852
13257TIP3   OH239706   6.519   7.865   4.828
13257TIP3    H139707   6.556   7.896   4.745
13257TIP3    H239708   6.424   7.867   4.814
13258TIP3   OH239709   6.615   7.900   4.572
13258TIP3    H139710   6.690   7.846   4.546
13258TIP3    H239711   6.637   7.988   4.542
13259TIP3   OH239712   5.272   7.639   4.902
13259TIP3    H139713   5.183   7.606   4.914
13259TIP3    H239714   5.327   7.560   4.896
13260TIP3   OH239715   5.082   7.542   4.551
13260TIP3    H139716   5.115   7.591   4.476
13260TIP3    H239717   5.054   7.608   4.613
13261TIP3   OH239718   5.751   7.679   4.797
13261TIP3    H139719   5.801   7.724   4.729
13261TIP3    H239720   5.791   7.707   4.879
13262TIP3   OH239721   6.245   7.821   4.769
13262TIP3    H139722   6.262   7.786   4.682
13262TIP3    H239723   6.247   7.745   4.826
13263TIP3   OH239724   6.289   7.755   4.333
13263TIP3    H139725   6.212   7.805   4.362
13263TIP3    H239726   6.279   7.670   4.376
13264TIP3   OH239727   5.207   7.668   4.321
13264TIP3    H139728   5.253   7.607   4.265
13264TIP3    H239729   5.276   7.726   4.355
13265TIP3   OH239730   5.688   7.871   4.415
13265TIP3    H139731   5.748   7.817   4.468
13265TIP3    H239732   5.703   7.960   4.445
13266TIP3   OH239733   5.490   7.915   5.783
13266TIP3    H139734   5.454   7.845   5.838
13266TIP3    H239735   5.581   7.923   5.811
13267TIP3   OH239736   5.720   7.929   5.930
13267TIP3    H139737   5.810   7.958   5.919
13267TIP3    H239738   5.726   7.850   5.983
13268TIP3   OH239739   0.968   0.396   4.271
13268TIP3    H139740   0.984   0.482   4.232
13268TIP3    H239741   0.912   0.351   4.208
13269TIP3   OH239742   1.140   0.773   4.395
13269TIP3    H139743   1.159   0.684   4.426
13269TIP3    H239744   1.218   0.797   4.344
13270TIP3   OH239745   1.560   0.209   4.418
13270TIP3    H139746   1.570   0.303   4.408
13270TIP3    H239747   1.545   0.177   4.329
13271TIP3   OH239748   1.222   0.527   4.468
13271TIP3    H139749   1.284   0.480   4.525
13271TIP3    H239750   1.191   0.461   4.406
13272TIP3   OH239751   0.954   0.999   3.924
13272TIP3    H139752   1.020   0.960   3.866
13272TIP3    H239753   0.928   1.079   3.879
13273TIP3   OH239754   1.347   0.559   3.869
13273TIP3    H139755   1.264   0.603   3.883
13273TIP3    H239756   1.348   0.487   3.932
13274TIP3   OH239757   1.629   0.416   4.114
13274TIP3    H139758   1.540   0.400   4.148
13274TIP3    H239759   1.624   0.504   4.076
13275TIP3   OH239760   1.537   0.055   3.585
13275TIP3    H139761   1.528   0.065   3.679
13275TIP3    H239762   1.499   0.135   3.549
13276TIP3   OH239763   1.018   0.115   4.450
13276TIP3    H139764   1.034   0.188   4.511
13276TIP3    H239765   1.104   0.095   4.414
13277TIP3   OH239766   1.020   0.085   3.983
13277TIP3    H139767   1.113   0.091   3.961
13277TIP3    H239768   0.992   0.176   3.990
13278TIP3   OH239769   1.407   0.408   4.283
13278TIP3    H139770   1.348   0.457   4.226
13278TIP3    H239771   1.369   0.321   4.289
13279TIP3   OH239772   1.444   0.336   3.713
13279TIP3    H139773   1.371   0.314   3.655
13279TIP3    H239774   1.410   0.407   3.768
13280TIP3   OH239775   1.494   0.115   4.176
13280TIP3    H139776   1.468   0.026   4.153
13280TIP3    H239777   1.582   0.125   4.138
13281TIP3   OH239778   1.010   0.488   3.678
13281TIP3    H139779   1.082   0.551   3.680
13281TIP3    H239780   0.959   0.509   3.757
13282TIP3   OH239781   1.528   0.129   3.863
13282TIP3    H139782   1.512   0.209   3.813
13282TIP3    H239783   1.623   0.118   3.862
13283TIP3   OH239784   1.122   0.255   3.763
13283TIP3    H139785   1.080   0.326   3.715
13283TIP3    H239786   1.075   0.176   3.735
13284TIP3   OH239787   7.036   7.933   4.646
13284TIP3    H139788   7.040   7.896   4.558
13284TIP3    H239789   7.072   7.864   4.702
13285TIP3   OH239790   0.932   0.833   3.665
13285TIP3    H139791   0.963   0.913   3.624
13285TIP3    H239792   0.905   0.777   3.592
13286TIP3   OH239793   1.289   0.134   4.788
13286TIP3    H139794   1.312   0.054   4.740
13286TIP3    H239795   1.374   0.177   4.805
13287TIP3   OH239796   1.190   0.513   4.772
13287TIP3    H139797   1.162   0.447   4.708
13287TIP3    H239798   1.208   0.591   4.720
13288TIP3   OH239799   6.743   7.947   4.204
13288TIP3    H139800   6.656   7.941   4.245
13288TIP3    H239801   6.733   8.015   4.138
13289TIP3   OH239802   1.347   0.062   5.051
13289TIP3    H139803   1.278   0.047   5.116
13289TIP3    H239804   1.300   0.076   4.969
13290TIP3   OH239805   7.026   7.848   4.384
13290TIP3    H139806   6.935   7.823   4.398
13290TIP3    H239807   7.076   7.766   4.395
13291TIP3   OH239808   6.825   7.761   4.010
13291TIP3    H139809   6.845   7.808   3.929
13291TIP3    H239810   6.801   7.829   4.073
13292TIP3   OH239811   1.862   0.032   4.323
13292TIP3    H139812   1.844   0.058   4.232
13292TIP3    H239813   1.921  -0.044   4.315
13293TIP3   OH239814   6.933   7.871   3.754
13293TIP3    H139815   7.008   7.826   3.715
13293TIP3    H239816   6.972   7.930   3.819
13294TIP3   OH239817   1.800   0.119   3.824
13294TIP3    H139818   1.861   0.066   3.773
13294TIP3    H239819   1.847   0.202   3.838
13295TIP3   OH239820   7.469   5.787   1.059
13295TIP3    H139821   7.563   5.806   1.057
13295TIP3    H239822   7.458   5.714   0.999
13296TIP3   OH239823   7.026   5.976   1.009
13296TIP3    H139824   7.056   5.898   0.963
13296TIP3    H239825   7.072   5.974   1.093
13297TIP3   OH239826   7.307   5.735   1.303
13297TIP3    H139827   7.263   5.686   1.372
13297TIP3    H239828   7.323   5.671   1.234
13298TIP3   OH239829   7.485   6.104   1.003
13298TIP3    H139830   7.531   6.178   0.963
13298TIP3    H239831   7.393   6.121   0.986
13299TIP3   OH239832   6.605   5.684   1.072
13299TIP3    H139833   6.618   5.689   1.166
13299TIP3    H239834   6.689   5.653   1.037
13300TIP3   OH239835   7.147   5.706   1.008
13300TIP3    H139836   7.190   5.648   1.070
13300TIP3    H239837   7.217   5.765   0.979
13301TIP3   OH239838   7.694   5.304   1.312
13301TIP3    H139839   7.621   5.248   1.286
13301TIP3    H239840   7.656   5.392   1.317
13302TIP3   OH239841   7.442   6.121   1.281
13302TIP3    H139842   7.479   6.036   1.304
13302TIP3    H239843   7.466   6.135   1.190
13303TIP3   OH239844   0.236   5.657   1.318
13303TIP3    H139845   0.263   5.732   1.265
13303TIP3    H239846   0.239   5.583   1.258
13304TIP3   OH239847   0.639   5.811   1.280
13304TIP3    H139848   0.576   5.750   1.319
13304TIP3    H239849   0.624   5.893   1.327
13305TIP3   OH239850   0.303   6.422   1.305
13305TIP3    H139851   0.341   6.341   1.272
13305TIP3    H239852   0.306   6.413   1.401
13306TIP3   OH239853   0.276   5.845   1.124
13306TIP3    H139854   0.249   5.818   1.036
13306TIP3    H239855   0.231   5.929   1.137
13307TIP3   OH239856   7.781   5.607   1.204
13307TIP3    H139857   7.699   5.582   1.246
13307TIP3    H239858   7.793   5.699   1.227
13308TIP3   OH239859   0.611   6.063   1.389
13308TIP3    H139860   0.557   6.121   1.443
13308TIP3    H239861   0.690   6.049   1.441
13309TIP3   OH239862   0.411   6.197   1.184
13309TIP3    H139863   0.462   6.119   1.205
13309TIP3    H239864   0.461   6.241   1.116
13310TIP3   OH239865   0.585   5.978   1.059
13310TIP3    H139866   0.555   5.911   0.997
13310TIP3    H239867   0.603   5.929   1.139
13311TIP3   OH239868   0.225   5.472   1.107
13311TIP3    H139869   0.140   5.508   1.081
13311TIP3    H239870   0.277   5.471   1.026
13312TIP3   OH239871   0.199   5.273   0.782
13312TIP3    H139872   0.257   5.331   0.832
13312TIP3    H239873   0.259   5.218   0.731
13313TIP3   OH239874   0.578   5.551   1.055
13313TIP3    H139875   0.567   5.563   1.150
13313TIP3    H239876   0.639   5.478   1.047
13314TIP3   OH239877   0.488   6.210   1.591
13314TIP3    H139878   0.493   6.294   1.635
13314TIP3    H239879   0.457   6.149   1.658
13315TIP3   OH239880   0.398   5.434   0.888
13315TIP3    H139881   0.461   5.485   0.939
13315TIP3    H239882   0.425   5.445   0.797
13316TIP3   OH239883   0.155   6.092   1.159
13316TIP3    H139884   0.239   6.135   1.175
13316TIP3    H239885   0.106   6.154   1.105
13317TIP3   OH239886   8.241   5.344   1.261
13317TIP3    H139887   8.160   5.393   1.247
13317TIP3    H239888   8.244   5.328   1.355
13318TIP3   OH239889   0.736   6.020   0.499
13318TIP3    H139890   0.742   6.115   0.485
13318TIP3    H239891   0.823   5.987   0.478
13319TIP3   OH239892   0.060   6.297   0.984
13319TIP3    H139893   0.021   6.274   0.900
13319TIP3    H239894   0.024   6.383   1.005
13320TIP3   OH239895   8.109   6.104   1.401
13320TIP3    H139896   8.063   6.053   1.468
13320TIP3    H239897   8.039   6.153   1.357
13321TIP3   OH239898   0.255   6.236   0.595
13321TIP3    H139899   0.305   6.162   0.561
13321TIP3    H239900   0.287   6.248   0.685
13322TIP3   OH239901   0.309   6.282   0.860
13322TIP3    H139902   0.234   6.273   0.918
13322TIP3    H239903   0.385   6.278   0.918
13323TIP3   OH239904   0.480   5.448   0.632
13323TIP3    H139905   0.438   5.418   0.551
13323TIP3    H239906   0.568   5.474   0.605
13324TIP3   OH239907   0.353   5.261   1.227
13324TIP3    H139908   0.300   5.336   1.200
13324TIP3    H239909   0.397   5.231   1.147
13325TIP3   OH239910   8.435   5.036   1.278
13325TIP3    H139911   8.515   5.030   1.225
13325TIP3    H239912   8.365   5.050   1.214
13326TIP3   OH239913   8.302   5.057   1.032
13326TIP3    H139914   8.233   5.026   0.972
13326TIP3    H239915   8.360   5.109   0.976
13327TIP3   OH239916   8.482   5.594   1.039
13327TIP3    H139917   8.414   5.531   1.019
13327TIP3    H239918   8.463   5.623   1.128
13328TIP3   OH239919   0.356   4.970   0.835
13328TIP3    H139920   0.393   4.897   0.885
13328TIP3    H239921   0.370   5.046   0.891
13329TIP3   OH239922   0.452   5.179   0.987
13329TIP3    H139923   0.543   5.150   0.980
13329TIP3    H239924   0.451   5.265   0.943
13330TIP3   OH239925   0.142   5.757   0.889
13330TIP3    H139926   0.093   5.839   0.886
13330TIP3    H239927   0.086   5.697   0.938
13331TIP3   OH239928   0.692   6.080   0.772
13331TIP3    H139929   0.652   6.017   0.832
13331TIP3    H239930   0.694   6.034   0.688
13332TIP3   OH239931   8.305   5.933   1.310
13332TIP3    H139932   8.347   6.000   1.256
13332TIP3    H239933   8.240   5.981   1.361
13333TIP3   OH239934   7.988   5.177   1.085
13333TIP3    H139935   8.034   5.253   1.049
13333TIP3    H239936   7.900   5.183   1.048
13334TIP3   OH239937   8.447   5.699   1.285
13334TIP3    H139938   8.403   5.781   1.307
13334TIP3    H239939   8.536   5.709   1.321
13335TIP3   OH239940   8.283   6.188   1.195
13335TIP3    H139941   8.222   6.173   1.268
13335TIP3    H239942   8.302   6.282   1.198
13336TIP3   OH239943   0.438   5.818   0.655
13336TIP3    H139944   0.479   5.796   0.739
13336TIP3    H239945   0.356   5.769   0.655
13337TIP3   OH239946   0.774   6.293   0.475
13337TIP3    H139947   0.804   6.355   0.408
13337TIP3    H239948   0.695   6.334   0.512
13338TIP3   OH239949   0.591   5.762   0.880
13338TIP3    H139950   0.568   5.694   0.943
13338TIP3    H239951   0.685   5.752   0.865
13339TIP3   OH239952   8.311   5.776   0.676
13339TIP3    H139953   8.318   5.685   0.647
13339TIP3    H239954   8.294   5.769   0.770
13340TIP3   OH239955   8.245   5.794   0.943
13340TIP3    H139956   8.312   5.769   1.006
13340TIP3    H239957   8.239   5.889   0.950
13341TIP3   OH239958   8.028   5.497   1.177
13341TIP3    H139959   7.938   5.523   1.198
13341TIP3    H239960   8.073   5.580   1.160
13342TIP3   OH239961   8.495   5.985   0.888
13342TIP3    H139962   8.407   6.010   0.916
13342TIP3    H239963   8.523   6.057   0.831
13343TIP3   OH239964   0.203   5.026   1.207
13343TIP3    H139965   0.238   5.115   1.210
13343TIP3    H239966   0.280   4.970   1.201
13344TIP3   OH239967   8.235   6.069   0.955
13344TIP3    H139968   8.224   6.140   0.892
13344TIP3    H239969   8.253   6.114   1.038
13345TIP3   OH239970   7.990   5.678   0.917
13345TIP3    H139971   8.063   5.738   0.934
13345TIP3    H239972   8.032   5.603   0.874
13346TIP3   OH239973   7.959   4.920   0.973
13346TIP3    H139974   7.975   4.990   1.035
13346TIP3    H239975   7.896   4.863   1.017
13347TIP3   OH239976   0.714   6.436   1.399
13347TIP3    H139977   0.654   6.454   1.327
13347TIP3    H239978   0.801   6.454   1.364
13348TIP3   OH239979   7.808   5.859   1.332
13348TIP3    H139980   7.839   5.945   1.360
13348TIP3    H239981   7.713   5.868   1.326
13349TIP3   OH239982   8.451   5.984   0.568
13349TIP3    H139983   8.406   5.912   0.612
13349TIP3    H239984   8.524   5.943   0.523
13350TIP3   OH239985   0.388   6.026   0.484
13350TIP3    H139986   0.421   5.961   0.546
13350TIP3    H239987   0.447   6.020   0.409
13351TIP3   OH239988   8.128   5.476   0.796
13351TIP3    H139989   8.178   5.445   0.872
13351TIP3    H239990   8.193   5.491   0.728
13352TIP3   OH239991   0.190   5.697   0.624
13352TIP3    H139992   0.164   5.707   0.716
13352TIP3    H239993   0.169   5.606   0.603
13353TIP3   OH239994   8.297   5.396   0.998
13353TIP3    H139995   8.282   5.366   1.087
13353TIP3    H239996   8.346   5.324   0.956
13354TIP3   OH239997   8.440   5.212   0.852
13354TIP3    H139998   8.402   5.219   0.765
13354TIP3    H239999   8.534   5.229   0.839
13355TIP3   OH240000   0.716   5.523   0.508
13355TIP3    H140001   0.701   5.480   0.424
13355TIP3    H240002   0.694   5.615   0.492
13356TIP3   OH240003   8.254   6.288   0.788
13356TIP3    H140004   8.343   6.268   0.757
13356TIP3    H240005   8.212   6.329   0.712
13357TIP3   OH240006   7.736   5.645   0.833
13357TIP3    H140007   7.827   5.663   0.857
13357TIP3    H240008   7.737   5.552   0.808
13358TIP3   OH240009   7.624   6.353   1.326
13358TIP3    H140010   7.547   6.362   1.269
13358TIP3    H240011   7.591   6.306   1.403
13359TIP3   OH240012   0.934   6.541   1.275
13359TIP3    H140013   0.916   6.617   1.330
13359TIP3    H240014   0.999   6.572   1.211
13360TIP3   OH240015   0.864   5.713   0.874
13360TIP3    H140016   0.908   5.781   0.822
13360TIP3    H240017   0.925   5.696   0.946
13361TIP3   OH240018   0.895   5.492   0.711
13361TIP3    H140019   0.830   5.497   0.641
13361TIP3    H240020   0.876   5.566   0.768
13362TIP3   OH240021   0.666   5.166   0.667
13362TIP3    H140022   0.727   5.228   0.628
13362TIP3    H240023   0.721   5.095   0.700
13363TIP3   OH240024   0.539   6.350   0.998
13363TIP3    H140025   0.607   6.344   0.932
13363TIP3    H240026   0.572   6.412   1.063
13364TIP3   OH240027   0.229   6.487   1.575
13364TIP3    H140028   0.134   6.485   1.584
13364TIP3    H240029   0.249   6.575   1.546
13365TIP3   OH240030   0.460   6.459   1.721
13365TIP3    H140031   0.377   6.466   1.674
13365TIP3    H240032   0.519   6.520   1.675
13366TIP3   OH240033   0.634   6.626   1.588
13366TIP3    H140034   0.645   6.711   1.545
13366TIP3    H240035   0.667   6.562   1.524
13367TIP3   OH240036   7.746   6.113   1.132
13367TIP3    H140037   7.699   6.030   1.122
13367TIP3    H240038   7.713   6.167   1.060
13368TIP3   OH240039   0.006   6.207   0.714
13368TIP3    H140040   0.087   6.237   0.672
13368TIP3    H240041  -0.025   6.136   0.658
13369TIP3   OH240042   0.723   6.347   0.793
13369TIP3    H140043   0.721   6.252   0.786
13369TIP3    H240044   0.675   6.378   0.716
13370TIP3   OH240045   7.904   6.115   0.763
13370TIP3    H140046   7.823   6.068   0.782
13370TIP3    H240047   7.966   6.047   0.737
13371TIP3   OH240048   0.995   5.905   0.734
13371TIP3    H140049   0.993   5.902   0.638
13371TIP3    H240050   1.005   5.998   0.755
13372TIP3   OH240051   1.851   6.594   0.462
13372TIP3    H140052   1.822   6.565   0.375
13372TIP3    H240053   1.807   6.678   0.475
13373TIP3   OH240054   1.242   6.438   0.771
13373TIP3    H140055   1.278   6.372   0.829
13373TIP3    H240056   1.177   6.390   0.719
13374TIP3   OH240057   2.017   6.514   0.077
13374TIP3    H140058   2.053   6.432   0.040
13374TIP3    H240059   2.086   6.545   0.136
13375TIP3   OH240060   1.105   5.488   0.535
13375TIP3    H140061   1.148   5.573   0.539
13375TIP3    H240062   1.034   5.493   0.600
13376TIP3   OH240063   1.514   6.442   0.682
13376TIP3    H140064   1.425   6.439   0.717
13376TIP3    H240065   1.540   6.533   0.689
13377TIP3   OH240066   1.577   6.051   0.141
13377TIP3    H140067   1.591   5.959   0.120
13377TIP3    H240068   1.538   6.051   0.228
13378TIP3   OH240069   1.477   6.087   0.395
13378TIP3    H140070   1.544   6.048   0.452
13378TIP3    H240071   1.492   6.182   0.403
13379TIP3   OH240072   1.207   5.740   0.565
13379TIP3    H140073   1.278   5.753   0.628
13379TIP3    H240074   1.215   5.815   0.505
13380TIP3   OH240075   1.814   6.206   0.341
13380TIP3    H140076   1.740   6.265   0.351
13380TIP3    H240077   1.891   6.264   0.340
13381TIP3   OH240078   1.569   6.343   0.429
13381TIP3    H140079   1.540   6.415   0.372
13381TIP3    H240080   1.555   6.376   0.517
13382TIP3   OH240081   1.241   5.949   0.378
13382TIP3    H140082   1.309   6.014   0.391
13382TIP3    H240083   1.281   5.884   0.320
13383TIP3   OH240084   1.097   5.205   0.580
13383TIP3    H140085   1.078   5.299   0.581
13383TIP3    H240086   1.186   5.199   0.545
13384TIP3   OH240087   1.065   6.156   0.819
13384TIP3    H140088   1.055   6.212   0.896
13384TIP3    H240089   1.054   6.216   0.745
13385TIP3   OH240090   1.719   6.270   0.057
13385TIP3    H140091   1.669   6.197   0.092
13385TIP3    H240092   1.794   6.230   0.014
13386TIP3   OH240093   7.790   2.293   6.890
13386TIP3    H140094   7.841   2.233   6.946
13386TIP3    H240095   7.843   2.301   6.811
13387TIP3   OH240096   1.388   5.756   0.251
13387TIP3    H140097   1.422   5.716   0.332
13387TIP3    H240098   1.464   5.762   0.194
13388TIP3   OH240099   1.926   6.042   0.135
13388TIP3    H140100   1.877   6.083   0.206
13388TIP3    H240101   1.904   5.949   0.141
13389TIP3   OH240102   1.520   6.556   0.262
13389TIP3    H140103   1.614   6.546   0.246
13389TIP3    H240104   1.486   6.595   0.182
13390TIP3   OH240105   0.981   5.915   0.444
13390TIP3    H140106   1.072   5.940   0.427
13390TIP3    H240107   0.973   5.827   0.407
13391TIP3   OH240108   0.914   6.510   0.897
13391TIP3    H140109   0.850   6.458   0.848
13391TIP3    H240110   0.965   6.446   0.946
13392TIP3   OH240111   1.062   6.325   1.045
13392TIP3    H140112   1.121   6.256   1.078
13392TIP3    H240113   1.064   6.393   1.112
13393TIP3   OH240114   1.021   6.335   0.613
13393TIP3    H140115   0.939   6.292   0.587
13393TIP3    H240116   1.014   6.423   0.576
13394TIP3   OH240117   1.778   6.495   0.206
13394TIP3    H140118   1.860   6.520   0.163
13394TIP3    H240119   1.748   6.419   0.157
13395TIP3   OH240120   1.090   6.307   0.266
13395TIP3    H140121   1.102   6.321   0.359
13395TIP3    H240122   1.172   6.264   0.237
13396TIP3   OH240123   5.292   7.221   1.224
13396TIP3    H140124   5.381   7.243   1.197
13396TIP3    H240125   5.293   7.126   1.237
13397TIP3   OH240126   5.291   7.673   1.168
13397TIP3    H140127   5.276   7.711   1.081
13397TIP3    H240128   5.228   7.601   1.173
13398TIP3   OH240129   6.782   7.123   1.541
13398TIP3    H140130   6.687   7.118   1.544
13398TIP3    H240131   6.809   7.038   1.505
13399TIP3   OH240132   6.939   7.555   1.528
13399TIP3    H140133   6.944   7.463   1.557
13399TIP3    H240134   7.022   7.593   1.555
13400TIP3   OH240135   6.649   7.944   1.466
13400TIP3    H140136   6.675   7.874   1.526
13400TIP3    H240137   6.568   7.978   1.504
13401TIP3   OH240138   6.556   7.331   1.335
13401TIP3    H140139   6.622   7.398   1.320
13401TIP3    H240140   6.473   7.372   1.310
13402TIP3   OH240141   6.853   7.758   1.339
13402TIP3    H140142   6.911   7.795   1.272
13402TIP3    H240143   6.797   7.831   1.365
13403TIP3   OH240144   7.015   7.542   1.215
13403TIP3    H140145   6.999   7.479   1.145
13403TIP3    H240146   7.070   7.610   1.175
13404TIP3   OH240147   6.543   6.948   1.223
13404TIP3    H140148   6.506   6.977   1.307
13404TIP3    H240149   6.570   7.029   1.180
13405TIP3   OH240150   6.575   6.914   0.918
13405TIP3    H140151   6.545   6.918   1.009
13405TIP3    H240152   6.593   6.821   0.903
13406TIP3   OH240153   6.871   7.112   1.228
13406TIP3    H140154   6.851   7.036   1.283
13406TIP3    H240155   6.964   7.128   1.242
13407TIP3   OH240156   6.894   6.935   1.014
13407TIP3    H140157   6.863   7.012   1.063
13407TIP3    H240158   6.865   6.951   0.924
13408TIP3   OH240159   6.535   7.602   1.447
13408TIP3    H140160   6.498   7.668   1.388
13408TIP3    H240161   6.470   7.532   1.449
13409TIP3   OH240162   7.237   6.179   0.937
13409TIP3    H140163   7.142   6.177   0.932
13409TIP3    H240164   7.260   6.272   0.933
13410TIP3   OH240165   7.109   7.584   0.654
13410TIP3    H140166   7.106   7.676   0.629
13410TIP3    H240167   7.197   7.555   0.631
13411TIP3   OH240168   6.470   7.963   1.055
13411TIP3    H140169   6.418   7.922   0.986
13411TIP3    H240170   6.439   8.054   1.058
13412TIP3   OH240171   6.616   7.797   0.749
13412TIP3    H140172   6.665   7.729   0.703
13412TIP3    H240173   6.659   7.805   0.834
13413TIP3   OH240174   6.711   7.847   1.002
13413TIP3    H140175   6.630   7.874   1.045
13413TIP3    H240176   6.780   7.871   1.064
13414TIP3   OH240177   6.839   6.959   0.749
13414TIP3    H140178   6.792   6.955   0.666
13414TIP3    H240179   6.923   7.000   0.727
13415TIP3   OH240180   6.515   6.411   1.034
13415TIP3    H140181   6.431   6.396   1.078
13415TIP3    H240182   6.560   6.327   1.040
13416TIP3   OH240183   6.759   6.891   1.379
13416TIP3    H140184   6.701   6.877   1.304
13416TIP3    H240185   6.843   6.856   1.352
13417TIP3   OH240186   6.235   6.413   1.082
13417TIP3    H140187   6.224   6.413   1.177
13417TIP3    H240188   6.201   6.498   1.054
13418TIP3   OH240189   6.272   7.126   1.358
13418TIP3    H140190   6.220   7.049   1.334
13418TIP3    H240191   6.213   7.180   1.411
13419TIP3   OH240192   6.842   6.451   0.972
13419TIP3    H140193   6.801   6.452   1.059
13419TIP3    H240194   6.898   6.528   0.971
13420TIP3   OH240195   6.983   6.679   0.997
13420TIP3    H140196   7.051   6.674   1.064
13420TIP3    H240197   6.968   6.773   0.984
13421TIP3   OH240198   6.476   7.364   0.915
13421TIP3    H140199   6.497   7.454   0.942
13421TIP3    H240200   6.520   7.309   0.979
13422TIP3   OH240201   7.331   6.835   0.839
13422TIP3    H140202   7.245   6.808   0.807
13422TIP3    H240203   7.323   6.929   0.855
13423TIP3   OH240204   6.970   7.613   0.895
13423TIP3    H140205   7.020   7.673   0.950
13423TIP3    H240206   7.021   7.605   0.815
13424TIP3   OH240207   6.059   7.725   1.360
13424TIP3    H140208   6.018   7.665   1.423
13424TIP3    H240209   6.133   7.762   1.408
13425TIP3   OH240210   6.791   7.425   0.805
13425TIP3    H140211   6.847   7.476   0.864
13425TIP3    H240212   6.774   7.344   0.853
13426TIP3   OH240213   7.104   7.855   0.607
13426TIP3    H140214   7.087   7.895   0.522
13426TIP3    H240215   7.043   7.898   0.667
13427TIP3   OH240216   6.954   7.340   1.045
13427TIP3    H140217   6.900   7.271   1.006
13427TIP3    H240218   7.043   7.320   1.016
13428TIP3   OH240219   6.167   7.337   0.708
13428TIP3    H140220   6.159   7.243   0.691
13428TIP3    H240221   6.145   7.346   0.801
13429TIP3   OH240222   6.001   7.469   1.181
13429TIP3    H140223   6.032   7.378   1.180
13429TIP3    H240224   6.071   7.519   1.139
13430TIP3   OH240225   6.924   6.558   1.381
13430TIP3    H140226   6.911   6.491   1.314
13430TIP3    H240227   6.836   6.583   1.408
13431TIP3   OH240228   6.480   7.616   1.020
13431TIP3    H140229   6.455   7.660   1.101
13431TIP3    H240230   6.449   7.674   0.950
13432TIP3   OH240231   6.194   7.653   1.134
13432TIP3    H140232   6.198   7.731   1.079
13432TIP3    H240233   6.148   7.681   1.213
13433TIP3   OH240234   5.833   7.233   1.127
13433TIP3    H140235   5.841   7.305   1.063
13433TIP3    H240236   5.924   7.206   1.143
13434TIP3   OH240237   1.446   0.045   1.584
13434TIP3    H140238   1.379   0.088   1.529
13434TIP3    H240239   1.448  -0.045   1.553
13435TIP3   OH240240   6.322   7.560   0.701
13435TIP3    H140241   6.279   7.475   0.710
13435TIP3    H240242   6.398   7.543   0.646
13436TIP3   OH240243   6.743   7.605   0.611
13436TIP3    H140244   6.770   7.542   0.677
13436TIP3    H240245   6.802   7.589   0.537
13437TIP3   OH240246   5.980   7.092   0.894
13437TIP3    H140247   5.983   7.011   0.946
13437TIP3    H240248   6.053   7.084   0.832
13438TIP3   OH240249   6.492   7.256   0.664
13438TIP3    H140250   6.483   7.284   0.755
13438TIP3    H240251   6.484   7.161   0.667
13439TIP3   OH240252   7.058   7.104   0.661
13439TIP3    H140253   7.051   7.058   0.577
13439TIP3    H240254   7.030   7.193   0.642
13440TIP3   OH240255   5.981   7.925   0.868
13440TIP3    H140256   6.022   7.840   0.882
13440TIP3    H240257   6.008   7.950   0.779
13441TIP3   OH240258   5.552   7.220   1.094
13441TIP3    H140259   5.644   7.219   1.120
13441TIP3    H240260   5.531   7.129   1.075
13442TIP3   OH240261   1.697   0.002   1.484
13442TIP3    H140262   1.629   0.047   1.535
13442TIP3    H240263   1.764   0.069   1.470
13443TIP3   OH240264   7.226   7.294   1.006
13443TIP3    H140265   7.274   7.367   0.967
13443TIP3    H240266   7.283   7.262   1.076
13444TIP3   OH240267   7.395   7.181   1.189
13444TIP3    H140268   7.342   7.116   1.235
13444TIP3    H240269   7.464   7.206   1.252
13445TIP3   OH240270   7.345   7.537   1.613
13445TIP3    H140271   7.419   7.476   1.610
13445TIP3    H240272   7.385   7.624   1.604
13446TIP3   OH240273   7.285   7.105   0.815
13446TIP3    H140274   7.208   7.101   0.759
13446TIP3    H240275   7.265   7.174   0.879
13447TIP3   OH240276   7.097   6.753   0.731
13447TIP3    H140277   7.071   6.742   0.640
13447TIP3    H240278   7.103   6.664   0.766
13448TIP3   OH240279   7.256   6.990   1.350
13448TIP3    H140280   7.197   6.994   1.275
13448TIP3    H240281   7.209   7.036   1.419
13449TIP3   OH240282   7.111   6.483   0.758
13449TIP3    H140283   7.199   6.471   0.795
13449TIP3    H240284   7.064   6.404   0.784
13450TIP3   OH240285   7.161   6.653   1.200
13450TIP3    H140286   7.168   6.595   1.276
13450TIP3    H240287   7.248   6.690   1.189
13451TIP3   OH240288   7.204   6.438   1.377
13451TIP3    H140289   7.205   6.456   1.471
13451TIP3    H240290   7.188   6.344   1.371
13452TIP3   OH240291   7.362   6.424   0.852
13452TIP3    H140292   7.408   6.357   0.802
13452TIP3    H240293   7.423   6.498   0.856
13453TIP3   OH240294   6.908   7.964   1.155
13453TIP3    H140295   6.983   7.916   1.120
13453TIP3    H240296   6.947   8.044   1.192
13454TIP3   OH240297   6.926   6.287   1.263
13454TIP3    H140298   6.888   6.277   1.175
13454TIP3    H240299   7.010   6.242   1.258
13455TIP3   OH240300   5.521   7.695   1.338
13455TIP3    H140301   5.431   7.668   1.321
13455TIP3    H240302   5.517   7.790   1.344
13456TIP3   OH240303   6.363   7.805   0.851
13456TIP3    H140304   6.440   7.806   0.794
13456TIP3    H240305   6.301   7.748   0.806
13457TIP3   OH240306   5.735   7.726   0.925
13457TIP3    H140307   5.773   7.721   1.013
13457TIP3    H240308   5.783   7.659   0.875
13458TIP3   OH240309   0.048   7.434   0.889
13458TIP3    H140310   0.020   7.521   0.862
13458TIP3    H240311  -0.022   7.376   0.860
13459TIP3   OH240312   0.026   7.444   1.320
13459TIP3    H140313   0.082   7.418   1.393
13459TIP3    H240314  -0.016   7.362   1.292
13460TIP3   OH240315   7.847   7.354   1.606
13460TIP3    H140316   7.837   7.286   1.673
13460TIP3    H240317   7.937   7.343   1.575
13461TIP3   OH240318   0.302   7.737   0.992
13461TIP3    H140319   0.280   7.679   1.064
13461TIP3    H240320   0.326   7.819   1.034
13462TIP3   OH240321   7.843   7.750   1.390
13462TIP3    H140322   7.821   7.657   1.377
13462TIP3    H240323   7.933   7.758   1.359
13463TIP3   OH240324   7.571   6.993   1.055
13463TIP3    H140325   7.520   7.071   1.076
13463TIP3    H240326   7.511   6.920   1.070
13464TIP3   OH240327   7.607   7.240   1.351
13464TIP3    H140328   7.658   7.166   1.385
13464TIP3    H240329   7.668   7.287   1.294
13465TIP3   OH240330   2.806   0.143   1.008
13465TIP3    H140331   2.828   0.080   0.939
13465TIP3    H240332   2.819   0.094   1.090
13466TIP3   OH240333   8.340   7.659   1.327
13466TIP3    H140334   8.385   7.578   1.302
13466TIP3    H240335   8.411   7.722   1.339
13467TIP3   OH240336   0.839   6.987   1.312
13467TIP3    H140337   0.870   7.057   1.369
13467TIP3    H240338   0.852   7.020   1.223
13468TIP3   OH240339   0.234   7.145   1.354
13468TIP3    H140340   0.247   7.069   1.412
13468TIP3    H240341   0.193   7.108   1.276
13469TIP3   OH240342   8.128   6.790   1.311
13469TIP3    H140343   8.105   6.872   1.268
13469TIP3    H240344   8.069   6.725   1.271
13470TIP3   OH240345   0.264   6.871   1.016
13470TIP3    H140346   0.288   6.794   1.068
13470TIP3    H240347   0.344   6.924   1.014
13471TIP3   OH240348   7.776   7.041   1.421
13471TIP3    H140349   7.832   6.991   1.480
13471TIP3    H240350   7.778   6.992   1.338
13472TIP3   OH240351   8.154   7.229   1.246
13472TIP3    H140352   8.249   7.218   1.252
13472TIP3    H240353   8.122   7.143   1.216
13473TIP3   OH240354   0.900   7.177   1.496
13473TIP3    H140355   0.818   7.225   1.500
13473TIP3    H240356   0.913   7.144   1.585
13474TIP3   OH240357   8.446   7.653   0.752
13474TIP3    H140358   8.405   7.620   0.672
13474TIP3    H240359   8.391   7.726   0.779
13475TIP3   OH240360   8.218   7.570   1.559
13475TIP3    H140361   8.156   7.635   1.593
13475TIP3    H240362   8.255   7.610   1.480
13476TIP3   OH240363   0.501   7.003   1.060
13476TIP3    H140364   0.578   6.954   1.032
13476TIP3    H240365   0.533   7.064   1.127
13477TIP3   OH240366   7.981   6.896   1.532
13477TIP3    H140367   8.054   6.952   1.559
13477TIP3    H240368   8.021   6.829   1.477
13478TIP3   OH240369   8.029   7.758   1.646
13478TIP3    H140370   8.008   7.845   1.613
13478TIP3    H240371   7.948   7.709   1.639
13479TIP3   OH240372   7.395   7.475   0.879
13479TIP3    H140373   7.368   7.489   0.788
13479TIP3    H240374   7.417   7.562   0.911
13480TIP3   OH240375   0.337   7.983   1.124
13480TIP3    H140376   0.248   7.978   1.159
13480TIP3    H240377   0.339   8.066   1.077
13481TIP3   OH240378   0.640   6.927   1.502
13481TIP3    H140379   0.556   6.942   1.459
13481TIP3    H240380   0.706   6.943   1.434
13482TIP3   OH240381   8.447   6.505   1.556
13482TIP3    H140382   8.397   6.426   1.576
13482TIP3    H240383   8.385   6.577   1.569
13483TIP3   OH240384   0.053   8.015   0.782
13483TIP3    H140385   0.105   7.936   0.772
13483TIP3    H240386   0.111   8.086   0.753
13484TIP3   OH240387   0.193   7.787   0.742
13484TIP3    H140388   0.123   7.723   0.736
13484TIP3    H240389   0.243   7.761   0.820
13485TIP3   OH240390   0.557   7.872   1.483
13485TIP3    H140391   0.544   7.798   1.423
13485TIP3    H240392   0.548   7.949   1.427
13486TIP3   OH240393   8.368   7.283   0.739
13486TIP3    H140394   8.284   7.324   0.720
13486TIP3    H240395   8.412   7.280   0.654
13487TIP3   OH240396   8.340   7.079   0.434
13487TIP3    H140397   8.407   7.126   0.483
13487TIP3    H240398   8.388   7.011   0.387
13488TIP3   OH240399   0.738   7.521   1.320
13488TIP3    H140400   0.658   7.573   1.320
13488TIP3    H240401   0.773   7.530   1.231
13489TIP3   OH240402   0.237   7.356   0.706
13489TIP3    H140403   0.183   7.386   0.779
13489TIP3    H240404   0.318   7.325   0.747
13490TIP3   OH240405   0.439   7.389   1.630
13490TIP3    H140406   0.455   7.472   1.675
13490TIP3    H240407   0.355   7.400   1.587
13491TIP3   OH240408   7.935   7.344   1.118
13491TIP3    H140409   7.901   7.282   1.054
13491TIP3    H240410   8.014   7.301   1.153
13492TIP3   OH240411   8.085   7.775   1.253
13492TIP3    H140412   8.061   7.752   1.163
13492TIP3    H240413   8.171   7.733   1.265
13493TIP3   OH240414   8.097   7.327   1.497
13493TIP3    H140415   8.113   7.306   1.406
13493TIP3    H240416   8.142   7.411   1.511
13494TIP3   OH240417   0.090   7.994   1.241
13494TIP3    H140418   0.090   8.068   1.301
13494TIP3    H240419   0.087   7.917   1.298
13495TIP3   OH240420   8.228   7.899   1.780
13495TIP3    H140421   8.175   7.951   1.840
13495TIP3    H240422   8.167   7.838   1.740
13496TIP3   OH240423   0.061   7.223   0.537
13496TIP3    H140424   0.123   7.278   0.585
13496TIP3    H240425   0.090   7.229   0.446
13497TIP3   OH240426   8.306   7.891   0.794
13497TIP3    H140427   8.387   7.941   0.798
13497TIP3    H240428   8.247   7.944   0.741
13498TIP3   OH240429   0.572   6.448   0.585
13498TIP3    H140430   0.495   6.468   0.639
13498TIP3    H240431   0.582   6.524   0.528
13499TIP3   OH240432   7.816   7.177   0.922
13499TIP3    H140433   7.748   7.233   0.884
13499TIP3    H240434   7.772   7.095   0.941
13500TIP3   OH240435   0.396   7.824   0.153
13500TIP3    H140436   0.389   7.917   0.129
13500TIP3    H240437   0.485   7.799   0.129
13501TIP3   OH240438   7.482   7.778   1.546
13501TIP3    H140439   7.517   7.750   1.461
13501TIP3    H240440   7.429   7.855   1.526
13502TIP3   OH240441   3.631   0.178   1.547
13502TIP3    H140442   3.650   0.086   1.567
13502TIP3    H240443   3.541   0.191   1.577
13503TIP3   OH240444   2.762   0.003   1.642
13503TIP3    H140445   2.769   0.091   1.677
13503TIP3    H240446   2.691  -0.037   1.692
13504TIP3   OH240447   2.529   0.100   0.620
13504TIP3    H140448   2.486   0.078   0.538
13504TIP3    H240449   2.490   0.184   0.646
13505TIP3   OH240450   7.625   7.952   1.004
13505TIP3    H140451   7.658   7.950   1.093
13505TIP3    H240452   7.565   7.877   0.999
13506TIP3   OH240453   2.728   0.033   0.248
13506TIP3    H140454   2.778  -0.040   0.213
13506TIP3    H240455   2.763   0.046   0.336
13507TIP3   OH240456   2.783   0.079   0.517
13507TIP3    H140457   2.697   0.081   0.559
13507TIP3    H240458   2.840   0.038   0.582
13508TIP3   OH240459   0.741   7.358   1.785
13508TIP3    H140460   0.656   7.399   1.770
13508TIP3    H240461   0.727   7.266   1.763
13509TIP3   OH240462   0.410   7.152   1.763
13509TIP3    H140463   0.389   7.176   1.853
13509TIP3    H240464   0.417   7.235   1.717
13510TIP3   OH240465   0.140   7.214   0.276
13510TIP3    H140466   0.093   7.212   0.193
13510TIP3    H240467   0.222   7.258   0.255
13511TIP3   OH240468   8.349   6.624   0.583
13511TIP3    H140469   8.305   6.634   0.668
13511TIP3    H240470   8.314   6.542   0.549
13512TIP3   OH240471   8.164   7.089   1.616
13512TIP3    H140472   8.124   7.098   1.702
13512TIP3    H240473   8.139   7.169   1.570
13513TIP3   OH240474   8.040   6.998   1.153
13513TIP3    H140475   7.949   6.982   1.178
13513TIP3    H240476   8.048   6.963   1.064
13514TIP3   OH240477   8.486   7.072   0.871
13514TIP3    H140478   8.441   7.146   0.829
13514TIP3    H240479   8.548   7.041   0.804
13515TIP3   OH240480   0.094   7.053   1.125
13515TIP3    H140481   0.047   7.082   1.047
13515TIP3    H240482   0.150   6.982   1.095
13516TIP3   OH240483   8.019   6.607   0.570
13516TIP3    H140484   8.007   6.613   0.665
13516TIP3    H240485   7.941   6.647   0.533
13517TIP3   OH240486   7.677   6.726   1.386
13517TIP3    H140487   7.723   6.799   1.346
13517TIP3    H240488   7.646   6.674   1.312
13518TIP3   OH240489   7.519   6.646   0.888
13518TIP3    H140490   7.570   6.674   0.812
13518TIP3    H240491   7.448   6.710   0.893
13519TIP3   OH240492   0.178   7.342   1.532
13519TIP3    H140493   0.204   7.278   1.466
13519TIP3    H240494   0.150   7.289   1.607
13520TIP3   OH240495   8.374   6.791   1.186
13520TIP3    H140496   8.291   6.777   1.232
13520TIP3    H240497   8.434   6.823   1.254
13521TIP3   OH240498   7.790   6.893   1.189
13521TIP3    H140499   7.717   6.917   1.132
13521TIP3    H240500   7.820   6.808   1.156
13522TIP3   OH240501   8.025   6.871   0.908
13522TIP3    H140502   8.119   6.880   0.892
13522TIP3    H240503   7.985   6.890   0.823
13523TIP3   OH240504   0.294   6.732   1.482
13523TIP3    H140505   0.292   6.819   1.522
13523TIP3    H240506   0.315   6.749   1.390
13524TIP3   OH240507   7.912   6.896   0.660
13524TIP3    H140508   7.851   6.845   0.607
13524TIP3    H240509   7.968   6.940   0.595
13525TIP3   OH240510   3.325   0.540   1.709
13525TIP3    H140511   3.251   0.572   1.657
13525TIP3    H240512   3.355   0.617   1.757
13526TIP3   OH240513   8.422   7.184   1.298
13526TIP3    H140514   8.478   7.136   1.238
13526TIP3    H240515   8.429   7.137   1.381
13527TIP3   OH240516   7.938   6.644   1.177
13527TIP3    H140517   7.911   6.587   1.248
13527TIP3    H240518   7.937   6.588   1.099
13528TIP3   OH240519   8.432   7.060   1.547
13528TIP3    H140520   8.338   7.051   1.563
13528TIP3    H240521   8.466   7.102   1.626
13529TIP3   OH240522   8.122   7.414   0.688
13529TIP3    H140523   8.051   7.353   0.668
13529TIP3    H240524   8.099   7.449   0.774
13530TIP3   OH240525   0.515   7.679   1.295
13530TIP3    H140526   0.551   7.727   1.220
13530TIP3    H240527   0.429   7.649   1.265
13531TIP3   OH240528   0.097   6.733   0.573
13531TIP3    H140529   0.005   6.709   0.574
13531TIP3    H240530   0.098   6.827   0.590
13532TIP3   OH240531   0.047   7.749   1.661
13532TIP3    H140532   0.007   7.693   1.728
13532TIP3    H240533   0.001   7.833   1.669
13533TIP3   OH240534   0.159   6.990   0.665
13533TIP3    H140535   0.254   6.991   0.675
13533TIP3    H240536   0.140   7.068   0.612
13534TIP3   OH240537   7.827   7.481   1.338
13534TIP3    H140538   7.866   7.434   1.264
13534TIP3    H240539   7.836   7.421   1.412
13535TIP3   OH240540   8.285   7.569   0.536
13535TIP3    H140541   8.240   7.654   0.531
13535TIP3    H240542   8.226   7.513   0.586
13536TIP3   OH240543   3.030   0.047   1.568
13536TIP3    H140544   2.937   0.027   1.574
13536TIP3    H240545   3.058   0.057   1.659
13537TIP3   OH240546   0.581   7.077   0.465
13537TIP3    H140547   0.524   7.032   0.402
13537TIP3    H240548   0.583   7.168   0.435
13538TIP3   OH240549   0.810   7.922   1.570
13538TIP3    H140550   0.717   7.911   1.552
13538TIP3    H240551   0.853   7.889   1.491
13539TIP3   OH240552   0.318   7.899   0.418
13539TIP3    H140553   0.290   7.829   0.478
13539TIP3    H240554   0.336   7.854   0.336
13540TIP3   OH240555   0.263   7.570   1.222
13540TIP3    H140556   0.174   7.536   1.232
13540TIP3    H240557   0.314   7.496   1.191
13541TIP3   OH240558   7.944   7.768   1.006
13541TIP3    H140559   7.944   7.845   0.949
13541TIP3    H240560   7.851   7.750   1.022
13542TIP3   OH240561   7.535   7.071   0.707
13542TIP3    H140562   7.579   7.152   0.734
13542TIP3    H240563   7.449   7.075   0.749
13543TIP3   OH240564   8.035   7.519   0.922
13543TIP3    H140565   8.017   7.609   0.949
13543TIP3    H240566   8.001   7.465   0.993
13544TIP3   OH240567   2.560   0.073   1.451
13544TIP3    H140568   2.595   0.148   1.402
13544TIP3    H240569   2.635   0.040   1.501
13545TIP3   OH240570   2.186  -0.016   0.855
13545TIP3    H140571   2.102  -0.027   0.900
13545TIP3    H240572   2.204   0.078   0.862
13546TIP3   OH240573   0.097   7.762   1.392
13546TIP3    H140574   0.089   7.748   1.486
13546TIP3    H240575   0.162   7.698   1.363
13547TIP3   OH240576   0.078   7.632   0.301
13547TIP3    H140577   0.127   7.604   0.378
13547TIP3    H240578  -0.005   7.585   0.306
13548TIP3   OH240579   3.182   0.251   1.459
13548TIP3    H140580   3.116   0.186   1.484
13548TIP3    H240581   3.141   0.299   1.386
13549TIP3   OH240582   3.218   0.082   0.101
13549TIP3    H140583   3.225   0.138   0.024
13549TIP3    H240584   3.151   0.125   0.155
13550TIP3   OH240585   0.249   7.545   0.498
13550TIP3    H140586   0.238   7.488   0.575
13550TIP3    H240587   0.344   7.554   0.489
13551TIP3   OH240588   7.672   7.987   1.624
13551TIP3    H140589   7.758   7.947   1.608
13551TIP3    H240590   7.613   7.913   1.637
13552TIP3   OH240591   7.930   7.595   0.314
13552TIP3    H140592   7.938   7.504   0.285
13552TIP3    H240593   7.915   7.589   0.408
13553TIP3   OH240594   7.877   7.615   0.586
13553TIP3    H140595   7.946   7.585   0.645
13553TIP3    H240596   7.878   7.710   0.594
13554TIP3   OH240597   7.614   7.320   0.802
13554TIP3    H140598   7.540   7.360   0.847
13554TIP3    H240599   7.631   7.377   0.727
13555TIP3   OH240600   0.273   6.988   1.584
13555TIP3    H140601   0.330   7.034   1.646
13555TIP3    H240602   0.185   6.999   1.621
13556TIP3   OH240603   0.161   6.681   0.837
13556TIP3    H140604   0.139   6.701   0.746
13556TIP3    H240605   0.186   6.765   0.875
13557TIP3   OH240606   8.146   7.802   0.528
13557TIP3    H140607   8.061   7.826   0.565
13557TIP3    H240608   8.165   7.871   0.464
13558TIP3   OH240609   8.303   6.876   0.934
13558TIP3    H140610   8.364   6.946   0.910
13558TIP3    H240611   8.329   6.852   1.023
13559TIP3   OH240612   0.072   7.207   1.756
13559TIP3    H140613   0.015   7.284   1.755
13559TIP3    H240614   0.090   7.191   1.849
13560TIP3   OH240615   8.473   6.566   1.001
13560TIP3    H140616   8.481   6.619   1.080
13560TIP3    H240617   8.539   6.603   0.942
13561TIP3   OH240618   7.897   7.889   0.605
13561TIP3    H140619   7.873   7.959   0.544
13561TIP3    H240620   7.881   7.927   0.692
13562TIP3   OH240621   7.978   6.598   0.851
13562TIP3    H140622   7.967   6.688   0.880
13562TIP3    H240623   8.073   6.584   0.853
13563TIP3   OH240624   0.672   7.081   1.734
13563TIP3    H140625   0.578   7.095   1.743
13563TIP3    H240626   0.680   7.024   1.658
13564TIP3   OH240627   0.394   7.346   1.139
13564TIP3    H140628   0.332   7.282   1.103
13564TIP3    H240629   0.466   7.293   1.173
13565TIP3   OH240630   7.631   7.486   0.579
13565TIP3    H140631   7.705   7.546   0.584
13565TIP3    H240632   7.659   7.419   0.516
13566TIP3   OH240633   7.555   6.799   0.659
13566TIP3    H140634   7.581   6.889   0.680
13566TIP3    H240635   7.463   6.794   0.684
13567TIP3   OH240636   3.190   0.231   1.036
13567TIP3    H140637   3.148   0.284   0.968
13567TIP3    H240638   3.284   0.238   1.018
13568TIP3   OH240639   7.435   7.745   0.950
13568TIP3    H140640   7.355   7.747   1.003
13568TIP3    H240641   7.412   7.791   0.870
13569TIP3   OH240642   8.083   7.798   0.209
13569TIP3    H140643   8.034   7.727   0.250
13569TIP3    H240644   8.157   7.755   0.166
13570TIP3   OH240645   3.154   0.059   1.817
13570TIP3    H140646   3.165  -0.036   1.814
13570TIP3    H240647   3.236   0.094   1.782
13571TIP3   OH240648   0.025   7.838   0.129
13571TIP3    H140649   0.058   7.774   0.191
13571TIP3    H240650   0.082   7.830   0.053
13572TIP3   OH240651   7.752   7.291   0.431
13572TIP3    H140652   7.801   7.262   0.508
13572TIP3    H240653   7.818   7.302   0.363
13573TIP3   OH240654   8.327   7.512   0.269
13573TIP3    H140655   8.303   7.522   0.361
13573TIP3    H240656   8.309   7.420   0.249
13574TIP3   OH240657   0.372   7.833   1.683
13574TIP3    H140658   0.441   7.857   1.621
13574TIP3    H240659   0.290   7.847   1.635
13575TIP3   OH240660   7.923   7.225   0.647
13575TIP3    H140661   7.897   7.188   0.732
13575TIP3    H240662   7.970   7.155   0.603
13576TIP3   OH240663   8.066   7.048   0.489
13576TIP3    H140664   8.035   7.050   0.398
13576TIP3    H240665   8.162   7.054   0.481
13577TIP3   OH240666   0.361   7.339   0.160
13577TIP3    H140667   0.346   7.297   0.075
13577TIP3    H240668   0.336   7.430   0.147
13578TIP3   OH240669   8.425   7.430   1.692
13578TIP3    H140670   8.480   7.445   1.615
13578TIP3    H240671   8.341   7.471   1.669
13579TIP3   OH240672   0.509   7.611   1.767
13579TIP3    H140673   0.450   7.684   1.750
13579TIP3    H240674   0.596   7.651   1.770
13580TIP3   OH240675   2.220   0.093   0.427
13580TIP3    H140676   2.308   0.067   0.400
13580TIP3    H240677   2.179   0.128   0.348
13581TIP3   OH240678   7.359   7.484   0.595
13581TIP3    H140679   7.454   7.492   0.589
13581TIP3    H240680   7.340   7.398   0.557
13582TIP3   OH240681   1.581   0.058   1.009
13582TIP3    H140682   1.522  -0.015   0.995
13582TIP3    H240683   1.637   0.030   1.081
13583TIP3   OH240684   7.380   7.957   1.216
13583TIP3    H140685   7.319   7.886   1.196
13583TIP3    H240686   7.371   7.970   1.310
13584TIP3   OH240687   3.459   0.273   1.016
13584TIP3    H140688   3.494   0.268   1.105
13584TIP3    H240689   3.466   0.366   0.993
13585TIP3   OH240690   3.539   0.265   1.276
13585TIP3    H140691   3.490   0.184   1.285
13585TIP3    H240692   3.527   0.310   1.360
13586TIP3   OH240693   0.528   7.549   0.492
13586TIP3    H140694   0.588   7.619   0.464
13586TIP3    H240695   0.572   7.509   0.567
13587TIP3   OH240696   0.651   7.399   0.691
13587TIP3    H140697   0.588   7.357   0.750
13587TIP3    H240698   0.717   7.436   0.750
13588TIP3   OH240699   0.687   7.810   1.123
13588TIP3    H140700   0.737   7.739   1.082
13588TIP3    H240701   0.683   7.878   1.056
13589TIP3   OH240702   3.347   0.071   1.312
13589TIP3    H140703   3.281   0.121   1.360
13589TIP3    H240704   3.298   0.027   1.242
13590TIP3   OH240705   0.568   7.322   0.340
13590TIP3    H140706   0.497   7.320   0.276
13590TIP3    H240707   0.551   7.400   0.393
13591TIP3   OH240708   0.426   6.968   0.270
13591TIP3    H140709   0.375   7.003   0.197
13591TIP3    H240710   0.415   6.874   0.263
13592TIP3   OH240711   0.464   7.232   0.828
13592TIP3    H140712   0.454   7.148   0.783
13592TIP3    H240713   0.485   7.208   0.918
13593TIP3   OH240714   7.571   7.384   1.582
13593TIP3    H140715   7.567   7.333   1.501
13593TIP3    H240716   7.664   7.392   1.602
13594TIP3   OH240717   0.755   7.730   1.761
13594TIP3    H140718   0.829   7.671   1.749
13594TIP3    H240719   0.777   7.808   1.710
13595TIP3   OH240720   0.946   7.531   1.715
13595TIP3    H140721   0.876   7.467   1.724
13595TIP3    H240722   1.001   7.517   1.792
13596TIP3   OH240723   0.383   6.699   0.250
13596TIP3    H140724   0.446   6.670   0.316
13596TIP3    H240725   0.300   6.658   0.277
13597TIP3   OH240726   0.443   6.988   0.694
13597TIP3    H140727   0.483   6.905   0.721
13597TIP3    H240728   0.492   7.014   0.616
13598TIP3   OH240729   0.608   7.190   1.230
13598TIP3    H140730   0.695   7.206   1.193
13598TIP3    H240731   0.615   7.217   1.321
13599TIP3   OH240732   0.657   7.309   1.476
13599TIP3    H140733   0.581   7.337   1.525
13599TIP3    H240734   0.684   7.387   1.426
13600TIP3   OH240735   0.566   6.741   0.766
13600TIP3    H140736   0.610   6.721   0.848
13600TIP3    H240737   0.503   6.669   0.755
13601TIP3   OH240738   0.612   6.653   0.408
13601TIP3    H140739   0.655   6.592   0.348
13601TIP3    H240740   0.669   6.730   0.410
13602TIP3   OH240741   7.612   6.613   1.139
13602TIP3    H140742   7.537   6.576   1.186
13602TIP3    H240743   7.578   6.632   1.052
13603TIP3   OH240744   3.032   0.203   0.678
13603TIP3    H140745   3.087   0.187   0.601
13603TIP3    H240746   3.076   0.272   0.726
13604TIP3   OH240747   2.320   0.007   1.572
13604TIP3    H140748   2.275   0.091   1.563
13604TIP3    H240749   2.407   0.022   1.538
13605TIP3   OH240750   2.794   0.253   1.748
13605TIP3    H140751   2.830   0.261   1.837
13605TIP3    H240752   2.845   0.315   1.696
13606TIP3   OH240753   2.958   0.424   1.616
13606TIP3    H140754   3.005   0.377   1.548
13606TIP3    H240755   2.989   0.514   1.609
13607TIP3   OH240756   1.993   0.314   1.634
13607TIP3    H140757   1.903   0.341   1.619
13607TIP3    H240758   1.986   0.234   1.687
13608TIP3   OH240759   2.231   0.266   1.503
13608TIP3    H140760   2.151   0.288   1.551
13608TIP3    H240761   2.212   0.288   1.412
13609TIP3   OH240762   2.642   0.287   1.297
13609TIP3    H140763   2.577   0.306   1.230
13609TIP3    H240764   2.652   0.369   1.345
13610TIP3   OH240765   2.911   0.239   1.342
13610TIP3    H140766   2.817   0.250   1.328
13610TIP3    H240767   2.952   0.306   1.288
13611TIP3   OH240768   3.112   0.407   1.232
13611TIP3    H140769   3.089   0.486   1.183
13611TIP3    H240770   3.135   0.343   1.165
13612TIP3   OH240771   1.939   0.111   1.396
13612TIP3    H140772   1.967   0.081   1.483
13612TIP3    H240773   1.984   0.053   1.335
13613TIP3   OH240774   7.769   7.968   1.241
13613TIP3    H140775   7.783   7.889   1.295
13613TIP3    H240776   7.855   8.009   1.236
13614TIP3   OH240777   2.374   0.038   1.244
13614TIP3    H140778   2.391  -0.055   1.230
13614TIP3    H240779   2.426   0.060   1.321
13615TIP3   OH240780   0.046   6.531   1.298
13615TIP3    H140781   0.024   6.526   1.391
13615TIP3    H240782   0.131   6.488   1.290
13616TIP3   OH240783   0.599   6.548   1.180
13616TIP3    H140784   0.654   6.601   1.123
13616TIP3    H240785   0.516   6.596   1.184
13617TIP3   OH240786   0.726   6.689   0.987
13617TIP3    H140787   0.792   6.626   0.961
13617TIP3    H240788   0.766   6.775   0.973
13618TIP3   OH240789   7.882   6.455   1.382
13618TIP3    H140790   7.789   6.434   1.375
13618TIP3    H240791   7.926   6.385   1.334
13619TIP3   OH240792   7.635   6.305   0.912
13619TIP3    H140793   7.660   6.331   0.823
13619TIP3    H240794   7.695   6.352   0.969
13620TIP3   OH240795   8.299   6.458   1.194
13620TIP3    H140796   8.314   6.495   1.107
13620TIP3    H240797   8.376   6.485   1.245
13621TIP3   OH240798   0.341   6.640   1.144
13621TIP3    H140799   0.340   6.595   1.060
13621TIP3    H240800   0.318   6.572   1.208
13622TIP3   OH240801   0.380   6.531   0.767
13622TIP3    H140802   0.299   6.579   0.782
13622TIP3    H240803   0.361   6.442   0.797
13623TIP3   OH240804   7.336   7.905   0.747
13623TIP3    H140805   7.263   7.877   0.693
13623TIP3    H240806   7.297   7.964   0.812
13624TIP3   OH240807   7.780   6.444   0.720
13624TIP3    H140808   7.832   6.388   0.661
13624TIP3    H240809   7.846   6.491   0.771
13625TIP3   OH240810   8.251   6.625   0.843
13625TIP3    H140811   8.321   6.576   0.886
13625TIP3    H240812   8.265   6.716   0.870
13626TIP3   OH240813   8.138   8.023   0.352
13626TIP3    H140814   8.222   8.050   0.313
13626TIP3    H240815   8.107   7.953   0.295
13627TIP3   OH240816   3.185   0.154   0.451
13627TIP3    H140817   3.181   0.059   0.446
13627TIP3    H240818   3.139   0.185   0.372
13628TIP3   OH240819   7.460   7.864   0.413
13628TIP3    H140820   7.455   7.851   0.508
13628TIP3    H240821   7.539   7.817   0.386
13629TIP3   OH240822   3.364   0.145   1.649
13629TIP3    H140823   3.295   0.190   1.599
13629TIP3    H240824   3.391   0.208   1.715
13630TIP3   OH240825   1.810   7.677   0.409
13630TIP3    H140826   1.791   7.766   0.379
13630TIP3    H240827   1.751   7.622   0.359
13631TIP3   OH240828   1.809   7.673   0.714
13631TIP3    H140829   1.784   7.588   0.750
13631TIP3    H240830   1.804   7.661   0.619
13632TIP3   OH240831   1.116   7.580   1.100
13632TIP3    H140832   1.128   7.505   1.159
13632TIP3    H240833   1.204   7.598   1.066
13633TIP3   OH240834   2.103   7.982   0.455
13633TIP3    H140835   2.074   7.928   0.528
13633TIP3    H240836   2.120   8.068   0.494
13634TIP3   OH240837   1.125   7.955   0.850
13634TIP3    H140838   1.103   7.862   0.843
13634TIP3    H240839   1.219   7.959   0.831
13635TIP3   OH240840   0.805   7.175   0.614
13635TIP3    H140841   0.766   7.259   0.636
13635TIP3    H240842   0.736   7.127   0.569
13636TIP3   OH240843   0.879   7.484   0.828
13636TIP3    H140844   0.934   7.411   0.856
13636TIP3    H240845   0.941   7.553   0.804
13637TIP3   OH240846   4.618   0.390   0.457
13637TIP3    H140847   4.641   0.317   0.399
13637TIP3    H240848   4.609   0.350   0.544
13638TIP3   OH240849   1.647   7.895   0.803
13638TIP3    H140850   1.685   7.817   0.763
13638TIP3    H240851   1.721   7.950   0.826
13639TIP3   OH240852   1.398   7.060   0.793
13639TIP3    H140853   1.372   7.134   0.738
13639TIP3    H240854   1.345   6.987   0.761
13640TIP3   OH240855   2.030   7.163   0.419
13640TIP3    H140856   2.089   7.090   0.434
13640TIP3    H240857   2.082   7.225   0.367
13641TIP3   OH240858   1.027   7.270   0.925
13641TIP3    H140859   1.108   7.249   0.971
13641TIP3    H240860   1.030   7.217   0.846
13642TIP3   OH240861   1.443   7.466   0.741
13642TIP3    H140862   1.536   7.448   0.749
13642TIP3    H240863   1.406   7.385   0.705
13643TIP3   OH240864   1.345   6.984   1.229
13643TIP3    H140865   1.343   7.054   1.164
13643TIP3    H240866   1.435   6.984   1.261
13644TIP3   OH240867   1.716   7.894   0.263
13644TIP3    H140868   1.688   7.873   0.174
13644TIP3    H240869   1.671   7.975   0.284
13645TIP3   OH240870   1.480   7.838   1.023
13645TIP3    H140871   1.420   7.903   1.057
13645TIP3    H240872   1.521   7.879   0.947
13646TIP3   OH240873   1.270   7.162   1.023
13646TIP3    H140874   1.324   7.235   1.052
13646TIP3    H240875   1.313   7.130   0.943
13647TIP3   OH240876   4.133   0.004   1.149
13647TIP3    H140877   4.112   0.096   1.137
13647TIP3    H240878   4.065  -0.029   1.208
13648TIP3   OH240879   0.704   7.737   0.376
13648TIP3    H140880   0.669   7.752   0.288
13648TIP3    H240881   0.727   7.824   0.408
13649TIP3   OH240882   4.994   0.208   0.589
13649TIP3    H140883   4.908   0.194   0.629
13649TIP3    H240884   4.989   0.295   0.550
13650TIP3   OH240885   4.685   0.230   0.241
13650TIP3    H140886   4.741   0.153   0.228
13650TIP3    H240887   4.741   0.304   0.219
13651TIP3   OH240888   2.019   8.036   0.194
13651TIP3    H140889   2.004   7.954   0.147
13651TIP3    H240890   2.051   8.009   0.280
13652TIP3   OH240891   1.655   7.547   0.214
13652TIP3    H140892   1.572   7.591   0.195
13652TIP3    H240893   1.703   7.549   0.131
13653TIP3   OH240894   7.303   3.329   6.857
13653TIP3    H140895   7.368   3.380   6.904
13653TIP3    H240896   7.354   3.261   6.812
13654TIP3   OH240897   2.007   7.620   0.207
13654TIP3    H140898   1.954   7.643   0.283
13654TIP3    H240899   2.088   7.584   0.244
13655TIP3   OH240900   1.243   7.593   0.594
13655TIP3    H140901   1.208   7.532   0.529
13655TIP3    H240902   1.317   7.547   0.634
13656TIP3   OH240903   1.383   7.981   0.737
13656TIP3    H140904   1.360   7.963   0.646
13656TIP3    H240905   1.475   7.956   0.744
13657TIP3   OH240906   1.353   7.599   0.967
13657TIP3    H140907   1.388   7.564   0.885
13657TIP3    H240908   1.401   7.681   0.979
13658TIP3   OH240909   4.746   0.184   0.697
13658TIP3    H140910   4.731   0.261   0.751
13658TIP3    H240911   4.735   0.110   0.757
13659TIP3   OH240912   4.310   0.088   1.340
13659TIP3    H140913   4.259   0.163   1.373
13659TIP3    H240914   4.249   0.044   1.280
13660TIP3   OH240915   1.850   7.489   0.017
13660TIP3    H140916   1.908   7.544   0.070
13660TIP3    H240917   1.882   7.499  -0.072
13661TIP3   OH240918   1.237   7.619   1.389
13661TIP3    H140919   1.268   7.710   1.389
13661TIP3    H240920   1.142   7.626   1.399
13662TIP3   OH240921   4.429   0.134   0.284
13662TIP3    H140922   4.516   0.172   0.274
13662TIP3    H240923   4.373   0.189   0.229
13663TIP3   OH240924   4.168   0.313   1.433
13663TIP3    H140925   4.104   0.376   1.398
13663TIP3    H240926   4.118   0.261   1.496
13664TIP3   OH240927   7.928   2.688   6.918
13664TIP3    H140928   7.870   2.719   6.987
13664TIP3    H240929   7.998   2.753   6.913
13665TIP3   OH240930   1.123   7.435   0.393
13665TIP3    H140931   1.046   7.484   0.363
13665TIP3    H240932   1.091   7.345   0.405
13666TIP3   OH240933   7.822   4.079   6.578
13666TIP3    H140934   7.827   4.172   6.555
13666TIP3    H240935   7.910   4.045   6.563
13667TIP3   OH240936   0.883   7.825   1.322
13667TIP3    H140937   0.813   7.819   1.257
13667TIP3    H240938   0.904   7.733   1.342
13668TIP3   OH240939   3.547   0.017   0.952
13668TIP3    H140940   3.636   0.036   0.982
13668TIP3    H240941   3.498   0.097   0.971
13669TIP3   OH240942   4.552   0.316   1.072
13669TIP3    H140943   4.586   0.365   1.147
13669TIP3    H240944   4.554   0.224   1.100
13670TIP3   OH240945   4.314   0.333   0.106
13670TIP3    H140946   4.277   0.311   0.020
13670TIP3    H240947   4.282   0.421   0.124
13671TIP3   OH240948   3.746   0.235   0.461
13671TIP3    H140949   3.788   0.205   0.542
13671TIP3    H240950   3.693   0.161   0.432
13672TIP3   OH240951   7.359   4.296   6.671
13672TIP3    H140952   7.410   4.222   6.638
13672TIP3    H240953   7.391   4.309   6.761
13673TIP3   OH240954   4.568   0.328   0.002
13673TIP3    H140955   4.481   0.330   0.041
13673TIP3    H240956   4.624   0.286   0.068
13674TIP3   OH240957   1.116   7.957   1.351
13674TIP3    H140958   1.134   7.927   1.440
13674TIP3    H240959   1.038   7.909   1.324
13675TIP3   OH240960   0.782   6.275   1.611
13675TIP3    H140961   0.790   6.181   1.592
13675TIP3    H240962   0.735   6.310   1.535
13676TIP3   OH240963   7.603   3.476   6.701
13676TIP3    H140964   7.557   3.468   6.617
13676TIP3    H240965   7.687   3.514   6.678
13677TIP3   OH240966   1.637   6.883   0.072
13677TIP3    H140967   1.603   6.889   0.161
13677TIP3    H240968   1.601   6.802   0.038
13678TIP3   OH240969   1.434   7.367   1.100
13678TIP3    H140970   1.441   7.379   1.195
13678TIP3    H240971   1.398   7.450   1.068
13679TIP3   OH240972   1.300   7.256   0.632
13679TIP3    H140973   1.210   7.233   0.656
13679TIP3    H240974   1.310   7.223   0.542
13680TIP3   OH240975   1.764   7.326   0.333
13680TIP3    H140976   1.723   7.401   0.290
13680TIP3    H240977   1.827   7.293   0.268
13681TIP3   OH240978   1.877   7.314   0.589
13681TIP3    H140979   1.828   7.345   0.513
13681TIP3    H240980   1.925   7.238   0.557
13682TIP3   OH240981   1.173   7.376   1.272
13682TIP3    H140982   1.215   7.447   1.320
13682TIP3    H240983   1.190   7.298   1.325
13683TIP3   OH240984   1.302   6.862   0.055
13683TIP3    H140985   1.293   6.866   0.150
13683TIP3    H240986   1.224   6.906   0.021
13684TIP3   OH240987   0.843   6.918   0.912
13684TIP3    H140988   0.924   6.943   0.956
13684TIP3    H240989   0.871   6.896   0.823
13685TIP3   OH240990   0.772   6.881   0.419
13685TIP3    H140991   0.817   6.915   0.341
13685TIP3    H240992   0.706   6.949   0.439
13686TIP3   OH240993   1.655   7.061   0.684
13686TIP3    H140994   1.567   7.058   0.723
13686TIP3    H240995   1.712   7.090   0.756
13687TIP3   OH240996   1.065   7.128   0.694
13687TIP3    H140997   0.976   7.133   0.658
13687TIP3    H240998   1.094   7.040   0.673
13688TIP3   OH240999   1.312   7.128   0.389
13688TIP3    H141000   1.407   7.135   0.379
13688TIP3    H241001   1.277   7.144   0.302
13689TIP3   OH241002   1.205   7.153   0.140
13689TIP3    H141003   1.142   7.104   0.087
13689TIP3    H241004   1.261   7.197   0.076
13690TIP3   OH241005   1.160   7.830   1.593
13690TIP3    H141006   1.255   7.828   1.586
13690TIP3    H241007   1.137   7.750   1.639
13691TIP3   OH241008   1.712   7.415   0.787
13691TIP3    H141009   1.773   7.366   0.733
13691TIP3    H241010   1.731   7.387   0.876
13692TIP3   OH241011   1.217   6.885   0.671
13692TIP3    H141012   1.183   6.814   0.725
13692TIP3    H241013   1.239   6.844   0.587
13693TIP3   OH241014   1.411   7.678   0.162
13693TIP3    H141015   1.340   7.616   0.144
13693TIP3    H241016   1.394   7.709   0.250
13694TIP3   OH241017   1.887   6.989   0.044
13694TIP3    H141018   1.794   6.966   0.054
13694TIP3    H241019   1.892   7.081   0.070
13695TIP3   OH241020   1.882   7.898   1.130
13695TIP3    H141021   1.843   7.822   1.173
13695TIP3    H241022   1.823   7.971   1.151
13696TIP3   OH241023   1.944   7.250   0.127
13696TIP3    H141024   2.039   7.250   0.134
13696TIP3    H241025   1.923   7.329   0.077
13697TIP3   OH241026   1.095   7.676   0.810
13697TIP3    H141027   1.144   7.656   0.731
13697TIP3    H241028   1.148   7.640   0.881
13698TIP3   OH241029   1.587   7.826   0.018
13698TIP3    H141030   1.543   7.911   0.012
13698TIP3    H241031   1.525   7.771   0.066
13699TIP3   OH241032   0.972   7.588   1.448
13699TIP3    H141033   0.964   7.571   1.542
13699TIP3    H241034   0.897   7.543   1.409
13700TIP3   OH241035   4.861   0.311   1.051
13700TIP3    H141036   4.774   0.307   1.012
13700TIP3    H241037   4.846   0.355   1.135
13701TIP3   OH241038   8.044   3.338   6.898
13701TIP3    H141039   7.993   3.286   6.835
13701TIP3    H241040   8.048   3.425   6.859
13702TIP3   OH241041   7.776   4.151   6.849
13702TIP3    H141042   7.751   4.084   6.913
13702TIP3    H241043   7.780   4.104   6.766
13703TIP3   OH241044   2.044   7.831   0.691
13703TIP3    H141045   1.968   7.773   0.696
13703TIP3    H241046   2.119   7.773   0.683
13704TIP3   OH241047   4.072  -0.010   0.492
13704TIP3    H141048   4.070   0.062   0.428
13704TIP3    H241049   3.987  -0.004   0.537
13705TIP3   OH241050   0.808   7.306   0.206
13705TIP3    H141051   0.850   7.390   0.227
13705TIP3    H241052   0.726   7.308   0.255
13706TIP3   OH241053   1.344   7.768   0.405
13706TIP3    H141054   1.314   7.856   0.429
13706TIP3    H241055   1.310   7.711   0.475
13707TIP3   OH241056   4.370   0.318   0.856
13707TIP3    H141057   4.419   0.360   0.785
13707TIP3    H241058   4.436   0.289   0.918
13708TIP3   OH241059   3.997   0.219   0.341
13708TIP3    H141060   3.907   0.234   0.371
13708TIP3    H241061   4.047   0.290   0.380
13709TIP3   OH241062   1.901   7.988   0.872
13709TIP3    H141063   1.912   7.956   0.961
13709TIP3    H241064   1.963   7.936   0.820
13710TIP3   OH241065   7.539   3.879   6.736
13710TIP3    H141066   7.582   3.855   6.819
13710TIP3    H241067   7.454   3.835   6.740
13711TIP3   OH241068   7.850   4.348   6.531
13711TIP3    H141069   7.871   4.410   6.460
13711TIP3    H241070   7.780   4.391   6.580
13712TIP3   OH241071   2.033   7.816   0.014
13712TIP3    H141072   2.022   7.746   0.079
13712TIP3    H241073   2.127   7.814  -0.007
13713TIP3   OH241074   3.772   0.130   1.059
13713TIP3    H141075   3.848   0.075   1.078
13713TIP3    H241076   3.784   0.207   1.116
13714TIP3   OH241077   6.891   3.843   6.738
13714TIP3    H141078   6.901   3.752   6.710
13714TIP3    H241079   6.874   3.839   6.832
13715TIP3   OH241080   1.170   7.861   0.069
13715TIP3    H141081   1.246   7.833   0.120
13715TIP3    H241082   1.170   7.957   0.078
13716TIP3   OH241083   0.900   7.559   0.285
13716TIP3    H141084   0.835   7.607   0.337
13716TIP3    H241085   0.919   7.617   0.211
13717TIP3   OH241086   1.878   6.949   0.326
13717TIP3    H141087   1.897   6.935   0.233
13717TIP3    H241088   1.923   7.031   0.347
13718TIP3   OH241089   4.273   0.037   0.007
13718TIP3    H141090   4.189   0.061   0.045
13718TIP3    H241091   4.294   0.110  -0.052
13719TIP3   OH241092   1.589   7.137   0.424
13719TIP3    H141093   1.649   7.202   0.388
13719TIP3    H241094   1.619   7.124   0.514
13720TIP3   OH241095   1.748   6.847   0.537
13720TIP3    H141096   1.726   6.925   0.588
13720TIP3    H241097   1.802   6.880   0.466
13721TIP3   OH241098   4.022   0.120   0.085
13721TIP3    H141099   4.000   0.191   0.024
13721TIP3    H241100   4.011   0.159   0.172
13722TIP3   OH241101   1.272   6.853   0.336
13722TIP3    H141102   1.262   6.945   0.362
13722TIP3    H241103   1.366   6.838   0.338
13723TIP3   OH241104   2.244   7.643   0.669
13723TIP3    H141105   2.209   7.568   0.621
13723TIP3    H241106   2.294   7.605   0.741
13724TIP3   OH241107   0.923   7.734   0.067
13724TIP3    H141108   0.996   7.796   0.076
13724TIP3    H241109   0.953   7.671   0.002
13725TIP3   OH241110   0.831   7.029   0.196
13725TIP3    H141111   0.843   7.123   0.206
13725TIP3    H241112   0.767   7.019   0.126
13726TIP3   OH241113   5.004   0.471   0.506
13726TIP3    H141114   4.957   0.524   0.442
13726TIP3    H241115   5.095   0.473   0.476
13727TIP3   OH241116   1.366   6.792   0.989
13727TIP3    H141117   1.280   6.794   0.947
13727TIP3    H241118   1.357   6.853   1.063
13728TIP3   OH241119   3.581  -0.003   0.445
13728TIP3    H141120   3.541   0.035   0.523
13728TIP3    H241121   3.533   0.037   0.372
13729TIP3   OH241122   3.684   0.488   1.563
13729TIP3    H141123   3.738   0.423   1.608
13729TIP3    H241124   3.604   0.442   1.541
13730TIP3   OH241125   7.045   4.045   6.631
13730TIP3    H141126   6.998   3.974   6.674
13730TIP3    H241127   7.120   4.002   6.589
13731TIP3   OH241128   7.489   4.084   6.558
13731TIP3    H141129   7.523   4.021   6.621
13731TIP3    H241130   7.550   4.080   6.484
13732TIP3   OH241131   6.711   3.537   6.854
13732TIP3    H141132   6.762   3.512   6.931
13732TIP3    H241133   6.777   3.551   6.786
13733TIP3   OH241134   7.285   3.761   6.692
13733TIP3    H141135   7.262   3.770   6.784
13733TIP3    H241136   7.268   3.669   6.672
13734TIP3   OH241137   1.217   7.484   0.126
13734TIP3    H141138   1.197   7.452   0.214
13734TIP3    H241139   1.267   7.413   0.086
13735TIP3   OH241140   1.538   7.681   1.371
13735TIP3    H141141   1.503   7.592   1.370
13735TIP3    H241142   1.601   7.682   1.300
13736TIP3   OH241143   7.030   3.297   6.912
13736TIP3    H141144   7.000   3.300   6.822
13736TIP3    H241145   7.125   3.303   6.907
13737TIP3   OH241146   7.828   3.588   6.587
13737TIP3    H141147   7.814   3.545   6.503
13737TIP3    H241148   7.800   3.679   6.573
13738TIP3   OH241149   1.683   7.687   1.134
13738TIP3    H141150   1.738   7.678   1.056
13738TIP3    H241151   1.609   7.742   1.106
13739TIP3   OH241152   6.845   4.335   6.842
13739TIP3    H141153   6.936   4.320   6.817
13739TIP3    H241154   6.808   4.385   6.770
13740TIP3   OH241155   0.649   7.734   0.087
13740TIP3    H141156   0.744   7.744   0.082
13740TIP3    H241157   0.633   7.648   0.047
13741TIP3   OH241158   3.387   0.321   0.533
13741TIP3    H141159   3.323   0.265   0.490
13741TIP3    H241160   3.437   0.261   0.590
13742TIP3   OH241161   3.522   0.140   0.693
13742TIP3    H141162   3.509   0.069   0.756
13742TIP3    H241163   3.581   0.201   0.738
13743TIP3   OH241164   2.309   7.801  -0.014
13743TIP3    H141165   2.365   7.874  -0.043
13743TIP3    H241166   2.353   7.769   0.065
13744TIP3   OH241167   2.416   7.679   0.213
13744TIP3    H141168   2.352   7.618   0.250
13744TIP3    H241169   2.441   7.734   0.288
13745TIP3   OH241170   5.267   0.052   0.539
13745TIP3    H141171   5.280  -0.033   0.583
13745TIP3    H241172   5.173   0.067   0.544
13746TIP3   OH241173   5.174   0.347   0.757
13746TIP3    H141174   5.148   0.321   0.845
13746TIP3    H241175   5.118   0.295   0.699
13747TIP3   OH241176   8.036   3.578   6.766
13747TIP3    H141177   7.966   3.575   6.701
13747TIP3    H241178   8.015   3.655   6.819
13748TIP3   OH241179   7.890   3.214   6.710
13748TIP3    H141180   7.841   3.243   6.633
13748TIP3    H241181   7.885   3.118   6.707
13749TIP3   OH241182   2.232   7.495   0.314
13749TIP3    H141183   2.238   7.411   0.268
13749TIP3    H241184   2.233   7.472   0.407
13750TIP3   OH241185   0.847   7.591   1.077
13750TIP3    H141186   0.836   7.552   0.991
13750TIP3    H241187   0.942   7.600   1.088
13751TIP3   OH241188   7.854   2.942   6.698
13751TIP3    H141189   7.905   2.900   6.768
13751TIP3    H241190   7.765   2.908   6.710
13752TIP3   OH241191   2.226   7.250   0.178
13752TIP3    H141192   2.268   7.167   0.202
13752TIP3    H241193   2.278   7.283   0.105
13753TIP3   OH241194   1.065   6.971   1.063
13753TIP3    H141195   1.080   6.921   1.143
13753TIP3    H241196   1.132   7.039   1.064
13754TIP3   OH241197   0.868   7.236   1.152
13754TIP3    H141198   0.907   7.241   1.065
13754TIP3    H241199   0.926   7.289   1.208
13755TIP3   OH241200   8.111   2.892   6.883
13755TIP3    H141201   8.143   2.831   6.816
13755TIP3    H241202   8.159   2.973   6.868
13756TIP3   OH241203   0.836   6.766   0.657
13756TIP3    H141204   0.748   6.747   0.688
13756TIP3    H241205   0.822   6.814   0.575
13757TIP3   OH241206   4.813   0.452   0.156
13757TIP3    H141207   4.872   0.444   0.082
13757TIP3    H241208   4.856   0.516   0.214
13758TIP3   OH241209   0.891   6.752   1.445
13758TIP3    H141210   0.975   6.780   1.481
13758TIP3    H241211   0.865   6.824   1.387
13759TIP3   OH241212   3.879   0.297   1.623
13759TIP3    H141213   3.835   0.245   1.555
13759TIP3    H241214   3.854   0.254   1.705
13760TIP3   OH241215   4.089   0.278   1.141
13760TIP3    H141216   4.016   0.337   1.160
13760TIP3    H241217   4.167   0.334   1.147
13761TIP3   OH241218   3.784   0.407   1.115
13761TIP3    H141219   3.694   0.428   1.091
13761TIP3    H241220   3.786   0.415   1.210
13762TIP3   OH241221   3.966   0.534   0.948
13762TIP3    H141222   3.893   0.504   1.003
13762TIP3    H241223   3.937   0.619   0.915
13763TIP3   OH241224   4.480   0.509   0.686
13763TIP3    H141225   4.434   0.506   0.603
13763TIP3    H241226   4.451   0.590   0.727
13764TIP3   OH241227   4.706   0.423   0.819
13764TIP3    H141228   4.642   0.463   0.760
13764TIP3    H241229   4.777   0.486   0.824
13765TIP3   OH241230   4.961   0.677   0.694
13765TIP3    H141231   4.979   0.628   0.774
13765TIP3    H241232   4.974   0.614   0.623
13766TIP3   OH241233   3.717   0.287   0.832
13766TIP3    H141234   3.725   0.246   0.918
13766TIP3    H241235   3.781   0.241   0.777
13767TIP3   OH241236   3.888   0.138   0.674
13767TIP3    H141237   3.895   0.066   0.738
13767TIP3    H241238   3.970   0.186   0.684
13768TIP3   OH241239   4.161   0.247   0.622
13768TIP3    H141240   4.203   0.161   0.624
13768TIP3    H241241   4.143   0.267   0.714
13769TIP3   OH241242   1.133   6.679   0.837
13769TIP3    H141243   1.041   6.653   0.836
13769TIP3    H241244   1.181   6.602   0.806
13770TIP3   OH241245   0.962   6.568   0.483
13770TIP3    H141246   0.987   6.612   0.401
13770TIP3    H241247   0.924   6.637   0.537
13771TIP3   OH241248   1.575   6.708   0.709
13771TIP3    H141249   1.635   6.754   0.650
13771TIP3    H241250   1.580   6.757   0.791
13772TIP3   OH241251   2.132   6.779   0.206
13772TIP3    H141252   2.125   6.854   0.266
13772TIP3    H241253   2.154   6.706   0.263
13773TIP3   OH241254   3.464   0.118   0.229
13773TIP3    H141255   3.381   0.084   0.195
13773TIP3    H241256   3.467   0.209   0.200
13774TIP3   OH241257   1.067   6.683   0.242
13774TIP3    H141258   1.113   6.622   0.186
13774TIP3    H241259   1.137   6.740   0.278
13775TIP3   OH241260   1.545   6.882   0.335
13775TIP3    H141261   1.603   6.830   0.390
13775TIP3    H241262   1.564   6.973   0.359
13776TIP3   OH241263   7.104   4.268   6.775
13776TIP3    H141264   7.187   4.297   6.736
13776TIP3    H241265   7.074   4.198   6.717
13777TIP3   OH241266   7.810   4.418   6.876
13777TIP3    H141267   7.803   4.322   6.871
13777TIP3    H241268   7.766   4.449   6.797
13778TIP3   OH241269   6.413   4.110   6.836
13778TIP3    H141270   6.414   4.115   6.932
13778TIP3    H241271   6.493   4.064   6.813
13779TIP3   OH241272   2.567   7.447   0.146
13779TIP3    H141273   2.536   7.536   0.164
13779TIP3    H241274   2.516   7.420   0.069
13780TIP3   OH241275   8.133   3.993   6.815
13780TIP3    H141276   8.097   4.003   6.728
13780TIP3    H241277   8.162   4.081   6.840
13781TIP3   OH241278   8.476   3.630   6.795
13781TIP3    H141279   8.441   3.719   6.787
13781TIP3    H241280   8.532   3.633   6.873
13782TIP3   OH241281   5.333   0.305   0.459
13782TIP3    H141282   5.327   0.211   0.470
13782TIP3    H241283   5.330   0.340   0.549
13783TIP3   OH241284   0.348   4.792   6.572
13783TIP3    H141285   0.359   4.697   6.563
13783TIP3    H241286   0.433   4.822   6.606
13784TIP3   OH241287   8.384   4.468   6.921
13784TIP3    H141288   8.366   4.461   7.015
13784TIP3    H241289   8.342   4.391   6.882
13785TIP3   OH241290   0.224   3.149   6.496
13785TIP3    H141291   0.274   3.067   6.497
13785TIP3    H241292   0.201   3.162   6.405
13786TIP3   OH241293   8.234   3.133   6.851
13786TIP3    H141294   8.275   3.172   6.774
13786TIP3    H241295   8.181   3.203   6.888
13787TIP3   OH241296   0.106   3.403   6.608
13787TIP3    H141297   0.047   3.387   6.682
13787TIP3    H241298   0.161   3.325   6.604
13788TIP3   OH241299   0.393   3.864   6.707
13788TIP3    H141300   0.351   3.779   6.708
13788TIP3    H241301   0.355   3.911   6.781
13789TIP3   OH241302   0.532   4.008   6.422
13789TIP3    H141303   0.456   4.053   6.461
13789TIP3    H241304   0.545   3.931   6.477
13790TIP3   OH241305   0.195   4.266   6.844
13790TIP3    H141306   0.169   4.348   6.803
13790TIP3    H241307   0.166   4.273   6.935
13791TIP3   OH241308   8.270   3.546   6.620
13791TIP3    H141309   8.342   3.584   6.670
13791TIP3    H241310   8.192   3.566   6.671
13792TIP3   OH241311   0.266   3.999   6.904
13792TIP3    H141312   0.229   4.080   6.870
13792TIP3    H241313   0.297   4.021   6.991
13793TIP3   OH241314   0.105   4.518   6.763
13793TIP3    H141315   0.024   4.511   6.814
13793TIP3    H241316   0.136   4.608   6.780
13794TIP3   OH241317   0.144   4.089   6.251
13794TIP3    H141318   0.080   4.018   6.249
13794TIP3    H241319   0.167   4.097   6.343
13795TIP3   OH241320   0.043   4.168   6.516
13795TIP3    H141321   0.119   4.118   6.546
13795TIP3    H241322   0.072   4.259   6.515
13796TIP3   OH241323   8.354   3.860   6.716
13796TIP3    H141324   8.280   3.897   6.766
13796TIP3    H241325   8.354   3.909   6.634
13797TIP3   OH241326   0.358   4.251   6.445
13797TIP3    H141327   0.315   4.334   6.464
13797TIP3    H241328   0.435   4.276   6.393
13798TIP3   OH241329   0.130   4.424   6.502
13798TIP3    H141330   0.100   4.493   6.443
13798TIP3    H241331   0.126   4.465   6.589
13799TIP3   OH241332   8.314   4.034   6.465
13799TIP3    H141333   8.385   4.095   6.486
13799TIP3    H241334   8.360   3.956   6.433
13800TIP3   OH241335   8.313   3.275   6.631
13800TIP3    H141336   8.306   3.370   6.630
13800TIP3    H241337   8.270   3.246   6.551
13801TIP3   OH241338   8.204   4.257   6.876
13801TIP3    H141339   8.159   4.294   6.952
13801TIP3    H241340   8.164   4.301   6.801
13802TIP3   OH241341   0.362   4.371   6.166
13802TIP3    H141342   0.290   4.319   6.202
13802TIP3    H241343   0.441   4.320   6.186
13803TIP3   OH241344   8.450   3.810   6.404
13803TIP3    H141345   8.489   3.764   6.479
13803TIP3    H241346   8.501   3.779   6.328
13804TIP3   OH241347   0.514   3.918   6.153
13804TIP3    H141348   0.552   3.953   6.234
13804TIP3    H241349   0.446   3.858   6.183
13805TIP3   OH241350   0.134   3.705   6.581
13805TIP3    H141351   0.090   3.660   6.653
13805TIP3    H241352   0.190   3.638   6.541
13806TIP3   OH241353   0.319   3.563   6.439
13806TIP3    H141354   0.328   3.627   6.368
13806TIP3    H241355   0.337   3.479   6.397
13807TIP3   OH241356   0.088   4.631   6.326
13807TIP3    H141357   0.183   4.639   6.324
13807TIP3    H241358   0.059   4.659   6.239
13808TIP3   OH241359   8.066   3.968   6.540
13808TIP3    H141360   8.153   4.000   6.516
13808TIP3    H241361   8.059   3.883   6.496
13809TIP3   OH241362   5.195   0.555   0.013
13809TIP3    H141363   5.124   0.504  -0.026
13809TIP3    H241364   5.237   0.494   0.073
13810TIP3   OH241365   5.338   0.406   0.198
13810TIP3    H141366   5.331   0.341   0.268
13810TIP3    H241367   5.357   0.488   0.244
13811TIP3   OH241368   8.097   4.378   6.657
13811TIP3    H141369   8.013   4.345   6.625
13811TIP3    H241370   8.097   4.470   6.629
13812TIP3   OH241371   0.005   2.981   6.651
13812TIP3    H141372   0.101   2.981   6.651
13812TIP3    H241373  -0.019   3.038   6.724
13813TIP3   OH241374   0.357   4.621   6.267
13813TIP3    H141375   0.403   4.685   6.211
13813TIP3    H241376   0.363   4.539   6.219
13814TIP3   OH241377   8.198   4.371   6.334
13814TIP3    H141378   8.200   4.372   6.430
13814TIP3    H241379   8.279   4.327   6.308
13815TIP3   OH241380   7.517   1.119   1.367
13815TIP3    H141381   7.510   1.057   1.295
13815TIP3    H241382   7.610   1.120   1.389
13816TIP3   OH241383   7.207   0.361   1.090
13816TIP3    H141384   7.266   0.409   1.148
13816TIP3    H241385   7.263   0.299   1.044
13817TIP3   OH241386   7.421   0.497   1.193
13817TIP3    H141387   7.426   0.589   1.219
13817TIP3    H241388   7.462   0.495   1.107
13818TIP3   OH241389   7.776   1.110   0.804
13818TIP3    H141390   7.772   1.201   0.777
13818TIP3    H241391   7.863   1.080   0.777
13819TIP3   OH241392   7.045   1.404   1.254
13819TIP3    H141393   7.022   1.420   1.162
13819TIP3    H241394   7.048   1.492   1.293
13820TIP3   OH241395   7.281   1.290   0.902
13820TIP3    H141396   7.331   1.220   0.862
13820TIP3    H241397   7.305   1.286   0.995
13821TIP3   OH241398   7.308   1.343   1.171
13821TIP3    H141399   7.222   1.345   1.213
13821TIP3    H241400   7.371   1.350   1.243
13822TIP3   OH241401   7.521   0.510   0.940
13822TIP3    H141402   7.471   0.514   0.858
13822TIP3    H241403   7.607   0.545   0.917
13823TIP3   OH241404   7.206   0.874   1.124
13823TIP3    H141405   7.162   0.957   1.141
13823TIP3    H241406   7.166   0.812   1.186
13824TIP3   OH241407   7.985   0.392   1.124
13824TIP3    H141408   7.919   0.356   1.065
13824TIP3    H241409   7.992   0.484   1.099
13825TIP3   OH241410   7.683   1.155   1.061
13825TIP3    H141411   7.662   1.070   1.099
13825TIP3    H241412   7.715   1.135   0.973
13826TIP3   OH241413   7.449   0.916   0.981
13826TIP3    H141414   7.505   0.908   1.058
13826TIP3    H241415   7.361   0.898   1.014
13827TIP3   OH241416   7.783   1.380   0.756
13827TIP3    H141417   7.805   1.430   0.678
13827TIP3    H241418   7.724   1.437   0.806
13828TIP3   OH241419   7.624   0.901   1.195
13828TIP3    H141420   7.607   0.826   1.252
13828TIP3    H241421   7.716   0.891   1.169
13829TIP3   OH241422   6.835   0.881   0.985
13829TIP3    H141423   6.839   0.790   0.957
13829TIP3    H241424   6.769   0.882   1.055
13830TIP3   OH241425   7.075   1.103   1.197
13830TIP3    H141426   7.119   1.130   1.277
13830TIP3    H241427   7.054   1.185   1.152
13831TIP3   OH241428   6.688   1.124   1.164
13831TIP3    H141429   6.705   1.196   1.103
13831TIP3    H241430   6.765   1.124   1.221
13832TIP3   OH241431   6.965   1.080   0.859
13832TIP3    H141432   6.923   1.010   0.908
13832TIP3    H241433   7.038   1.038   0.814
13833TIP3   OH241434   7.411   1.095   0.773
13833TIP3    H141435   7.443   1.028   0.834
13833TIP3    H241436   7.469   1.089   0.698
13834TIP3   OH241437   6.579   0.625   1.036
13834TIP3    H141438   6.600   0.612   1.129
13834TIP3    H241439   6.663   0.621   0.991
13835TIP3   OH241440   7.141   0.799   0.866
13835TIP3    H141441   7.152   0.821   0.959
13835TIP3    H241442   7.146   0.704   0.862
13836TIP3   OH241443   6.927   0.356   1.127
13836TIP3    H141444   6.900   0.359   1.036
13836TIP3    H241445   7.023   0.358   1.124
13837TIP3   OH241446   7.740   0.628   0.818
13837TIP3    H141447   7.724   0.587   0.733
13837TIP3    H241448   7.713   0.719   0.806
13838TIP3   OH241449   6.757   1.344   1.014
13838TIP3    H141450   6.853   1.343   1.012
13838TIP3    H241451   6.732   1.367   0.925
13839TIP3   OH241452   7.886   0.869   1.137
13839TIP3    H141453   7.951   0.928   1.101
13839TIP3    H241454   7.934   0.818   1.203
13840TIP3   OH241455   8.018   0.712   1.314
13840TIP3    H141456   8.007   0.660   1.393
13840TIP3    H241457   8.093   0.672   1.269
13841TIP3   OH241458   7.954   0.636   0.991
13841TIP3    H141459   7.884   0.615   0.929
13841TIP3    H241460   7.925   0.716   1.035
13842TIP3   OH241461   7.805   0.320   0.930
13842TIP3    H141462   7.751   0.339   0.853
13842TIP3    H241463   7.774   0.234   0.960
13843TIP3   OH241464   7.733   0.076   1.032
13843TIP3    H141465   7.811   0.066   1.087
13843TIP3    H241466   7.665   0.027   1.078
13844TIP3   OH241467   5.138   7.984   1.118
13844TIP3    H141468   5.109   7.898   1.087
13844TIP3    H241469   5.198   8.015   1.050
13845TIP3   OH241470   7.715   1.488   1.358
13845TIP3    H141471   7.731   1.460   1.268
13845TIP3    H241472   7.727   1.583   1.355
13846TIP3   OH241473   7.024   1.308   0.987
13846TIP3    H141474   7.113   1.322   0.954
13846TIP3    H241475   6.994   1.229   0.942
13847TIP3   OH241476   7.746   1.419   1.096
13847TIP3    H141477   7.725   1.327   1.085
13847TIP3    H241478   7.702   1.462   1.022
13848TIP3   OH241479   0.718   0.972   1.041
13848TIP3    H141480   0.691   1.062   1.019
13848TIP3    H241481   0.645   0.917   1.012
13849TIP3   OH241482   0.685   0.993   1.453
13849TIP3    H141483   0.750   0.974   1.521
13849TIP3    H241484   0.651   0.907   1.429
13850TIP3   OH241485   0.998   1.284   1.128
13850TIP3    H141486   0.990   1.212   1.190
13850TIP3    H241487   1.006   1.362   1.184
13851TIP3   OH241488   0.006   1.267   1.481
13851TIP3    H141489  -0.008   1.174   1.496
13851TIP3    H241490   0.101   1.277   1.476
13852TIP3   OH241491   8.220   0.518   1.261
13852TIP3    H141492   8.246   0.558   1.344
13852TIP3    H241493   8.166   0.443   1.286
13853TIP3   OH241494   8.288   0.676   1.471
13853TIP3    H141495   8.374   0.685   1.512
13853TIP3    H241496   8.254   0.765   1.467
13854TIP3   OH241497   0.631   1.717   1.148
13854TIP3    H141498   0.659   1.642   1.096
13854TIP3    H241499   0.669   1.702   1.234
13855TIP3   OH241500   0.521   1.222   1.446
13855TIP3    H141501   0.570   1.140   1.443
13855TIP3    H241502   0.587   1.290   1.457
13856TIP3   OH241503   1.562   0.534   1.436
13856TIP3    H141504   1.548   0.629   1.433
13856TIP3    H241505   1.604   0.514   1.352
13857TIP3   OH241506   0.893   0.650   1.520
13857TIP3    H141507   0.959   0.585   1.545
13857TIP3    H241508   0.879   0.635   1.426
13858TIP3   OH241509   0.354   0.431   1.466
13858TIP3    H141510   0.303   0.487   1.408
13858TIP3    H241511   0.363   0.349   1.418
13859TIP3   OH241512   0.997   0.453   1.094
13859TIP3    H141513   1.060   0.444   1.166
13859TIP3    H241514   1.047   0.488   1.021
13860TIP3   OH241515   0.350   0.773   1.386
13860TIP3    H141516   0.443   0.752   1.394
13860TIP3    H241517   0.312   0.694   1.347
13861TIP3   OH241518   1.586   0.727   1.690
13861TIP3    H141519   1.513   0.780   1.657
13861TIP3    H241520   1.546   0.644   1.715
13862TIP3   OH241521   0.618   1.194   0.904
13862TIP3    H141522   0.580   1.164   0.822
13862TIP3    H241523   0.564   1.268   0.930
13863TIP3   OH241524   1.155   0.467   1.315
13863TIP3    H141525   1.133   0.435   1.402
13863TIP3    H241526   1.211   0.544   1.331
13864TIP3   OH241527   8.078   1.032   1.026
13864TIP3    H141528   8.056   1.051   0.934
13864TIP3    H241529   8.107   1.115   1.062
13865TIP3   OH241530   1.025   1.518   1.280
13865TIP3    H141531   1.009   1.514   1.374
13865TIP3    H241532   1.003   1.608   1.256
13866TIP3   OH241533   1.363   0.496   1.636
13866TIP3    H141534   1.272   0.483   1.607
13866TIP3    H241535   1.414   0.494   1.556
13867TIP3   OH241536   0.725   1.565   0.930
13867TIP3    H141537   0.776   1.484   0.922
13867TIP3    H241538   0.787   1.634   0.908
13868TIP3   OH241539   0.862   1.334   0.894
13868TIP3    H141540   0.792   1.268   0.895
13868TIP3    H241541   0.917   1.310   0.969
13869TIP3   OH241542   0.542   0.820   0.887
13869TIP3    H141543   0.459   0.863   0.868
13869TIP3    H241544   0.589   0.819   0.803
13870TIP3   OH241545   0.517   0.622   0.581
13870TIP3    H141546   0.582   0.672   0.630
13870TIP3    H241547   0.567   0.556   0.534
13871TIP3   OH241548   1.438   1.092   1.494
13871TIP3    H141549   1.365   1.153   1.505
13871TIP3    H241550   1.462   1.099   1.402
13872TIP3   OH241551   0.904   0.908   0.851
13872TIP3    H141552   0.849   0.935   0.924
13872TIP3    H241553   0.988   0.884   0.891
13873TIP3   OH241554   1.135   0.978   1.709
13873TIP3    H141555   1.140   1.068   1.740
13873TIP3    H241556   1.045   0.970   1.675
13874TIP3   OH241557   0.132   0.898   1.257
13874TIP3    H141558   0.099   0.832   1.196
13874TIP3    H241559   0.210   0.857   1.296
13875TIP3   OH241560   0.266   1.318   1.391
13875TIP3    H141561   0.251   1.293   1.300
13875TIP3    H241562   0.352   1.279   1.412
13876TIP3   OH241563   0.242   0.887   1.612
13876TIP3    H141564   0.280   0.843   1.535
13876TIP3    H241565   0.311   0.946   1.642
13877TIP3   OH241566   0.714   1.511   1.509
13877TIP3    H141567   0.725   1.596   1.467
13877TIP3    H241568   0.799   1.491   1.548
13878TIP3   OH241569   0.733   0.770   0.684
13878TIP3    H141570   0.793   0.828   0.732
13878TIP3    H241571   0.761   0.777   0.593
13879TIP3   OH241572   0.482   1.433   0.939
13879TIP3    H141573   0.561   1.487   0.945
13879TIP3    H241574   0.419   1.487   0.891
13880TIP3   OH241575   1.279   0.013   0.743
13880TIP3    H141576   1.203   0.026   0.799
13880TIP3    H241577   1.277   0.087   0.682
13881TIP3   OH241578   8.507   0.732   1.059
13881TIP3    H141579   8.431   0.781   1.028
13881TIP3    H241580   8.470   0.651   1.095
13882TIP3   OH241581   1.067   1.368   0.302
13882TIP3    H141582   1.062   1.461   0.279
13882TIP3    H241583   1.156   1.343   0.280
13883TIP3   OH241584   1.476   1.770   1.689
13883TIP3    H141585   1.464   1.675   1.688
13883TIP3    H241586   1.397   1.804   1.731
13884TIP3   OH241587   0.368   1.664   0.765
13884TIP3    H141588   0.323   1.640   0.684
13884TIP3    H241589   0.328   1.746   0.793
13885TIP3   OH241590   8.307   1.517   1.141
13885TIP3    H141591   8.355   1.510   1.224
13885TIP3    H241592   8.264   1.432   1.132
13886TIP3   OH241593   0.574   1.591   0.400
13886TIP3    H141594   0.623   1.518   0.364
13886TIP3    H241595   0.609   1.603   0.488
13887TIP3   OH241596   0.624   1.637   0.671
13887TIP3    H141597   0.536   1.642   0.707
13887TIP3    H241598   0.675   1.594   0.739
13888TIP3   OH241599   0.813   0.764   0.425
13888TIP3    H141600   0.767   0.758   0.341
13888TIP3    H241601   0.897   0.805   0.404
13889TIP3   OH241602   0.524   0.181   0.725
13889TIP3    H141603   0.495   0.170   0.816
13889TIP3    H241604   0.486   0.106   0.679
13890TIP3   OH241605   0.208   0.567   1.278
13890TIP3    H141606   0.122   0.543   1.312
13890TIP3    H241607   0.214   0.524   1.193
13891TIP3   OH241608   0.680   0.623   1.019
13891TIP3    H141609   0.631   0.695   0.979
13891TIP3    H241610   0.737   0.591   0.949
13892TIP3   OH241611   0.839   0.624   1.246
13892TIP3    H141612   0.778   0.647   1.176
13892TIP3    H241613   0.890   0.551   1.210
13893TIP3   OH241614   0.188   0.157   0.675
13893TIP3    H141615   0.188   0.166   0.770
13893TIP3    H241616   0.108   0.201   0.647
13894TIP3   OH241617   8.215   0.254   1.076
13894TIP3    H141618   8.232   0.285   0.987
13894TIP3    H241619   8.135   0.301   1.102
13895TIP3   OH241620   0.870   0.895   1.640
13895TIP3    H141621   0.887   0.812   1.597
13895TIP3    H241622   0.843   0.872   1.729
13896TIP3   OH241623   0.612   0.406   1.343
13896TIP3    H141624   0.543   0.423   1.408
13896TIP3    H241625   0.691   0.392   1.396
13897TIP3   OH241626   8.477   0.443   1.338
13897TIP3    H141627   8.397   0.446   1.287
13897TIP3    H241628   8.516   0.358   1.316
13898TIP3   OH241629   0.211   0.420   1.044
13898TIP3    H141630   0.304   0.443   1.036
13898TIP3    H241631   0.172   0.444   0.960
13899TIP3   OH241632   1.063   0.429   1.579
13899TIP3    H141633   1.076   0.392   1.667
13899TIP3    H241634   0.986   0.382   1.545
13900TIP3   OH241635   0.090   0.446   0.801
13900TIP3    H141636   0.027   0.399   0.746
13900TIP3    H241637   0.147   0.492   0.739
13901TIP3   OH241638   1.170   2.138   1.769
13901TIP3    H141639   1.162   2.123   1.674
13901TIP3    H241640   1.218   2.221   1.776
13902TIP3   OH241641   0.622   0.713   1.423
13902TIP3    H141642   0.667   0.675   1.347
13902TIP3    H241643   0.673   0.684   1.498
13903TIP3   OH241644   0.099   0.198   1.329
13903TIP3    H141645   0.061   0.157   1.407
13903TIP3    H241646   0.054   0.156   1.256
13904TIP3   OH241647   0.304   0.952   0.830
13904TIP3    H141648   0.229   0.898   0.807
13904TIP3    H241649   0.279   0.994   0.912
13905TIP3   OH241650   0.775   0.281   0.728
13905TIP3    H141651   0.682   0.260   0.723
13905TIP3    H241652   0.778   0.376   0.736
13906TIP3   OH241653   0.841   0.542   0.805
13906TIP3    H141654   0.937   0.547   0.812
13906TIP3    H241655   0.817   0.618   0.752
13907TIP3   OH241656   0.016   0.993   1.495
13907TIP3    H141657   0.041   0.965   1.407
13907TIP3    H241658   0.083   0.955   1.552
13908TIP3   OH241659   0.463   1.116   0.681
13908TIP3    H141660   0.416   1.199   0.678
13908TIP3    H241661   0.406   1.057   0.731
13909TIP3   OH241662   1.266   0.619   0.625
13909TIP3    H141663   1.208   0.570   0.567
13909TIP3    H241664   1.266   0.708   0.590
13910TIP3   OH241665   1.411   1.501   1.691
13910TIP3    H141666   1.319   1.492   1.665
13910TIP3    H241667   1.460   1.469   1.615
13911TIP3   OH241668   0.984   1.432   0.567
13911TIP3    H141669   0.956   1.361   0.624
13911TIP3    H241670   1.004   1.389   0.483
13912TIP3   OH241671   0.971   1.069   1.302
13912TIP3    H141672   0.881   1.054   1.332
13912TIP3    H241673   1.003   0.982   1.280
13913TIP3   OH241674   0.124   1.313   1.144
13913TIP3    H141675   0.115   1.390   1.088
13913TIP3    H241676   0.039   1.303   1.186
13914TIP3   OH241677   8.191   0.605   0.854
13914TIP3    H141678   8.240   0.683   0.880
13914TIP3    H241679   8.110   0.608   0.905
13915TIP3   OH241680   0.208   1.070   1.051
13915TIP3    H141681   0.194   1.160   1.081
13915TIP3    H241682   0.185   1.016   1.127
13916TIP3   OH241683   0.421   1.623   1.588
13916TIP3    H141684   0.469   1.702   1.564
13916TIP3    H241685   0.487   1.554   1.588
13917TIP3   OH241686   0.040   1.537   0.997
13917TIP3    H141687  -0.047   1.544   1.036
13917TIP3    H241688   0.075   1.626   1.003
13918TIP3   OH241689   0.749   1.176   0.450
13918TIP3    H141690   0.801   1.148   0.526
13918TIP3    H241691   0.666   1.130   0.459
13919TIP3   OH241692   0.988   1.854   1.642
13919TIP3    H141693   0.990   1.758   1.643
13919TIP3    H241694   0.989   1.877   1.549
13920TIP3   OH241695   1.062   1.641   0.253
13920TIP3    H141696   1.072   1.696   0.175
13920TIP3    H241697   0.992   1.683   0.304
13921TIP3   OH241698   0.927   1.094   0.642
13921TIP3    H141699   0.911   1.040   0.720
13921TIP3    H241700   1.022   1.098   0.635
13922TIP3   OH241701   0.102   1.139   0.468
13922TIP3    H141702   0.112   1.048   0.440
13922TIP3    H241703   0.089   1.134   0.563
13923TIP3   OH241704   0.046   1.157   0.741
13923TIP3    H141705   0.110   1.131   0.808
13923TIP3    H241706   0.046   1.252   0.744
13924TIP3   OH241707   8.282   0.853   0.949
13924TIP3    H141708   8.216   0.900   0.998
13924TIP3    H241709   8.303   0.910   0.875
13925TIP3   OH241710   0.854   0.244   0.988
13925TIP3    H141711   0.829   0.262   0.898
13925TIP3    H241712   0.899   0.323   1.017
13926TIP3   OH241713   0.317   1.344   0.675
13926TIP3    H141714   0.231   1.367   0.710
13926TIP3    H241715   0.339   1.416   0.616
13927TIP3   OH241716   0.483   0.446   1.088
13927TIP3    H141717   0.547   0.509   1.057
13927TIP3    H241718   0.510   0.427   1.178
13928TIP3   OH241719   0.667   0.194   1.177
13928TIP3    H141720   0.650   0.267   1.236
13928TIP3    H241721   0.740   0.224   1.122
13929TIP3   OH241722   0.065   1.430   0.747
13929TIP3    H141723   0.046   1.502   0.687
13929TIP3    H241724   0.055   1.468   0.834
13930TIP3   OH241725   0.173   0.163   0.948
13930TIP3    H141726   0.182   0.249   0.988
13930TIP3    H241727   0.256   0.119   0.967
13931TIP3   OH241728   1.059   0.803   1.247
13931TIP3    H141729   0.984   0.745   1.259
13931TIP3    H241730   1.126   0.767   1.305
13932TIP3   OH241731   8.302   1.026   0.730
13932TIP3    H141732   8.375   1.087   0.740
13932TIP3    H241733   8.334   0.962   0.666
13933TIP3   OH241734   8.216   0.331   0.821
13933TIP3    H141735   8.224   0.425   0.833
13933TIP3    H241736   8.162   0.321   0.742
13934TIP3   OH241737   1.030   1.806   1.198
13934TIP3    H141738   0.989   1.863   1.133
13934TIP3    H241739   1.124   1.820   1.185
13935TIP3   OH241740   8.134   1.293   1.118
13935TIP3    H141741   8.098   1.336   1.195
13935TIP3    H241742   8.093   1.337   1.044
13936TIP3   OH241743   0.256   1.340   0.357
13936TIP3    H141744   0.210   1.269   0.401
13936TIP3    H241745   0.331   1.297   0.315
13937TIP3   OH241746   0.700   1.382   0.278
13937TIP3    H141747   0.732   1.316   0.339
13937TIP3    H241748   0.757   1.374   0.202
13938TIP3   OH241749   8.422   0.833   0.578
13938TIP3    H141750   8.473   0.808   0.655
13938TIP3    H241751   8.487   0.847   0.509
13939TIP3   OH241752   0.494   1.056   0.414
13939TIP3    H141753   0.473   1.067   0.507
13939TIP3    H241754   0.478   0.963   0.396
13940TIP3   OH241755   0.094   0.775   0.789
13940TIP3    H141756   0.076   0.745   0.878
13940TIP3    H241757   0.146   0.705   0.750
13941TIP3   OH241758   0.245   0.597   0.635
13941TIP3    H141759   0.214   0.598   0.544
13941TIP3    H241760   0.340   0.602   0.628
13942TIP3   OH241761   1.039   0.879   0.312
13942TIP3    H141762   1.024   0.839   0.226
13942TIP3    H241763   1.014   0.971   0.300
13943TIP3   OH241764   0.065   1.644   0.570
13943TIP3    H141765   0.153   1.620   0.541
13943TIP3    H241766   0.025   1.687   0.494
13944TIP3   OH241767   8.029   1.022   0.734
13944TIP3    H141768   8.124   1.032   0.732
13944TIP3    H241769   8.014   0.934   0.699
13945TIP3   OH241770   7.947   1.599   1.158
13945TIP3    H141771   7.889   1.537   1.114
13945TIP3    H241772   7.996   1.545   1.220
13946TIP3   OH241773   8.072   1.449   1.350
13946TIP3    H141774   8.019   1.410   1.420
13946TIP3    H241775   8.132   1.508   1.395
13947TIP3   OH241776   1.293   1.884   1.174
13947TIP3    H141777   1.339   1.888   1.258
13947TIP3    H241778   1.363   1.888   1.109
13948TIP3   OH241779   1.355   1.876   1.460
13948TIP3    H141780   1.307   1.800   1.428
13948TIP3    H241781   1.412   1.842   1.528
13949TIP3   OH241782   1.206   1.087   0.641
13949TIP3    H141783   1.263   1.158   0.612
13949TIP3    H241784   1.249   1.051   0.718
13950TIP3   OH241785   1.331   0.953   0.848
13950TIP3    H141786   1.264   0.915   0.905
13950TIP3    H241787   1.396   0.989   0.908
13951TIP3   OH241788   1.395   1.335   1.293
13951TIP3    H141789   1.431   1.256   1.252
13951TIP3    H241790   1.316   1.354   1.242
13952TIP3   OH241791   1.248   1.637   1.406
13952TIP3    H141792   1.192   1.616   1.481
13952TIP3    H241793   1.209   1.589   1.333
13953TIP3   OH241794   1.246   0.858   0.493
13953TIP3    H141795   1.175   0.856   0.428
13953TIP3    H241796   1.229   0.937   0.544
13954TIP3   OH241797   1.101   0.514   0.437
13954TIP3    H141798   1.066   0.555   0.358
13954TIP3    H241799   1.085   0.421   0.425
13955TIP3   OH241800   1.132   0.809   0.981
13955TIP3    H141801   1.136   0.715   0.961
13955TIP3    H241802   1.109   0.813   1.074
13956TIP3   OH241803   1.403   1.229   1.805
13956TIP3    H141804   1.495   1.202   1.810
13956TIP3    H241805   1.407   1.323   1.791
13957TIP3   OH241806   1.610   1.022   1.831
13957TIP3    H141807   1.519   1.008   1.856
13957TIP3    H241808   1.642   0.935   1.809
13958TIP3   OH241809   1.051   0.247   0.407
13958TIP3    H141810   1.118   0.216   0.468
13958TIP3    H241811   0.971   0.202   0.434
13959TIP3   OH241812   1.135   0.539   0.865
13959TIP3    H141813   1.180   0.456   0.880
13959TIP3    H241814   1.177   0.574   0.786
13960TIP3   OH241815   1.280   0.701   1.391
13960TIP3    H141816   1.359   0.724   1.343
13960TIP3    H241817   1.292   0.741   1.478
13961TIP3   OH241818   1.359   0.858   1.610
13961TIP3    H141819   1.279   0.884   1.656
13961TIP3    H241820   1.390   0.938   1.569
13962TIP3   OH241821   1.251   0.295   0.923
13962TIP3    H141822   1.288   0.271   1.008
13962TIP3    H241823   1.190   0.224   0.903
13963TIP3   OH241824   1.296   0.203   0.547
13963TIP3    H141825   1.334   0.140   0.487
13963TIP3    H241826   1.357   0.277   0.545
13964TIP3   OH241827   8.193   0.209   1.347
13964TIP3    H141828   8.108   0.171   1.370
13964TIP3    H241829   8.195   0.204   1.251
13965TIP3   OH241830   0.895   1.755   0.840
13965TIP3    H141831   0.926   1.738   0.751
13965TIP3    H241832   0.974   1.778   0.889
13966TIP3   OH241833   0.171   1.597   1.733
13966TIP3    H141834   0.149   1.686   1.704
13966TIP3    H241835   0.260   1.583   1.702
13967TIP3   OH241836   0.793   2.016   1.733
13967TIP3    H141837   0.862   1.960   1.697
13967TIP3    H241838   0.787   1.990   1.825
13968TIP3   OH241839   0.091   1.846   1.641
13968TIP3    H141840   0.005   1.847   1.684
13968TIP3    H241841   0.071   1.859   1.548
13969TIP3   OH241842   0.486   1.885   1.455
13969TIP3    H141843   0.425   1.869   1.383
13969TIP3    H241844   0.433   1.925   1.524
13970TIP3   OH241845   0.731   1.771   1.406
13970TIP3    H141846   0.649   1.817   1.423
13970TIP3    H241847   0.798   1.839   1.407
13971TIP3   OH241848   0.951   1.979   1.393
13971TIP3    H141849   0.938   2.059   1.342
13971TIP3    H241850   0.979   1.914   1.328
13972TIP3   OH241851   8.247   1.613   1.498
13972TIP3    H141852   8.261   1.596   1.591
13972TIP3    H241853   8.325   1.580   1.455
13973TIP3   OH241854   8.460   1.508   1.370
13973TIP3    H141855   8.470   1.423   1.412
13973TIP3    H241856   8.547   1.547   1.374
13974TIP3   OH241857   0.227   1.591   1.392
13974TIP3    H141858   0.242   1.498   1.376
13974TIP3    H241859   0.281   1.611   1.469
13975TIP3   OH241860   0.850   0.304   1.458
13975TIP3    H141861   0.804   0.229   1.495
13975TIP3    H241862   0.908   0.266   1.391
13976TIP3   OH241863   1.283   0.151   1.390
13976TIP3    H141864   1.328   0.191   1.315
13976TIP3    H241865   1.190   0.164   1.371
13977TIP3   OH241866   1.398   0.216   1.148
13977TIP3    H141867   1.464   0.164   1.103
13977TIP3    H241868   1.431   0.306   1.145
13978TIP3   OH241869   5.494   7.886   1.042
13978TIP3    H141870   5.566   7.912   0.984
13978TIP3    H241871   5.536   7.835   1.112
13979TIP3   OH241872   0.561  -0.016   1.331
13979TIP3    H141873   0.549   0.074   1.302
13979TIP3    H241874   0.489  -0.031   1.393
13980TIP3   OH241875   1.017   0.146   1.306
13980TIP3    H141876   1.018   0.116   1.215
13980TIP3    H241877   1.006   0.067   1.358
13981TIP3   OH241878   1.067   0.089   0.901
13981TIP3    H141879   0.984   0.131   0.926
13981TIP3    H241880   1.055  -0.003   0.926
13982TIP3   OH241881   8.019   1.413   0.901
13982TIP3    H141882   7.939   1.378   0.861
13982TIP3    H241883   8.025   1.503   0.868
13983TIP3   OH241884   5.640   8.008   0.832
13983TIP3    H141885   5.672   7.942   0.770
13983TIP3    H241886   5.719   8.053   0.861
13984TIP3   OH241887   0.465   0.180   0.998
13984TIP3    H141888   0.534   0.168   1.063
13984TIP3    H241889   0.442   0.272   1.004
13985TIP3   OH241890   0.317   1.565   0.498
13985TIP3    H141891   0.401   1.591   0.460
13985TIP3    H241892   0.287   1.494   0.442
13986TIP3   OH241893   1.013   1.701   0.597
13986TIP3    H141894   1.008   1.605   0.590
13986TIP3    H241895   0.970   1.733   0.518
13987TIP3   OH241896   8.131   1.406   0.560
13987TIP3    H141897   8.138   1.419   0.655
13987TIP3    H241898   8.210   1.359   0.536
13988TIP3   OH241899   1.249   1.876   1.789
13988TIP3    H141900   1.173   1.824   1.761
13988TIP3    H241901   1.215   1.965   1.796
13989TIP3   OH241902   2.524   1.235   0.513
13989TIP3    H141903   2.482   1.319   0.496
13989TIP3    H241904   2.456   1.170   0.493
13990TIP3   OH241905   2.516   1.205   0.962
13990TIP3    H141906   2.544   1.194   1.053
13990TIP3    H241907   2.470   1.123   0.941
13991TIP3   OH241908   1.800   1.081   1.291
13991TIP3    H141909   1.827   1.018   1.358
13991TIP3    H241910   1.879   1.131   1.273
13992TIP3   OH241911   2.801   1.467   0.606
13992TIP3    H141912   2.757   1.412   0.671
13992TIP3    H241913   2.788   1.556   0.638
13993TIP3   OH241914   1.801   1.512   0.988
13993TIP3    H141915   1.785   1.418   0.993
13993TIP3    H241916   1.895   1.520   0.972
13994TIP3   OH241917   1.485   0.737   0.765
13994TIP3    H141918   1.441   0.819   0.789
13994TIP3    H241919   1.417   0.685   0.722
13995TIP3   OH241920   1.567   1.031   0.981
13995TIP3    H141921   1.617   0.954   1.006
13995TIP3    H241922   1.634   1.097   0.960
13996TIP3   OH241923   2.493   1.987   0.612
13996TIP3    H141924   2.492   1.896   0.582
13996TIP3    H241925   2.424   1.990   0.679
13997TIP3   OH241926   2.311   1.438   0.946
13997TIP3    H141927   2.346   1.352   0.923
13997TIP3    H241928   2.388   1.491   0.965
13998TIP3   OH241929   3.329   0.752   0.909
13998TIP3    H141930   3.321   0.814   0.981
13998TIP3    H241931   3.310   0.804   0.831
13999TIP3   OH241932   2.771   0.924   0.951
13999TIP3    H141933   2.787   0.844   1.001
13999TIP3    H241934   2.697   0.902   0.894
14000TIP3   OH241935   2.085   0.596   0.956
14000TIP3    H141936   2.054   0.664   0.896
14000TIP3    H241937   2.036   0.518   0.932
14001TIP3   OH241938   2.762   0.700   0.577
14001TIP3    H141939   2.828   0.672   0.641
14001TIP3    H241940   2.813   0.739   0.506
14002TIP3   OH241941   1.701   0.808   1.076
14002TIP3    H141942   1.785   0.798   1.120
14002TIP3    H241943   1.705   0.747   1.003
14003TIP3   OH241944   2.128   1.001   0.882
14003TIP3    H141945   2.221   0.983   0.892
14003TIP3    H241946   2.089   0.918   0.856
14004TIP3   OH241947   3.277   0.940   1.102
14004TIP3    H141948   3.188   0.971   1.084
14004TIP3    H241949   3.283   0.936   1.197
14005TIP3   OH241950   2.065   0.607   1.404
14005TIP3    H141951   2.015   0.647   1.333
14005TIP3    H241952   2.006   0.610   1.479
14006TIP3   OH241953   2.400   1.455   0.403
14006TIP3    H141954   2.362   1.425   0.321
14006TIP3    H241955   2.345   1.530   0.429
14007TIP3   OH241956   2.171   1.367   1.174
14007TIP3    H141957   2.106   1.429   1.206
14007TIP3    H241958   2.213   1.411   1.100
14008TIP3   OH241959   2.936   0.658   0.779
14008TIP3    H141960   2.888   0.653   0.861
14008TIP3    H241961   2.985   0.740   0.785
14009TIP3   OH241962   1.952   0.714   1.172
14009TIP3    H141963   2.003   0.791   1.198
14009TIP3    H241964   2.005   0.672   1.104
14010TIP3   OH241965   1.973   1.534   1.270
14010TIP3    H141966   1.943   1.614   1.226
14010TIP3    H241967   1.901   1.511   1.328
14011TIP3   OH241968   1.378   1.278   0.527
14011TIP3    H141969   1.342   1.294   0.440
14011TIP3    H241970   1.399   1.365   0.561
14012TIP3   OH241971   2.757   1.713   0.714
14012TIP3    H141972   2.691   1.737   0.779
14012TIP3    H241973   2.755   1.784   0.650
14013TIP3   OH241974   3.086   0.648   1.090
14013TIP3    H141975   2.997   0.644   1.053
14013TIP3    H241976   3.144   0.651   1.014
14014TIP3   OH241977   2.392   0.292   1.114
14014TIP3    H141978   2.392   0.201   1.144
14014TIP3    H241979   2.322   0.333   1.165
14015TIP3   OH241980   2.533   1.771   0.430
14015TIP3    H141981   2.583   1.692   0.410
14015TIP3    H241982   2.581   1.842   0.387
14016TIP3   OH241983   2.662   1.531   0.377
14016TIP3    H141984   2.575   1.496   0.398
14016TIP3    H241985   2.717   1.504   0.451
14017TIP3   OH241986   2.883   1.677   1.053
14017TIP3    H141987   2.897   1.603   0.994
14017TIP3    H241988   2.968   1.722   1.053
14018TIP3   OH241989   2.340   1.076   0.377
14018TIP3    H141990   2.257   1.119   0.360
14018TIP3    H241991   2.384   1.073   0.292
14019TIP3   OH241992   2.312   0.876   0.073
14019TIP3    H141993   2.379   0.925   0.120
14019TIP3    H241994   2.360   0.810   0.023
14020TIP3   OH241995   3.112   1.261   0.848
14020TIP3    H141996   3.063   1.339   0.874
14020TIP3    H241997   3.199   1.273   0.886
14021TIP3   OH241998   2.714   1.162   0.329
14021TIP3    H141999   2.657   1.189   0.401
14021TIP3    H242000   2.800   1.148   0.370
14022TIP3   OH242001   1.924   1.140   0.747
14022TIP3    H142002   1.885   1.080   0.682
14022TIP3    H242003   1.998   1.091   0.783
14023TIP3   OH242004   2.059   1.553   0.884
14023TIP3    H142005   2.036   1.538   0.792
14023TIP3    H242006   2.147   1.516   0.893
14024TIP3   OH242007   2.033   1.140   1.106
14024TIP3    H142008   2.071   1.106   1.024
14024TIP3    H242009   2.085   1.217   1.126
14025TIP3   OH242010   2.598   1.773   0.932
14025TIP3    H142011   2.646   1.796   1.012
14025TIP3    H242012   2.571   1.682   0.946
14026TIP3   OH242013   2.115   1.653   1.474
14026TIP3    H142014   2.066   1.732   1.497
14026TIP3    H242015   2.065   1.613   1.403
14027TIP3   OH242016   2.531   1.023   0.173
14027TIP3    H142017   2.594   1.079   0.219
14027TIP3    H242018   2.556   1.030   0.081
14028TIP3   OH242019   1.944   1.237   1.516
14028TIP3    H142020   1.947   1.317   1.568
14028TIP3    H242021   1.855   1.204   1.528
14029TIP3   OH242022   2.269   1.698   0.440
14029TIP3    H142023   2.357   1.734   0.439
14029TIP3    H242024   2.218   1.759   0.385
14030TIP3   OH242025   1.909   1.842   1.502
14030TIP3    H142026   1.868   1.779   1.443
14030TIP3    H242027   1.861   1.833   1.584
14031TIP3   OH242028   3.042   0.250   0.235
14031TIP3    H142029   2.964   0.271   0.286
14031TIP3    H242030   3.053   0.325   0.176
14032TIP3   OH242031   1.795   0.982   0.547
14032TIP3    H142032   1.721   1.034   0.514
14032TIP3    H242033   1.759   0.894   0.560
14033TIP3   OH242034   5.697   5.632   6.715
14033TIP3    H142035   5.695   5.725   6.689
14033TIP3    H242036   5.788   5.606   6.700
14034TIP3   OH242037   1.572   1.408   1.487
14034TIP3    H142038   1.511   1.384   1.417
14034TIP3    H242039   1.612   1.326   1.514
14035TIP3   OH242040   1.433   1.577   1.090
14035TIP3    H142041   1.512   1.524   1.098
14035TIP3    H242042   1.423   1.618   1.175
14036TIP3   OH242043   2.392   1.788   1.238
14036TIP3    H142044   2.371   1.869   1.285
14036TIP3    H242045   2.388   1.719   1.304
14037TIP3   OH242046   2.170   1.914   0.264
14037TIP3    H142047   2.126   1.892   0.182
14037TIP3    H242048   2.129   1.995   0.292
14038TIP3   OH242049   1.595   1.770   0.634
14038TIP3    H142050   1.637   1.760   0.720
14038TIP3    H242051   1.545   1.689   0.622
14039TIP3   OH242052   5.200   5.855   6.818
14039TIP3    H142053   5.250   5.781   6.783
14039TIP3    H242054   5.231   5.865   6.907
14040TIP3   OH242055   2.417   1.893   0.142
14040TIP3    H142056   2.339   1.888   0.197
14040TIP3    H242057   2.490   1.888   0.203
14041TIP3   OH242058   3.235   1.182   1.537
14041TIP3    H142059   3.264   1.240   1.608
14041TIP3    H242060   3.141   1.197   1.531
14042TIP3   OH242061   1.785   1.577   1.476
14042TIP3    H142062   1.829   1.546   1.555
14042TIP3    H242063   1.703   1.528   1.473
14043TIP3   OH242064   2.170   0.387   1.259
14043TIP3    H142065   2.084   0.355   1.230
14043TIP3    H242066   2.150   0.467   1.309
14044TIP3   OH242067   2.698   0.500   1.464
14044TIP3    H142068   2.759   0.521   1.536
14044TIP3    H242069   2.614   0.487   1.508
14045TIP3   OH242070   2.846   0.982   1.305
14045TIP3    H142071   2.818   0.974   1.397
14045TIP3    H242072   2.776   1.033   1.264
14046TIP3   OH242073   5.443   5.031   6.854
14046TIP3    H142074   5.399   5.023   6.769
14046TIP3    H242075   5.526   5.073   6.834
14047TIP3   OH242076   2.319   0.417   0.225
14047TIP3    H142077   2.280   0.425   0.312
14047TIP3    H242078   2.280   0.337   0.189
14048TIP3   OH242079   2.116   0.920   1.249
14048TIP3    H142080   2.105   0.945   1.341
14048TIP3    H242081   2.083   0.996   1.200
14049TIP3   OH242082   1.969   0.780   0.792
14049TIP3    H142083   1.879   0.754   0.813
14049TIP3    H242084   1.981   0.756   0.700
14050TIP3   OH242085   2.457   0.865   0.509
14050TIP3    H142086   2.412   0.939   0.468
14050TIP3    H242087   2.517   0.833   0.441
14051TIP3   OH242088   2.579   1.210   1.597
14051TIP3    H142089   2.584   1.137   1.658
14051TIP3    H242090   2.601   1.173   1.512
14052TIP3   OH242091   2.595   0.852   0.749
14052TIP3    H142092   2.536   0.879   0.679
14052TIP3    H242093   2.655   0.790   0.707
14053TIP3   OH242094   1.899   0.901   1.475
14053TIP3    H142095   1.974   0.937   1.523
14053TIP3    H242096   1.881   0.817   1.518
14054TIP3   OH242097   1.983   0.406   0.202
14054TIP3    H142098   1.962   0.409   0.295
14054TIP3    H242099   1.906   0.442   0.158
14055TIP3   OH242100   1.515   0.452   1.089
14055TIP3    H142101   1.594   0.489   1.127
14055TIP3    H242102   1.535   0.445   0.995
14056TIP3   OH242103   1.469   0.431   0.572
14056TIP3    H142104   1.499   0.464   0.488
14056TIP3    H242105   1.398   0.491   0.597
14057TIP3   OH242106   2.347   0.582   0.838
14057TIP3    H142107   2.272   0.588   0.897
14057TIP3    H242108   2.423   0.573   0.896
14058TIP3   OH242109   1.725   0.644   0.849
14058TIP3    H142110   1.646   0.685   0.813
14058TIP3    H242111   1.702   0.551   0.855
14059TIP3   OH242112   1.997   0.677   0.539
14059TIP3    H142113   2.092   0.690   0.532
14059TIP3    H242114   1.963   0.698   0.452
14060TIP3   OH242115   2.808   0.651   1.023
14060TIP3    H142116   2.801   0.663   1.118
14060TIP3    H242117   2.732   0.597   1.000
14061TIP3   OH242118   1.885   0.691   0.292
14061TIP3    H142119   1.821   0.643   0.239
14061TIP3    H242120   1.938   0.738   0.229
14062TIP3   OH242121   1.904   1.455   1.698
14062TIP3    H142122   1.995   1.476   1.717
14062TIP3    H242123   1.887   1.377   1.752
14063TIP3   OH242124   2.400   0.945   0.938
14063TIP3    H142125   2.464   0.900   0.882
14063TIP3    H242126   2.412   0.905   1.024
14064TIP3   OH242127   1.953   0.310   0.782
14064TIP3    H142128   1.910   0.273   0.859
14064TIP3    H242129   2.047   0.303   0.801
14065TIP3   OH242130   2.394   0.869   1.223
14065TIP3    H142131   2.304   0.900   1.231
14065TIP3    H242132   2.447   0.945   1.247
14066TIP3   OH242133   2.100   1.209   0.326
14066TIP3    H142134   2.025   1.154   0.302
14066TIP3    H242135   2.075   1.249   0.409
14067TIP3   OH242136   2.944   1.479   0.871
14067TIP3    H142137   2.948   1.521   0.785
14067TIP3    H242138   2.865   1.425   0.867
14068TIP3   OH242139   2.570   0.522   0.233
14068TIP3    H142140   2.477   0.500   0.225
14068TIP3    H242141   2.571   0.617   0.240
14069TIP3   OH242142   2.557   1.460   1.282
14069TIP3    H142143   2.561   1.364   1.292
14069TIP3    H242144   2.488   1.487   1.342
14070TIP3   OH242145   2.626   0.790   0.295
14070TIP3    H142146   2.721   0.796   0.304
14070TIP3    H242147   2.602   0.867   0.243
14071TIP3   OH242148   1.793   1.225   0.976
14071TIP3    H142149   1.832   1.206   0.891
14071TIP3    H242150   1.857   1.192   1.040
14072TIP3   OH242151   2.258   1.372   0.175
14072TIP3    H142152   2.211   1.455   0.169
14072TIP3    H242153   2.199   1.314   0.224
14073TIP3   OH242154   1.683   1.176   1.596
14073TIP3    H142155   1.703   1.146   1.685
14073TIP3    H242156   1.605   1.126   1.571
14074TIP3   OH242157   2.315   1.281   1.615
14074TIP3    H142158   2.294   1.258   1.524
14074TIP3    H242159   2.405   1.253   1.627
14075TIP3   OH242160   2.658   1.850   1.196
14075TIP3    H142161   2.564   1.835   1.206
14075TIP3    H242162   2.698   1.772   1.234
14076TIP3   OH242163   3.039   0.892   0.115
14076TIP3    H142164   2.985   0.846   0.051
14076TIP3    H242165   3.047   0.981   0.080
14077TIP3   OH242166   3.338   1.772   1.293
14077TIP3    H142167   3.251   1.733   1.293
14077TIP3    H242168   3.373   1.753   1.205
14078TIP3   OH242169   2.774   1.670   0.033
14078TIP3    H142170   2.748   1.588   0.075
14078TIP3    H242171   2.800   1.644  -0.056
14079TIP3   OH242172   2.734   1.308   0.825
14079TIP3    H142173   2.653   1.272   0.863
14079TIP3    H242174   2.779   1.232   0.788
14080TIP3   OH242175   1.915   1.564   0.643
14080TIP3    H142176   1.912   1.639   0.584
14080TIP3    H242177   1.823   1.550   0.668
14081TIP3   OH242178   1.486   0.843   0.357
14081TIP3    H142179   1.526   0.928   0.376
14081TIP3    H242180   1.403   0.844   0.406
14082TIP3   OH242181   2.011   1.321   0.554
14082TIP3    H142182   1.988   1.410   0.581
14082TIP3    H242183   1.981   1.266   0.627
14083TIP3   OH242184   2.156   1.848   1.102
14083TIP3    H142185   2.196   1.933   1.083
14083TIP3    H242186   2.229   1.794   1.134
14084TIP3   OH242187   1.830   1.783   0.491
14084TIP3    H142188   1.742   1.789   0.529
14084TIP3    H242189   1.861   1.873   0.488
14085TIP3   OH242190   2.568   1.513   1.014
14085TIP3    H142191   2.564   1.498   1.109
14085TIP3    H242192   2.622   1.442   0.981
14086TIP3   OH242193   5.385   5.431   6.861
14086TIP3    H142194   5.426   5.413   6.946
14086TIP3    H242195   5.300   5.388   6.866
14087TIP3   OH242196   2.859   2.000   1.090
14087TIP3    H142197   2.786   1.952   1.130
14087TIP3    H242198   2.869   1.960   1.003
14088TIP3   OH242199   5.696   5.904   6.676
14088TIP3    H142200   5.732   5.973   6.621
14088TIP3    H242201   5.617   5.943   6.715
14089TIP3   OH242202   1.843   0.654   1.592
14089TIP3    H142203   1.763   0.695   1.626
14089TIP3    H242204   1.828   0.560   1.604
14090TIP3   OH242205   2.692   1.382   0.152
14090TIP3    H142206   2.708   1.297   0.195
14090TIP3    H242207   2.685   1.444   0.225
14091TIP3   OH242208   1.598   1.780   1.259
14091TIP3    H142209   1.664   1.722   1.296
14091TIP3    H242210   1.617   1.866   1.297
14092TIP3   OH242211   4.734   5.402   6.891
14092TIP3    H142212   4.743   5.311   6.863
14092TIP3    H242213   4.716   5.397   6.985
14093TIP3   OH242214   1.840   1.412   0.222
14093TIP3    H142215   1.906   1.387   0.286
14093TIP3    H242216   1.839   1.508   0.226
14094TIP3   OH242217   1.574   1.102   0.432
14094TIP3    H142218   1.508   1.149   0.484
14094TIP3    H242219   1.591   1.159   0.358
14095TIP3   OH242220   2.781   0.691   1.285
14095TIP3    H142221   2.759   0.776   1.323
14095TIP3    H242222   2.751   0.628   1.350
14096TIP3   OH242223   2.622   0.473   0.499
14096TIP3    H142224   2.602   0.487   0.407
14096TIP3    H242225   2.663   0.555   0.528
14097TIP3   OH242226   2.115   1.601   0.165
14097TIP3    H142227   2.029   1.624   0.201
14097TIP3    H242228   2.136   1.672   0.105
14098TIP3   OH242229   2.274   0.676   0.587
14098TIP3    H142230   2.336   0.743   0.558
14098TIP3    H242231   2.300   0.656   0.677
14099TIP3   OH242232   2.434   0.368   0.674
14099TIP3    H142233   2.415   0.444   0.729
14099TIP3    H242234   2.505   0.396   0.618
14100TIP3   OH242235   1.863   1.684   0.237
14100TIP3    H142236   1.842   1.757   0.177
14100TIP3    H242237   1.849   1.721   0.324
14101TIP3   OH242238   1.960   0.409   0.493
14101TIP3    H142239   1.955   0.504   0.498
14101TIP3    H242240   2.053   0.390   0.479
14102TIP3   OH242241   3.081   0.831   1.304
14102TIP3    H142242   2.996   0.873   1.294
14102TIP3    H242243   3.085   0.767   1.233
14103TIP3   OH242244   2.862   1.073   0.733
14103TIP3    H142245   2.794   1.034   0.788
14103TIP3    H242246   2.940   1.020   0.750
14104TIP3   OH242247   1.595   1.280   0.217
14104TIP3    H142248   1.666   1.344   0.224
14104TIP3    H242249   1.625   1.217   0.152
14105TIP3   OH242250   1.510   0.562   0.340
14105TIP3    H142251   1.509   0.657   0.338
14105TIP3    H242252   1.444   0.535   0.277
14106TIP3   OH242253   2.787   1.932   0.553
14106TIP3    H142254   2.731   1.998   0.512
14106TIP3    H242255   2.863   1.926   0.495
14107TIP3   OH242256   1.910   0.306   1.209
14107TIP3    H142257   1.879   0.257   1.133
14107TIP3    H242258   1.910   0.242   1.280
14108TIP3   OH242259   1.423   1.550   0.606
14108TIP3    H142260   1.377   1.584   0.682
14108TIP3    H242261   1.379   1.591   0.531
14109TIP3   OH242262   1.615   2.031   1.590
14109TIP3    H142263   1.686   1.977   1.626
14109TIP3    H242264   1.535   1.981   1.608
14110TIP3   OH242265   4.886   5.605   6.783
14110TIP3    H142266   4.838   5.534   6.826
14110TIP3    H242267   4.960   5.562   6.741
14111TIP3   OH242268   2.640   2.011   1.487
14111TIP3    H142269   2.689   1.930   1.497
14111TIP3    H242270   2.687   2.061   1.420
14112TIP3   OH242271   5.329   5.645   6.700
14112TIP3    H142272   5.365   5.579   6.758
14112TIP3    H242273   5.384   5.642   6.622
14113TIP3   OH242274   1.719   1.091   0.066
14113TIP3    H142275   1.770   1.066   0.143
14113TIP3    H242276   1.784   1.103  -0.004
14114TIP3   OH242277   2.173   1.500   1.693
14114TIP3    H142278   2.161   1.546   1.610
14114TIP3    H242279   2.226   1.423   1.671
14115TIP3   OH242280   5.133   5.319   6.849
14115TIP3    H142281   5.110   5.331   6.941
14115TIP3    H242282   5.113   5.227   6.830
14116TIP3   OH242283   2.777   1.619   1.296
14116TIP3    H142284   2.819   1.615   1.210
14116TIP3    H242285   2.707   1.553   1.290
14117TIP3   OH242286   1.898   1.210   1.831
14117TIP3    H142287   1.972   1.151   1.815
14117TIP3    H242288   1.848   1.167   1.900
14118TIP3   OH242289   1.893   1.032   0.278
14118TIP3    H142290   1.870   0.998   0.365
14118TIP3    H242291   1.942   0.960   0.237
14119TIP3   OH242292   2.139   1.045   1.497
14119TIP3    H142293   2.073   1.110   1.521
14119TIP3    H242294   2.203   1.094   1.446
14120TIP3   OH242295   2.039   0.849   0.128
14120TIP3    H142296   2.008   0.852   0.037
14120TIP3    H242297   2.134   0.854   0.121
14121TIP3   OH242298   5.673   5.148   6.751
14121TIP3    H142299   5.662   5.100   6.669
14121TIP3    H242300   5.648   5.238   6.730
14122TIP3   OH242301   2.316   0.894   1.648
14122TIP3    H142302   2.331   0.814   1.599
14122TIP3    H242303   2.257   0.946   1.592
14123TIP3   OH242304   2.327   0.687   1.450
14123TIP3    H142305   2.359   0.731   1.371
14123TIP3    H242306   2.237   0.663   1.430
14124TIP3   OH242307   2.298   1.205   1.353
14124TIP3    H142308   2.386   1.186   1.321
14124TIP3    H242309   2.260   1.263   1.287
14125TIP3   OH242310   2.953   1.450   1.458
14125TIP3    H142311   2.902   1.458   1.378
14125TIP3    H242312   3.043   1.441   1.428
14126TIP3   OH242313   2.092   1.012   1.807
14126TIP3    H142314   2.073   0.931   1.854
14126TIP3    H242315   2.176   0.995   1.764
14127TIP3   OH242316   2.442   0.448   1.548
14127TIP3    H142317   2.399   0.529   1.522
14127TIP3    H242318   2.375   0.380   1.537
14128TIP3   OH242319   2.557   0.986   1.759
14128TIP3    H142320   2.550   0.994   1.855
14128TIP3    H242321   2.474   0.946   1.733
14129TIP3   OH242322   2.838   0.712   1.625
14129TIP3    H142323   2.793   0.787   1.586
14129TIP3    H242324   2.883   0.748   1.702
14130TIP3   OH242325   2.068   0.758   1.911
14130TIP3    H142326   2.074   0.692   1.842
14130TIP3    H242327   2.100   0.712   1.989
14131TIP3   OH242328   2.550   0.386   1.798
14131TIP3    H142329   2.627   0.335   1.773
14131TIP3    H242330   2.509   0.410   1.716
14132TIP3   OH242331   1.860   1.897   0.059
14132TIP3    H142332   1.949   1.876   0.030
14132TIP3    H242333   1.820   1.940  -0.017
14133TIP3   OH242334   1.322   1.278   0.242
14133TIP3    H142335   1.416   1.289   0.235
14133TIP3    H242336   1.304   1.194   0.200
14134TIP3   OH242337   1.213   1.862   0.691
14134TIP3    H142338   1.151   1.806   0.643
14134TIP3    H242339   1.262   1.802   0.746
14135TIP3   OH242340   1.365   1.701   0.852
14135TIP3    H142341   1.363   1.633   0.920
14135TIP3    H242342   1.417   1.772   0.891
14136TIP3   OH242343   3.042   2.053   0.630
14136TIP3    H142344   3.012   2.137   0.664
14136TIP3    H242345   3.088   2.075   0.549
14137TIP3   OH242346   3.079   2.129   0.995
14137TIP3    H142347   3.007   2.087   1.043
14137TIP3    H242348   3.138   2.160   1.064
14138TIP3   OH242349   3.114   1.509   0.639
14138TIP3    H142350   3.170   1.518   0.716
14138TIP3    H242351   3.092   1.599   0.614
14139TIP3   OH242352   3.120   1.823   1.019
14139TIP3    H142353   3.128   1.894   1.083
14139TIP3    H242354   3.065   1.860   0.949
14140TIP3   OH242355   5.881   5.147   6.931
14140TIP3    H142356   5.808   5.143   6.869
14140TIP3    H242357   5.880   5.237   6.963
14141TIP3   OH242358   5.724   4.783   6.859
14141TIP3    H142359   5.681   4.815   6.779
14141TIP3    H242360   5.715   4.688   6.855
14142TIP3   OH242361   2.952   1.087   0.475
14142TIP3    H142362   2.948   0.997   0.444
14142TIP3    H242363   2.909   1.085   0.560
14143TIP3   OH242364   1.535   1.101   1.241
14143TIP3    H142365   1.529   1.079   1.148
14143TIP3    H242366   1.629   1.103   1.259
14144TIP3   OH242367   3.209   1.460   1.363
14144TIP3    H142368   3.296   1.423   1.352
14144TIP3    H242369   3.190   1.503   1.280
14145TIP3   OH242370   3.415   1.275   1.334
14145TIP3    H142371   3.371   1.256   1.417
14145TIP3    H242372   3.501   1.235   1.343
14146TIP3   OH242373   5.684   4.514   6.844
14146TIP3    H142374   5.751   4.479   6.902
14146TIP3    H242375   5.604   4.467   6.868
14147TIP3   OH242376   2.921   0.797   0.356
14147TIP3    H142377   2.963   0.712   0.372
14147TIP3    H242378   2.958   0.827   0.273
14148TIP3   OH242379   3.058   0.897   0.813
14148TIP3    H142380   3.145   0.923   0.782
14148TIP3    H242381   3.052   0.934   0.901
14149TIP3   OH242382   3.032   1.052   1.037
14149TIP3    H142383   2.938   1.038   1.049
14149TIP3    H242384   3.038   1.130   0.981
14150TIP3   OH242385   3.027   0.541   0.413
14150TIP3    H142386   3.070   0.525   0.496
14150TIP3    H242387   2.965   0.469   0.403
14151TIP3   OH242388   1.746   0.525   1.217
14151TIP3    H142389   1.802   0.447   1.223
14151TIP3    H242390   1.807   0.598   1.211
14152TIP3   OH242391   1.527   0.795   1.302
14152TIP3    H142392   1.578   0.784   1.222
14152TIP3    H242393   1.530   0.889   1.320
14153TIP3   OH242394   3.404   0.753   1.463
14153TIP3    H142395   3.372   0.835   1.426
14153TIP3    H242396   3.381   0.686   1.400
14154TIP3   OH242397   3.085   0.450   0.050
14154TIP3    H142398   3.130   0.389  -0.009
14154TIP3    H242399   3.138   0.529   0.048
14155TIP3   OH242400   1.550   0.366   0.823
14155TIP3    H142401   1.479   0.310   0.855
14155TIP3    H242402   1.525   0.389   0.734
14156TIP3   OH242403   2.644   1.967   0.280
14156TIP3    H142404   2.715   1.960   0.216
14156TIP3    H242405   2.662   2.048   0.328
14157TIP3   OH242406   1.725   0.398   1.614
14157TIP3    H142407   1.664   0.359   1.677
14157TIP3    H242408   1.669   0.437   1.548
14158TIP3   OH242409   1.746   1.814   1.720
14158TIP3    H142410   1.655   1.783   1.714
14158TIP3    H242411   1.788   1.750   1.778
14159TIP3   OH242412   1.912   1.794   1.209
14159TIP3    H142413   1.863   1.870   1.177
14159TIP3    H242414   2.000   1.805   1.173
14160TIP3   OH242415   2.364   2.030   1.361
14160TIP3    H142416   2.399   2.062   1.444
14160TIP3    H242417   2.409   2.081   1.294
14161TIP3   OH242418   2.505   2.184   1.188
14161TIP3    H142419   2.546   2.139   1.115
14161TIP3    H242420   2.574   2.239   1.225
14162TIP3   OH242421   3.351   0.550   1.280
14162TIP3    H142422   3.264   0.512   1.267
14162TIP3    H242423   3.390   0.498   1.350
14163TIP3   OH242424   1.611   2.065   1.308
14163TIP3    H142425   1.524   2.102   1.290
14163TIP3    H242426   1.617   2.063   1.403
14164TIP3   OH242427   1.809   2.031   1.117
14164TIP3    H142428   1.736   2.050   1.176
14164TIP3    H242429   1.781   2.064   1.032
14165TIP3   OH242430   2.298   2.052   0.791
14165TIP3    H142431   2.204   2.055   0.772
14165TIP3    H242432   2.303   2.051   0.887
14166TIP3   OH242433   2.585   2.050   0.963
14166TIP3    H142434   2.556   1.959   0.956
14166TIP3    H242435   2.637   2.066   0.884
14167TIP3   OH242436   2.730   2.126   0.743
14167TIP3    H142437   2.656   2.159   0.693
14167TIP3    H242438   2.759   2.048   0.696
14168TIP3   OH242439   1.533   1.873   1.008
14168TIP3    H142440   1.550   1.839   1.096
14168TIP3    H242441   1.604   1.837   0.955
14169TIP3   OH242442   1.735   1.752   0.872
14169TIP3    H142443   1.747   1.668   0.917
14169TIP3    H242444   1.822   1.790   0.869
14170TIP3   OH242445   2.003   1.830   0.872
14170TIP3    H142446   2.024   1.739   0.851
14170TIP3    H242447   2.050   1.847   0.954
14171TIP3   OH242448   2.573   0.483   0.971
14171TIP3    H142449   2.527   0.414   1.018
14171TIP3    H242450   2.641   0.437   0.921
14172TIP3   OH242451   3.077   0.413   0.867
14172TIP3    H142452   3.113   0.460   0.792
14172TIP3    H242453   2.983   0.429   0.862
14173TIP3   OH242454   3.194   0.490   0.632
14173TIP3    H142455   3.264   0.433   0.601
14173TIP3    H242456   3.225   0.579   0.613
14174TIP3   OH242457   1.827   0.178   0.978
14174TIP3    H142458   1.734   0.157   0.977
14174TIP3    H242459   1.870   0.093   0.986
14175TIP3   OH242460   2.236   0.264   0.862
14175TIP3    H142461   2.300   0.286   0.794
14175TIP3    H242462   2.283   0.276   0.945
14176TIP3   OH242463   2.790   0.363   0.847
14176TIP3    H142464   2.810   0.326   0.761
14176TIP3    H242465   2.797   0.289   0.908
14177TIP3   OH242466   2.847   0.327   0.416
14177TIP3    H142467   2.766   0.372   0.440
14177TIP3    H242468   2.838   0.239   0.453
14178TIP3   OH242469   1.305   1.674   0.391
14178TIP3    H142470   1.222   1.642   0.355
14178TIP3    H242471   1.311   1.765   0.361
14179TIP3   OH242472   2.230   0.425   0.487
14179TIP3    H142473   2.294   0.373   0.537
14179TIP3    H242474   2.247   0.515   0.515
14180TIP3   OH242475   4.948   5.827   6.929
14180TIP3    H142476   5.030   5.856   6.888
14180TIP3    H242477   4.916   5.757   6.872
14181TIP3   OH242478   2.813   1.938   0.064
14181TIP3    H142479   2.802   1.843   0.058
14181TIP3    H242480   2.767   1.972  -0.012
14182TIP3   OH242481   1.421   1.663   0.043
14182TIP3    H142482   1.421   1.671   0.138
14182TIP3    H242483   1.502   1.616   0.022
14183TIP3   OH242484   4.297   1.381   0.030
14183TIP3    H142485   4.250   1.440   0.089
14183TIP3    H242486   4.238   1.369  -0.044
14184TIP3   OH242487   4.225   1.422   0.424
14184TIP3    H142488   4.248   1.408   0.515
14184TIP3    H242489   4.302   1.395   0.375
14185TIP3   OH242490   3.533   1.357   0.768
14185TIP3    H142491   3.617   1.313   0.782
14185TIP3    H242492   3.550   1.449   0.790
14186TIP3   OH242493   3.556   1.870   0.584
14186TIP3    H142494   3.522   1.781   0.570
14186TIP3    H242495   3.649   1.857   0.600
14187TIP3   OH242496   3.259   0.947   0.281
14187TIP3    H142497   3.225   0.960   0.370
14187TIP3    H242498   3.181   0.933   0.228
14188TIP3   OH242499   4.136   1.678   0.400
14188TIP3    H142500   4.179   1.598   0.368
14188TIP3    H242501   4.155   1.680   0.494
14189TIP3   OH242502   4.603   1.194   0.472
14189TIP3    H142503   4.560   1.133   0.532
14189TIP3    H242504   4.531   1.244   0.433
14190TIP3   OH242505   4.595   0.918   0.036
14190TIP3    H142506   4.666   0.900   0.098
14190TIP3    H242507   4.638   0.955  -0.041
14191TIP3   OH242508   3.448   1.021   0.525
14191TIP3    H142509   3.525   1.063   0.563
14191TIP3    H242510   3.476   0.994   0.437
14192TIP3   OH242511   3.954   1.233   0.264
14192TIP3    H142512   4.030   1.226   0.322
14192TIP3    H242513   3.903   1.154   0.283
14193TIP3   OH242514   3.666   0.906   0.886
14193TIP3    H142515   3.691   0.815   0.899
14193TIP3    H242516   3.705   0.952   0.961
14194TIP3   OH242517   6.943   5.666   6.837
14194TIP3    H142518   6.927   5.673   6.743
14194TIP3    H242519   6.925   5.754   6.871
14195TIP3   OH242520   4.779   0.906   0.233
14195TIP3    H142521   4.721   0.890   0.307
14195TIP3    H242522   4.847   0.964   0.267
14196TIP3   OH242523   3.794   0.878   0.529
14196TIP3    H142524   3.765   0.949   0.586
14196TIP3    H242525   3.805   0.919   0.443
14197TIP3   OH242526   3.173   1.497   0.017
14197TIP3    H142527   3.133   1.517  -0.068
14197TIP3    H242528   3.188   1.583   0.057
14198TIP3   OH242529   4.244   0.489   0.517
14198TIP3    H142530   4.227   0.395   0.520
14198TIP3    H242531   4.213   0.522   0.602
14199TIP3   OH242532   7.270   5.864   6.679
14199TIP3    H142533   7.289   5.773   6.656
14199TIP3    H242534   7.185   5.860   6.723
14200TIP3   OH242535   6.960   5.340   6.766
14200TIP3    H142536   6.882   5.390   6.743
14200TIP3    H242537   7.008   5.331   6.684
14201TIP3   OH242538   6.925   5.114   6.504
14201TIP3    H142539   6.952   5.096   6.593
14201TIP3    H242540   6.989   5.069   6.449
14202TIP3   OH242541   7.328   5.423   6.782
14202TIP3    H142542   7.275   5.399   6.858
14202TIP3    H242543   7.414   5.383   6.799
14203TIP3   OH242544   3.696   1.343   0.199
14203TIP3    H142545   3.657   1.294   0.126
14203TIP3    H242546   3.779   1.298   0.216
14204TIP3   OH242547   3.903   1.804   0.351
14204TIP3    H142548   3.834   1.745   0.323
14204TIP3    H242549   3.978   1.747   0.368
14205TIP3   OH242550   4.017   1.422   0.611
14205TIP3    H142551   4.047   1.437   0.522
14205TIP3    H242552   4.042   1.501   0.659
14206TIP3   OH242553   7.177   5.280   6.597
14206TIP3    H142554   7.236   5.344   6.635
14206TIP3    H242555   7.194   5.284   6.503
14207TIP3   OH242556   6.986   5.932   6.752
14207TIP3    H142557   7.024   5.978   6.828
14207TIP3    H242558   6.894   5.958   6.752
14208TIP3   OH242559   7.668   4.510   6.657
14208TIP3    H142560   7.592   4.529   6.711
14208TIP3    H242561   7.678   4.587   6.601
14209TIP3   OH242562   6.417   5.206   6.936
14209TIP3    H142563   6.339   5.256   6.912
14209TIP3    H242564   6.392   5.114   6.923
14210TIP3   OH242565   7.486   5.886   6.210
14210TIP3    H142566   7.480   5.980   6.193
14210TIP3    H242567   7.574   5.862   6.178
14211TIP3   OH242568   3.414   1.750   1.037
14211TIP3    H142569   3.353   1.760   0.963
14211TIP3    H242570   3.492   1.710   0.998
14212TIP3   OH242571   3.100   1.778   0.641
14212TIP3    H142572   3.190   1.780   0.673
14212TIP3    H242573   3.082   1.868   0.614
14213TIP3   OH242574   6.801   6.183   6.679
14213TIP3    H142575   6.759   6.157   6.597
14213TIP3    H242576   6.777   6.275   6.690
14214TIP3   OH242577   3.272   2.029   0.129
14214TIP3    H142578   3.363   2.042   0.105
14214TIP3    H242579   3.261   1.934   0.133
14215TIP3   OH242580   6.992   6.102   6.301
14215TIP3    H142581   7.043   6.030   6.264
14215TIP3    H242582   7.035   6.122   6.384
14216TIP3   OH242583   7.052   6.142   6.569
14216TIP3    H142584   6.970   6.155   6.618
14216TIP3    H242585   7.091   6.064   6.608
14217TIP3   OH242586   4.442   0.858   1.039
14217TIP3    H142587   4.482   0.923   0.982
14217TIP3    H242588   4.475   0.774   1.006
14218TIP3   OH242589   7.241   5.278   6.333
14218TIP3    H142590   7.191   5.276   6.252
14218TIP3    H242591   7.324   5.320   6.309
14219TIP3   OH242592   6.943   4.685   6.652
14219TIP3    H142593   6.909   4.690   6.741
14219TIP3    H242594   6.909   4.602   6.618
14220TIP3   OH242595   3.932   1.053   0.806
14220TIP3    H142596   3.958   1.131   0.854
14220TIP3    H242597   3.925   1.082   0.715
14221TIP3   OH242598   3.782   1.013   0.286
14221TIP3    H142599   3.687   1.000   0.297
14221TIP3    H242600   3.800   0.976   0.200
14222TIP3   OH242601   7.005   5.063   6.770
14222TIP3    H142602   6.989   5.154   6.794
14222TIP3    H242603   7.100   5.055   6.769
14223TIP3   OH242604   4.470   1.103   0.190
14223TIP3    H142605   4.378   1.099   0.164
14223TIP3    H242606   4.510   1.027   0.147
14224TIP3   OH242607   3.701   1.224   0.977
14224TIP3    H142608   3.759   1.300   0.979
14224TIP3    H242609   3.752   1.153   1.016
14225TIP3   OH242610   6.613   4.668   6.625
14225TIP3    H142611   6.604   4.665   6.720
14225TIP3    H242612   6.534   4.711   6.594
14226TIP3   OH242613   3.295   0.722   0.530
14226TIP3    H142614   3.384   0.751   0.553
14226TIP3    H242615   3.305   0.683   0.443
14227TIP3   OH242616   3.231   0.688   0.061
14227TIP3    H142617   3.274   0.719  -0.019
14227TIP3    H242618   3.169   0.758   0.083
14228TIP3   OH242619   4.139   0.862   0.302
14228TIP3    H142620   4.106   0.878   0.390
14228TIP3    H242621   4.215   0.806   0.316
14229TIP3   OH242622   3.526   0.907   0.284
14229TIP3    H142623   3.432   0.920   0.271
14229TIP3    H242624   3.552   0.845   0.216
14230TIP3   OH242625   3.767   0.906   0.031
14230TIP3    H142626   3.861   0.916   0.023
14230TIP3    H242627   3.732   0.932  -0.054
14231TIP3   OH242628   4.628   0.844   0.446
14231TIP3    H142629   4.559   0.887   0.496
14231TIP3    H242630   4.586   0.768   0.406
14232TIP3   OH242631   6.493   4.962   6.724
14232TIP3    H142632   6.437   4.906   6.671
14232TIP3    H242633   6.554   5.001   6.662
14233TIP3   OH242634   4.200   1.124   0.412
14233TIP3    H142635   4.263   1.074   0.360
14233TIP3    H242636   4.236   1.122   0.501
14234TIP3   OH242637   4.216   1.114   0.683
14234TIP3    H142638   4.158   1.135   0.756
14234TIP3    H242639   4.285   1.179   0.688
14235TIP3   OH242640   6.710   5.481   6.727
14235TIP3    H142641   6.642   5.416   6.707
14235TIP3    H242642   6.691   5.509   6.817
14236TIP3   OH242643   7.194   4.790   6.633
14236TIP3    H142644   7.100   4.771   6.639
14236TIP3    H242645   7.201   4.884   6.649
14237TIP3   OH242646   7.275   5.045   6.706
14237TIP3    H142647   7.370   5.043   6.713
14237TIP3    H242648   7.255   5.126   6.660
14238TIP3   OH242649   3.527   1.354   0.424
14238TIP3    H142650   3.564   1.343   0.336
14238TIP3    H242651   3.599   1.389   0.476
14239TIP3   OH242652   6.866   5.634   6.568
14239TIP3    H142653   6.823   5.719   6.570
14239TIP3    H242654   6.808   5.576   6.616
14240TIP3   OH242655   3.387   1.409   1.092
14240TIP3    H142656   3.418   1.384   1.180
14240TIP3    H242657   3.388   1.328   1.042
14241TIP3   OH242658   7.683   5.132   6.528
14241TIP3    H142659   7.625   5.085   6.467
14241TIP3    H242660   7.686   5.222   6.493
14242TIP3   OH242661   7.367   5.990   6.453
14242TIP3    H142662   7.330   5.938   6.524
14242TIP3    H242663   7.390   5.926   6.386
14243TIP3   OH242664   3.771   1.869   0.043
14243TIP3    H142665   3.806   1.956   0.022
14243TIP3    H242666   3.676   1.881   0.043
14244TIP3   OH242667   6.108   5.107   6.774
14244TIP3    H142668   6.151   5.191   6.788
14244TIP3    H242669   6.030   5.111   6.829
14245TIP3   OH242670   3.801   1.557   0.038
14245TIP3    H142671   3.805   1.648   0.068
14245TIP3    H242672   3.764   1.509   0.113
14246TIP3   OH242673   6.473   6.138   6.821
14246TIP3    H142674   6.415   6.133   6.897
14246TIP3    H242675   6.495   6.231   6.812
14247TIP3   OH242676   7.174   5.690   6.362
14247TIP3    H142677   7.212   5.660   6.445
14247TIP3    H242678   7.089   5.645   6.357
14248TIP3   OH242679   7.471   6.152   6.153
14248TIP3    H142680   7.482   6.210   6.077
14248TIP3    H242681   7.403   6.195   6.205
14249TIP3   OH242682   3.584   0.803   1.205
14249TIP3    H142683   3.508   0.858   1.185
14249TIP3    H242684   3.659   0.857   1.180
14250TIP3   OH242685   7.326   5.609   6.581
14250TIP3    H142686   7.325   5.543   6.651
14250TIP3    H242687   7.418   5.611   6.553
14251TIP3   OH242688   3.580   2.072   0.793
14251TIP3    H142689   3.578   1.983   0.755
14251TIP3    H242690   3.553   2.060   0.884
14252TIP3   OH242691   6.530   5.657   6.377
14252TIP3    H142692   6.540   5.566   6.347
14252TIP3    H242693   6.509   5.649   6.469
14253TIP3   OH242694   6.469   5.671   6.650
14253TIP3    H142695   6.553   5.653   6.693
14253TIP3    H242696   6.462   5.766   6.650
14254TIP3   OH242697   6.206   5.355   6.847
14254TIP3    H142698   6.144   5.398   6.905
14254TIP3    H242699   6.224   5.420   6.779
14255TIP3   OH242700   7.256   4.729   6.894
14255TIP3    H142701   7.236   4.750   6.803
14255TIP3    H242702   7.306   4.805   6.925
14256TIP3   OH242703   6.727   5.866   6.593
14256TIP3    H142704   6.637   5.888   6.615
14256TIP3    H242705   6.754   5.933   6.531
14257TIP3   OH242706   4.038   0.921   0.051
14257TIP3    H142707   4.097   0.975  -0.002
14257TIP3    H242708   4.081   0.913   0.136
14258TIP3   OH242709   4.244   0.597   0.116
14258TIP3    H142710   4.263   0.635   0.201
14258TIP3    H242711   4.307   0.639   0.057
14259TIP3   OH242712   6.466   5.943   6.638
14259TIP3    H142713   6.446   5.997   6.561
14259TIP3    H242714   6.474   6.006   6.709
14260TIP3   OH242715   6.579   4.646   6.898
14260TIP3    H142716   6.570   4.734   6.936
14260TIP3    H242717   6.672   4.626   6.909
14261TIP3   OH242718   4.701   1.262   0.175
14261TIP3    H142719   4.628   1.201   0.188
14261TIP3    H242720   4.682   1.335   0.235
14262TIP3   OH242721   6.222   5.544   6.641
14262TIP3    H142722   6.294   5.606   6.655
14262TIP3    H242723   6.254   5.483   6.574
14263TIP3   OH242724   6.133   4.831   6.776
14263TIP3    H142725   6.141   4.926   6.777
14263TIP3    H242726   6.085   4.811   6.695
14264TIP3   OH242727   3.751   0.535   0.707
14264TIP3    H142728   3.706   0.469   0.759
14264TIP3    H242729   3.840   0.536   0.741
14265TIP3   OH242730   3.169   1.770   0.084
14265TIP3    H142731   3.094   1.785   0.142
14265TIP3    H242732   3.149   1.821   0.005
14266TIP3   OH242733   6.676   5.863   6.264
14266TIP3    H142734   6.631   5.789   6.305
14266TIP3    H242735   6.750   5.823   6.218
14267TIP3   OH242736   7.125   5.895   6.184
14267TIP3    H142737   7.160   5.832   6.247
14267TIP3    H242738   7.185   5.891   6.110
14268TIP3   OH242739   6.349   5.358   6.488
14268TIP3    H142740   6.400   5.331   6.564
14268TIP3    H242741   6.413   5.370   6.418
14269TIP3   OH242742   6.927   5.568   6.312
14269TIP3    H142743   6.897   5.584   6.401
14269TIP3    H242744   6.912   5.475   6.297
14270TIP3   OH242745   6.522   5.287   6.692
14270TIP3    H142746   6.497   5.251   6.776
14270TIP3    H242747   6.568   5.215   6.648
14271TIP3   OH242748   3.953   1.467   0.950
14271TIP3    H142749   3.952   1.524   1.027
14271TIP3    H242750   3.945   1.527   0.876
14272TIP3   OH242751   6.653   5.097   6.544
14272TIP3    H142752   6.624   5.103   6.453
14272TIP3    H242753   6.749   5.099   6.540
14273TIP3   OH242754   7.461   5.397   6.216
14273TIP3    H142755   7.446   5.357   6.130
14273TIP3    H242756   7.437   5.489   6.204
14274TIP3   OH242757   2.011   0.233   3.193
14274TIP3    H142758   2.099   0.207   3.168
14274TIP3    H242759   1.978   0.283   3.118
14275TIP3   OH242760   4.190   0.949   0.925
14275TIP3    H142761   4.265   1.009   0.923
14275TIP3    H242762   4.114   1.006   0.917
14276TIP3   OH242763   4.192   0.690   1.011
14276TIP3    H142764   4.178   0.763   0.950
14276TIP3    H242765   4.113   0.637   1.001
14277TIP3   OH242766   3.920   1.021   1.381
14277TIP3    H142767   3.927   0.948   1.442
14277TIP3    H242768   3.976   1.089   1.419
14278TIP3   OH242769   4.357   0.686   1.257
14278TIP3    H142770   4.387   0.678   1.348
14278TIP3    H242771   4.343   0.596   1.228
14279TIP3   OH242772   6.474   6.145   6.450
14279TIP3    H142773   6.568   6.137   6.436
14279TIP3    H242774   6.442   6.192   6.373
14280TIP3   OH242775   5.950   5.530   6.676
14280TIP3    H142776   6.044   5.546   6.668
14280TIP3    H242777   5.935   5.447   6.631
14281TIP3   OH242778   3.015   2.111   0.128
14281TIP3    H142779   2.960   2.038   0.097
14281TIP3    H242780   3.103   2.076   0.128
14282TIP3   OH242781   3.030   1.907   0.359
14282TIP3    H142782   3.100   1.844   0.374
14282TIP3    H242783   3.074   1.992   0.354
14283TIP3   OH242784   7.597   5.588   6.552
14283TIP3    H142785   7.651   5.655   6.511
14283TIP3    H242786   7.649   5.559   6.627
14284TIP3   OH242787   7.734   5.479   6.768
14284TIP3    H142788   7.679   5.401   6.775
14284TIP3    H242789   7.718   5.527   6.849
14285TIP3   OH242790   7.660   5.370   6.399
14285TIP3    H142791   7.595   5.367   6.330
14285TIP3    H242792   7.635   5.446   6.452
14286TIP3   OH242793   7.517   5.028   6.340
14286TIP3    H142794   7.468   5.061   6.264
14286TIP3    H242795   7.510   4.932   6.333
14287TIP3   OH242796   7.558   5.284   6.843
14287TIP3    H142797   7.563   5.191   6.820
14287TIP3    H242798   7.561   5.284   6.939
14288TIP3   OH242799   3.312   1.294   0.600
14288TIP3    H142800   3.373   1.282   0.527
14288TIP3    H242801   3.367   1.328   0.671
14289TIP3   OH242802   7.482   4.758   6.316
14289TIP3    H142803   7.546   4.729   6.381
14289TIP3    H242804   7.400   4.716   6.343
14290TIP3   OH242805   7.563   5.022   6.752
14290TIP3    H142806   7.609   4.941   6.773
14290TIP3    H242807   7.608   5.055   6.674
14291TIP3   OH242808   3.629   1.089   1.389
14291TIP3    H142809   3.712   1.136   1.394
14291TIP3    H242810   3.648   1.002   1.423
14292TIP3   OH242811   7.673   4.784   6.840
14292TIP3    H142812   7.721   4.775   6.922
14292TIP3    H242813   7.610   4.713   6.841
14293TIP3   OH242814   3.550   0.762   0.646
14293TIP3    H142815   3.532   0.759   0.740
14293TIP3    H242816   3.567   0.855   0.628
14294TIP3   OH242817   3.295   1.001   0.745
14294TIP3    H142818   3.344   0.997   0.663
14294TIP3    H242819   3.267   1.093   0.751
14295TIP3   OH242820   7.710   4.711   6.475
14295TIP3    H142821   7.754   4.648   6.418
14295TIP3    H242822   7.769   4.787   6.477
14296TIP3   OH242823   3.296   0.569   0.296
14296TIP3    H142824   3.209   0.536   0.321
14296TIP3    H242825   3.281   0.615   0.213
14297TIP3   OH242826   3.470   0.550   1.033
14297TIP3    H142827   3.435   0.558   1.121
14297TIP3    H242828   3.418   0.611   0.980
14298TIP3   OH242829   3.424   2.117   0.561
14298TIP3    H142830   3.450   2.146   0.649
14298TIP3    H242831   3.440   2.022   0.562
14299TIP3   OH242832   3.509   1.905   0.315
14299TIP3    H142833   3.539   1.923   0.404
14299TIP3    H242834   3.545   1.977   0.262
14300TIP3   OH242835   3.777   2.047   0.332
14300TIP3    H142836   3.833   1.970   0.322
14300TIP3    H242837   3.796   2.079   0.420
14301TIP3   OH242838   4.340   0.688   0.357
14301TIP3    H142839   4.307   0.622   0.417
14301TIP3    H242840   4.427   0.656   0.332
14302TIP3   OH242841   4.893   0.648   0.333
14302TIP3    H142842   4.934   0.697   0.263
14302TIP3    H242843   4.811   0.695   0.351
14303TIP3   OH242844   5.019   0.741   0.111
14303TIP3    H142845   5.083   0.679   0.077
14303TIP3    H242846   5.057   0.827   0.095
14304TIP3   OH242847   3.608   0.485   0.458
14304TIP3    H142848   3.519   0.450   0.457
14304TIP3    H242849   3.664   0.408   0.444
14305TIP3   OH242850   3.433   0.368   0.121
14305TIP3    H142851   3.461   0.409   0.040
14305TIP3    H242852   3.401   0.440   0.176
14306TIP3   OH242853   4.591   0.603   0.293
14306TIP3    H142854   4.636   0.574   0.214
14306TIP3    H242855   4.602   0.530   0.355
14307TIP3   OH242856   7.482   4.580   6.846
14307TIP3    H142857   7.400   4.627   6.859
14307TIP3    H242858   7.468   4.494   6.884
14308TIP3   OH242859   5.938   5.930   6.806
14308TIP3    H142860   5.855   5.894   6.777
14308TIP3    H242861   5.942   6.018   6.768
14309TIP3   OH242862   6.370   4.486   6.818
14309TIP3    H142863   6.414   4.422   6.762
14309TIP3    H242864   6.441   4.541   6.852
14310TIP3   OH242865   6.852   4.668   6.914
14310TIP3    H142866   6.920   4.623   6.963
14310TIP3    H242867   6.858   4.760   6.942
14311TIP3   OH242868   6.742   6.082   6.413
14311TIP3    H142869   6.826   6.108   6.374
14311TIP3    H242870   6.708   6.014   6.355
14312TIP3   OH242871   7.471   6.237   6.495
14312TIP3    H142872   7.438   6.147   6.493
14312TIP3    H242873   7.441   6.275   6.413
14313TIP3   OH242874   3.925   0.752   1.491
14313TIP3    H142875   3.837   0.774   1.521
14313TIP3    H242876   3.916   0.740   1.396
14314TIP3   OH242877   4.197   0.857   1.427
14314TIP3    H142878   4.193   0.764   1.447
14314TIP3    H242879   4.181   0.900   1.511
14315TIP3   OH242880   6.050   5.923   6.468
14315TIP3    H142881   6.051   5.937   6.562
14315TIP3    H242882   6.133   5.877   6.450
14316TIP3   OH242883   7.908   5.247   6.689
14316TIP3    H142884   7.868   5.332   6.709
14316TIP3    H242885   7.841   5.201   6.639
14317TIP3   OH242886   7.754   5.772   6.423
14317TIP3    H142887   7.727   5.782   6.332
14317TIP3    H242888   7.777   5.861   6.451
14318TIP3   OH242889   0.286   4.890   6.146
14318TIP3    H142890   0.263   4.915   6.235
14318TIP3    H242891   0.214   4.833   6.117
14319TIP3   OH242892   8.408   4.936   6.114
14319TIP3    H142893   8.400   4.927   6.209
14319TIP3    H242894   8.326   4.977   6.087
14320TIP3   OH242895   7.975   4.966   6.951
14320TIP3    H142896   8.031   5.042   6.935
14320TIP3    H242897   7.978   4.916   6.869
14321TIP3   OH242898   7.873   4.936   6.484
14321TIP3    H142899   7.925   4.966   6.410
14321TIP3    H242900   7.813   5.008   6.503
14322TIP3   OH242901   8.132   5.163   6.838
14322TIP3    H142902   8.066   5.190   6.774
14322TIP3    H242903   8.187   5.100   6.791
14323TIP3   OH242904   8.467   5.147   6.428
14323TIP3    H142905   8.481   5.226   6.479
14323TIP3    H242906   8.408   5.174   6.357
14324TIP3   OH242907   8.302   5.215   6.217
14324TIP3    H142908   8.232   5.167   6.172
14324TIP3    H242909   8.357   5.248   6.146
14325TIP3   OH242910   8.272   4.952   6.720
14325TIP3    H142911   8.263   4.874   6.774
14325TIP3    H242912   8.306   4.920   6.636
14326TIP3   OH242913   7.895   5.351   6.255
14326TIP3    H142914   7.936   5.436   6.270
14326TIP3    H242915   7.815   5.352   6.308
14327TIP3   OH242916   8.354   5.901   5.774
14327TIP3    H142917   8.340   5.807   5.768
14327TIP3    H242918   8.414   5.913   5.848
14328TIP3   OH242919   7.960   5.613   6.312
14328TIP3    H142920   7.893   5.659   6.363
14328TIP3    H242921   7.993   5.679   6.251
14329TIP3   OH242922   8.388   4.886   6.388
14329TIP3    H142923   8.408   4.976   6.413
14329TIP3    H242924   8.472   4.840   6.394
14330TIP3   OH242925   8.007   5.820   6.121
14330TIP3    H142926   8.053   5.903   6.111
14330TIP3    H242927   8.051   5.761   6.060
14331TIP3   OH242928   7.945   5.078   6.260
14331TIP3    H142929   7.946   5.173   6.266
14331TIP3    H242930   7.889   5.059   6.185
14332TIP3   OH242931   8.144   5.642   5.966
14332TIP3    H142932   8.185   5.597   6.041
14332TIP3    H242933   8.212   5.643   5.899
14333TIP3   OH242934   8.284   5.513   6.161
14333TIP3    H142935   8.255   5.459   6.234
14333TIP3    H242936   8.354   5.462   6.119
14334TIP3   OH242937   8.455   5.341   6.023
14334TIP3    H142938   8.417   5.344   5.936
14334TIP3    H242939   8.549   5.340   6.008
14335TIP3   OH242940   7.735   5.785   6.142
14335TIP3    H142941   7.828   5.804   6.131
14335TIP3    H242942   7.722   5.704   6.093
14336TIP3   OH242943   7.929   4.811   6.720
14336TIP3    H142944   7.840   4.792   6.750
14336TIP3    H242945   7.917   4.863   6.640
14337TIP3   OH242946   8.246   4.708   6.850
14337TIP3    H142947   8.158   4.680   6.873
14337TIP3    H242948   8.301   4.632   6.866
14338TIP3   OH242949   8.049   4.623   6.543
14338TIP3    H142950   8.077   4.674   6.467
14338TIP3    H242951   8.022   4.689   6.607
14339TIP3   OH242952   8.158   4.751   6.306
14339TIP3    H142953   8.200   4.683   6.254
14339TIP3    H242954   8.230   4.802   6.343
14340TIP3   OH242955   0.181   4.925   6.396
14340TIP3    H142956   0.233   4.879   6.462
14340TIP3    H242957   0.145   5.001   6.443
14341TIP3   OH242958   7.788   6.123   5.967
14341TIP3    H142959   7.795   6.185   6.040
14341TIP3    H242960   7.876   6.119   5.931
14342TIP3   OH242961   7.842   2.111   1.515
14342TIP3    H142962   7.868   2.144   1.601
14342TIP3    H242963   7.924   2.103   1.467
14343TIP3   OH242964   7.317   1.915   1.256
14343TIP3    H142965   7.327   1.897   1.350
14343TIP3    H242966   7.349   2.004   1.245
14344TIP3   OH242967   7.615   2.004   1.412
14344TIP3    H142968   7.625   1.918   1.453
14344TIP3    H242969   7.697   2.049   1.430
14345TIP3   OH242970   6.787   2.440   1.037
14345TIP3    H142971   6.833   2.467   0.957
14345TIP3    H242972   6.856   2.403   1.093
14346TIP3   OH242973   6.826   2.191   0.756
14346TIP3    H142974   6.843   2.174   0.848
14346TIP3    H242975   6.825   2.105   0.714
14347TIP3   OH242976   7.307   2.368   1.013
14347TIP3    H142977   7.322   2.416   1.094
14347TIP3    H242978   7.394   2.336   0.988
14348TIP3   OH242979   7.127   2.376   0.807
14348TIP3    H142980   7.188   2.373   0.881
14348TIP3    H242981   7.178   2.413   0.735
14349TIP3   OH242982   7.628   1.562   0.891
14349TIP3    H142983   7.537   1.558   0.920
14349TIP3    H242984   7.631   1.638   0.832
14350TIP3   OH242985   7.451   2.885   0.317
14350TIP3    H142986   7.444   2.981   0.314
14350TIP3    H242987   7.544   2.869   0.331
14351TIP3   OH242988   7.178   2.238   0.505
14351TIP3    H142989   7.147   2.236   0.414
14351TIP3    H242990   7.263   2.283   0.500
14352TIP3   OH242991   6.891   1.669   0.813
14352TIP3    H142992   6.826   1.705   0.873
14352TIP3    H242993   6.851   1.588   0.781
14353TIP3   OH242994   7.110   2.217   1.200
14353TIP3    H142995   7.019   2.247   1.201
14353TIP3    H242996   7.121   2.179   1.113
14354TIP3   OH242997   7.146   1.777   0.861
14354TIP3    H142998   7.056   1.779   0.829
14354TIP3    H242999   7.190   1.848   0.815
14355TIP3   OH243000   7.205   2.054   1.001
14355TIP3    H143001   7.292   2.017   0.988
14355TIP3    H243002   7.176   2.077   0.912
14356TIP3   OH243003   7.662   2.124   0.757
14356TIP3    H143004   7.608   2.084   0.689
14356TIP3    H243005   7.670   2.216   0.731
14357TIP3   OH243006   7.025   2.733   0.683
14357TIP3    H143007   7.073   2.705   0.761
14357TIP3    H243008   7.005   2.651   0.637
14358TIP3   OH243009   7.449   3.350   0.410
14358TIP3    H143010   7.438   3.398   0.328
14358TIP3    H243011   7.401   3.402   0.475
14359TIP3   OH243012   7.177   2.647   0.896
14359TIP3    H143013   7.244   2.591   0.857
14359TIP3    H243014   7.221   2.731   0.909
14360TIP3   OH243015   7.206   1.719   1.113
14360TIP3    H143016   7.200   1.756   1.025
14360TIP3    H243017   7.243   1.790   1.166
14361TIP3   OH243018   6.742   2.006   1.268
14361TIP3    H143019   6.823   2.034   1.310
14361TIP3    H243020   6.676   2.013   1.336
14362TIP3   OH243021   7.021   1.678   1.359
14362TIP3    H143022   6.999   1.727   1.438
14362TIP3    H243023   7.114   1.656   1.371
14363TIP3   OH243024   7.035   2.937   0.496
14363TIP3    H143025   7.059   2.877   0.566
14363TIP3    H243026   7.111   2.937   0.438
14364TIP3   OH243027   6.678   2.628   0.669
14364TIP3    H143028   6.757   2.595   0.712
14364TIP3    H243029   6.627   2.549   0.649
14365TIP3   OH243030   6.577   2.229   0.863
14365TIP3    H143031   6.514   2.254   0.795
14365TIP3    H243032   6.650   2.192   0.815
14366TIP3   OH243033   7.412   2.353   0.422
14366TIP3    H143034   7.404   2.337   0.328
14366TIP3    H243035   7.397   2.447   0.433
14367TIP3   OH243036   7.537   2.730   0.824
14367TIP3    H143037   7.631   2.731   0.806
14367TIP3    H243038   7.512   2.638   0.815
14368TIP3   OH243039   7.674   2.483   0.964
14368TIP3    H143040   7.596   2.499   1.018
14368TIP3    H243041   7.748   2.503   1.021
14369TIP3   OH243042   7.679   2.388   0.701
14369TIP3    H143043   7.624   2.440   0.643
14369TIP3    H243044   7.663   2.423   0.788
14370TIP3   OH243045   7.503   2.078   0.534
14370TIP3    H143046   7.488   2.138   0.460
14370TIP3    H243047   7.483   1.992   0.498
14371TIP3   OH243048   7.609   2.363   1.262
14371TIP3    H143049   7.610   2.311   1.181
14371TIP3    H243050   7.580   2.302   1.330
14372TIP3   OH243051   7.423   1.800   0.529
14372TIP3    H143052   7.492   1.773   0.590
14372TIP3    H243053   7.352   1.737   0.544
14373TIP3   OH243054   7.451   1.944   0.954
14373TIP3    H143055   7.533   1.903   0.983
14373TIP3    H243056   7.445   1.923   0.861
14374TIP3   OH243057   7.676   1.813   1.051
14374TIP3    H143058   7.676   1.834   1.144
14374TIP3    H243059   7.656   1.719   1.047
14375TIP3   OH243060   7.648   1.756   0.696
14375TIP3    H143061   7.683   1.687   0.639
14375TIP3    H243062   7.719   1.820   0.703
14376TIP3   OH243063   7.635   1.765   1.548
14376TIP3    H143064   7.708   1.747   1.489
14376TIP3    H243065   7.615   1.680   1.588
14377TIP3   OH243066   7.809   1.755   1.334
14377TIP3    H143067   7.863   1.706   1.272
14377TIP3    H243068   7.824   1.846   1.311
14378TIP3   OH243069   7.472   1.551   1.637
14378TIP3    H143070   7.406   1.509   1.692
14378TIP3    H243071   7.482   1.493   1.562
14379TIP3   OH243072   7.387   1.552   1.007
14379TIP3    H143073   7.312   1.606   1.027
14379TIP3    H243074   7.365   1.465   1.042
14380TIP3   OH243075   6.760   1.734   1.309
14380TIP3    H143076   6.852   1.711   1.305
14380TIP3    H243077   6.757   1.827   1.285
14381TIP3   OH243078   0.353   2.787   0.684
14381TIP3    H143079   0.318   2.874   0.664
14381TIP3    H243080   0.284   2.726   0.657
14382TIP3   OH243081   0.347   2.761   1.069
14382TIP3    H143082   0.388   2.740   1.153
14382TIP3    H243083   0.299   2.682   1.045
14383TIP3   OH243084   0.628   3.060   0.753
14383TIP3    H143085   0.597   3.004   0.824
14383TIP3    H243086   0.647   3.144   0.795
14384TIP3   OH243087   7.852   2.246   0.958
14384TIP3    H143088   7.844   2.338   0.984
14384TIP3    H243089   7.790   2.236   0.886
14385TIP3   OH243090   7.907   2.528   1.084
14385TIP3    H143091   7.970   2.490   1.145
14385TIP3    H243092   7.900   2.620   1.111
14386TIP3   OH243093   0.282   3.512   0.772
14386TIP3    H143094   0.312   3.456   0.700
14386TIP3    H243095   0.289   3.456   0.850
14387TIP3   OH243096   0.173   2.976   1.140
14387TIP3    H143097   0.206   2.901   1.091
14387TIP3    H243098   0.251   3.028   1.159
14388TIP3   OH243099   1.172   2.304   1.109
14388TIP3    H143100   1.184   2.389   1.153
14388TIP3    H243101   1.211   2.316   1.023
14389TIP3   OH243102   0.552   2.473   1.157
14389TIP3    H143103   0.591   2.388   1.180
14389TIP3    H243104   0.527   2.463   1.065
14390TIP3   OH243105   8.432   2.154   1.105
14390TIP3    H143106   8.411   2.226   1.047
14390TIP3    H243107   8.382   2.080   1.071
14391TIP3   OH243108   0.621   2.257   0.746
14391TIP3    H143109   0.687   2.244   0.813
14391TIP3    H243110   0.670   2.288   0.670
14392TIP3   OH243111   8.079   2.378   1.238
14392TIP3    H143112   8.160   2.358   1.285
14392TIP3    H243113   8.082   2.320   1.161
14393TIP3   OH243114   8.478   2.564   1.022
14393TIP3    H143115   8.570   2.542   1.032
14393TIP3    H243116   8.437   2.483   0.993
14394TIP3   OH243117   1.224   2.511   1.294
14394TIP3    H143118   1.151   2.570   1.277
14394TIP3    H243119   1.281   2.559   1.354
14395TIP3   OH243120   8.421   2.133   1.556
14395TIP3    H143121   8.368   2.175   1.488
14395TIP3    H243122   8.371   2.145   1.636
14396TIP3   OH243123   0.213   2.994   0.571
14396TIP3    H143124   0.191   2.976   0.479
14396TIP3    H243125   0.177   3.081   0.587
14397TIP3   OH243126   0.801   2.252   0.954
14397TIP3    H143127   0.872   2.188   0.963
14397TIP3    H243128   0.843   2.336   0.973
14398TIP3   OH243129   8.308   2.251   1.335
14398TIP3    H143130   8.362   2.325   1.363
14398TIP3    H243131   8.354   2.216   1.258
14399TIP3   OH243132   7.693   2.878   0.610
14399TIP3    H143133   7.684   2.882   0.514
14399TIP3    H243134   7.771   2.930   0.629
14400TIP3   OH243135   0.663   3.301   0.891
14400TIP3    H143136   0.584   3.295   0.944
14400TIP3    H243137   0.659   3.388   0.851
14401TIP3   OH243138   0.939   2.228   1.268
14401TIP3    H143139   0.855   2.235   1.222
14401TIP3    H243140   1.005   2.242   1.201
14402TIP3   OH243141   0.256   1.846   1.276
14402TIP3    H143142   0.253   1.753   1.300
14402TIP3    H243143   0.176   1.883   1.311
14403TIP3   OH243144   0.376   3.367   0.555
14403TIP3    H143145   0.425   3.285   0.544
14403TIP3    H243146   0.440   3.436   0.537
14404TIP3   OH243147   0.518   3.141   0.511
14404TIP3    H143148   0.522   3.068   0.449
14404TIP3    H243149   0.558   3.106   0.591
14405TIP3   OH243150   0.797   3.247   1.209
14405TIP3    H143151   0.812   3.169   1.156
14405TIP3    H243152   0.823   3.320   1.153
14406TIP3   OH243153   0.176   2.629   0.534
14406TIP3    H143154   0.096   2.679   0.519
14406TIP3    H243155   0.221   2.629   0.449
14407TIP3   OH243156   0.150   2.436   0.220
14407TIP3    H143157   0.215   2.484   0.271
14407TIP3    H243158   0.201   2.371   0.171
14408TIP3   OH243159   1.028   2.839   1.064
14408TIP3    H143160   0.945   2.887   1.063
14408TIP3    H243161   1.076   2.873   0.988
14409TIP3   OH243162   0.535   2.723   0.490
14409TIP3    H143163   0.481   2.750   0.564
14409TIP3    H243164   0.617   2.695   0.530
14410TIP3   OH243165   0.740   2.713   1.350
14410TIP3    H143166   0.726   2.772   1.424
14410TIP3    H243167   0.654   2.706   1.308
14411TIP3   OH243168   8.268   2.692   0.887
14411TIP3    H143169   8.232   2.628   0.825
14411TIP3    H243170   8.343   2.647   0.926
14412TIP3   OH243171   8.407   3.034   0.970
14412TIP3    H143172   8.344   2.988   1.026
14412TIP3    H243173   8.487   3.039   1.022
14413TIP3   OH243174   8.446   2.666   1.282
14413TIP3    H143175   8.454   2.649   1.188
14413TIP3    H243176   8.527   2.712   1.304
14414TIP3   OH243177   0.436   3.300   1.043
14414TIP3    H143178   0.410   3.365   1.109
14414TIP3    H243179   0.423   3.216   1.086
14415TIP3   OH243180   0.369   2.578   0.326
14415TIP3    H143181   0.427   2.636   0.374
14415TIP3    H243182   0.397   2.585   0.235
14416TIP3   OH243183   0.120   3.257   0.576
14416TIP3    H143184   0.206   3.297   0.577
14416TIP3    H243185   0.066   3.315   0.522
14417TIP3   OH243186   0.878   1.804   0.379
14417TIP3    H143187   0.801   1.825   0.432
14417TIP3    H243188   0.890   1.880   0.323
14418TIP3   OH243189   8.148   2.526   0.692
14418TIP3    H143190   8.068   2.569   0.662
14418TIP3    H243191   8.121   2.436   0.712
14419TIP3   OH243192   3.538   7.184   6.870
14419TIP3    H143193   3.533   7.277   6.845
14419TIP3    H243194   3.628   7.159   6.849
14420TIP3   OH243195   8.505   3.458   0.399
14420TIP3    H143196   8.472   3.438   0.312
14420TIP3    H243197   8.452   3.533   0.428
14421TIP3   OH243198   0.210   3.401   0.036
14421TIP3    H143199   0.261   3.328   0.001
14421TIP3    H243200   0.247   3.415   0.124
14422TIP3   OH243201   0.264   3.443   0.307
14422TIP3    H143202   0.176   3.447   0.345
14422TIP3    H243203   0.319   3.408   0.377
14423TIP3   OH243204   0.914   2.620   1.625
14423TIP3    H143205   0.905   2.700   1.573
14423TIP3    H243206   0.925   2.550   1.561
14424TIP3   OH243207   8.514   1.931   1.389
14424TIP3    H143208   8.431   1.898   1.356
14424TIP3    H243209   8.492   2.010   1.438
14425TIP3   OH243210   0.450   2.581   0.067
14425TIP3    H143211   0.402   2.575  -0.016
14425TIP3    H243212   0.533   2.620   0.043
14426TIP3   OH243213   0.159   1.979   0.377
14426TIP3    H143214   0.120   1.987   0.464
14426TIP3    H243215   0.122   1.897   0.342
14427TIP3   OH243216   8.461   2.448   1.442
14427TIP3    H143217   8.480   2.471   1.533
14427TIP3    H243218   8.442   2.532   1.399
14428TIP3   OH243219   8.336   2.346   0.934
14428TIP3    H143220   8.250   2.319   0.965
14428TIP3    H243221   8.341   2.313   0.845
14429TIP3   OH243222   0.306   2.427   0.670
14429TIP3    H143223   0.257   2.498   0.629
14429TIP3    H243224   0.364   2.395   0.600
14430TIP3   OH243225   0.475   2.441   0.894
14430TIP3    H143226   0.407   2.466   0.831
14430TIP3    H243227   0.521   2.368   0.852
14431TIP3   OH243228   8.325   1.962   0.353
14431TIP3    H143229   8.314   1.967   0.448
14431TIP3    H243230   8.247   2.005   0.318
14432TIP3   OH243231   7.881   1.989   1.214
14432TIP3    H143232   7.949   2.037   1.260
14432TIP3    H243233   7.918   1.973   1.127
14433TIP3   OH243234   7.855   1.945   0.709
14433TIP3    H143235   7.890   1.979   0.626
14433TIP3    H243236   7.793   2.012   0.737
14434TIP3   OH243237   0.456   2.673   1.307
14434TIP3    H143238   0.489   2.600   1.254
14434TIP3    H243239   0.443   2.635   1.394
14435TIP3   OH243240   0.194   2.143   0.991
14435TIP3    H143241   0.114   2.142   1.045
14435TIP3    H243242   0.265   2.128   1.053
14436TIP3   OH243243   8.113   2.212   1.021
14436TIP3    H143244   8.022   2.208   0.991
14436TIP3    H243245   8.148   2.125   1.001
14437TIP3   OH243246   8.339   2.228   0.687
14437TIP3    H143247   8.433   2.238   0.676
14437TIP3    H243248   8.303   2.245   0.600
14438TIP3   OH243249   0.642   2.213   1.183
14438TIP3    H143250   0.564   2.158   1.183
14438TIP3    H243251   0.679   2.201   1.095
14439TIP3   OH243252   8.225   2.252   0.439
14439TIP3    H143253   8.163   2.201   0.386
14439TIP3    H243254   8.278   2.299   0.375
14440TIP3   OH243255   0.240   2.495   1.087
14440TIP3    H143256   0.307   2.444   1.040
14440TIP3    H243257   0.244   2.462   1.177
14441TIP3   OH243258   8.254   1.977   0.975
14441TIP3    H143259   8.223   1.902   1.025
14441TIP3    H243260   8.269   1.943   0.887
14442TIP3   OH243261   0.230   2.420   1.366
14442TIP3    H143262   0.138   2.441   1.382
14442TIP3    H243263   0.278   2.477   1.427
14443TIP3   OH243264   8.439   2.776   0.490
14443TIP3    H143265   8.363   2.721   0.471
14443TIP3    H243266   8.418   2.817   0.574
14444TIP3   OH243267   0.817   3.013   1.057
14444TIP3    H143268   0.851   3.060   0.981
14444TIP3    H243269   0.734   2.976   1.026
14445TIP3   OH243270   0.412   2.080   0.389
14445TIP3    H143271   0.319   2.058   0.380
14445TIP3    H243272   0.413   2.176   0.394
14446TIP3   OH243273   0.469   2.349   0.455
14446TIP3    H143274   0.565   2.353   0.461
14446TIP3    H243275   0.445   2.424   0.400
14447TIP3   OH243276   8.226   2.861   1.101
14447TIP3    H143277   8.227   2.804   1.024
14447TIP3    H243278   8.221   2.802   1.176
14448TIP3   OH243279   0.095   2.922   0.320
14448TIP3    H143280   0.050   3.007   0.315
14448TIP3    H243281   0.040   2.869   0.377
14449TIP3   OH243282   0.882   2.437   0.270
14449TIP3    H143283   0.825   2.392   0.208
14449TIP3    H243284   0.889   2.526   0.237
14450TIP3   OH243285   1.204   3.324   1.289
14450TIP3    H143286   1.136   3.289   1.347
14450TIP3    H243287   1.189   3.280   1.205
14451TIP3   OH243288   0.623   3.244   0.190
14451TIP3    H143289   0.594   3.171   0.244
14451TIP3    H243290   0.645   3.204   0.105
14452TIP3   OH243291   0.584   2.879   0.975
14452TIP3    H143292   0.493   2.849   0.984
14452TIP3    H243293   0.631   2.804   0.940
14453TIP3   OH243294   8.197   3.188   0.721
14453TIP3    H143295   8.291   3.180   0.738
14453TIP3    H243296   8.156   3.136   0.790
14454TIP3   OH243297   7.860   2.394   0.491
14454TIP3    H143298   7.896   2.481   0.506
14454TIP3    H243299   7.798   2.381   0.563
14455TIP3   OH243300   8.366   2.894   0.726
14455TIP3    H143301   8.402   2.957   0.789
14455TIP3    H243302   8.324   2.828   0.781
14456TIP3   OH243303   0.440   3.060   1.183
14456TIP3    H143304   0.496   3.074   1.259
14456TIP3    H243305   0.489   2.999   1.128
14457TIP3   OH243306   0.393   2.990   0.095
14457TIP3    H143307   0.433   2.972   0.180
14457TIP3    H243308   0.308   2.945   0.098
14458TIP3   OH243309   3.535   7.454   6.818
14458TIP3    H143310   3.546   7.511   6.742
14458TIP3    H243311   3.466   7.496   6.870
14459TIP3   OH243312   0.555   2.938   0.317
14459TIP3    H143313   0.538   2.864   0.375
14459TIP3    H243314   0.648   2.931   0.295
14460TIP3   OH243315   8.251   2.951   0.109
14460TIP3    H143316   8.258   2.859   0.084
14460TIP3    H243317   8.244   2.949   0.204
14461TIP3   OH243318   8.208   2.977   0.385
14461TIP3    H143319   8.279   2.955   0.445
14461TIP3    H243320   8.201   3.072   0.389
14462TIP3   OH243321   7.919   2.645   0.589
14462TIP3    H143322   7.882   2.681   0.669
14462TIP3    H243323   7.940   2.722   0.536
14463TIP3   OH243324   0.472   2.038   0.655
14463TIP3    H143325   0.450   2.055   0.564
14463TIP3    H243326   0.515   2.119   0.685
14464TIP3   OH243327   8.454   3.153   0.310
14464TIP3    H143328   8.375   3.185   0.354
14464TIP3    H243329   8.476   3.223   0.248
14465TIP3   OH243330   0.120   2.234   0.737
14465TIP3    H143331   0.181   2.303   0.711
14465TIP3    H243332   0.143   2.215   0.828
14466TIP3   OH243333   0.409   2.570   1.559
14466TIP3    H143334   0.376   2.649   1.603
14466TIP3    H243335   0.492   2.552   1.602
14467TIP3   OH243336   0.281   1.933   0.824
14467TIP3    H143337   0.257   2.011   0.875
14467TIP3    H243338   0.351   1.964   0.766
14468TIP3   OH243339   8.211   3.250   0.405
14468TIP3    H143340   8.190   3.324   0.348
14468TIP3    H243341   8.188   3.280   0.492
14469TIP3   OH243342   8.294   1.954   0.634
14469TIP3    H143343   8.283   2.045   0.660
14469TIP3    H243344   8.389   1.939   0.638
14470TIP3   OH243345   1.013   2.406   1.466
14470TIP3    H143346   0.977   2.339   1.408
14470TIP3    H243347   1.085   2.445   1.416
14471TIP3   OH243348   0.695   2.628   0.896
14471TIP3    H143349   0.619   2.571   0.904
14471TIP3    H243350   0.763   2.583   0.947
14472TIP3   OH243351   7.974   2.835   0.394
14472TIP3    H143352   8.046   2.898   0.400
14472TIP3    H243353   8.003   2.772   0.328
14473TIP3   OH243354   7.863   2.115   0.490
14473TIP3    H143355   7.884   2.208   0.490
14473TIP3    H243356   7.799   2.104   0.419
14474TIP3   OH243357   0.659   3.568   0.831
14474TIP3    H143358   0.598   3.639   0.809
14474TIP3    H243359   0.737   3.587   0.779
14475TIP3   OH243360   8.245   1.858   1.362
14475TIP3    H143361   8.220   1.829   1.274
14475TIP3    H243362   8.235   1.779   1.416
14476TIP3   OH243363   2.729   7.161   6.932
14476TIP3    H143364   2.685   7.089   6.978
14476TIP3    H243365   2.804   7.119   6.889
14477TIP3   OH243366   3.172   7.199   6.856
14477TIP3    H143367   3.208   7.135   6.918
14477TIP3    H243368   3.229   7.193   6.779
14478TIP3   OH243369   8.061   2.644   0.221
14478TIP3    H143370   8.115   2.614   0.294
14478TIP3    H243371   8.124   2.658   0.149
14479TIP3   OH243372   0.142   2.868   0.055
14479TIP3    H143373   0.116   2.878   0.147
14479TIP3    H243374   0.123   2.776   0.035
14480TIP3   OH243375   0.626   3.121   1.382
14480TIP3    H143376   0.686   3.164   1.322
14480TIP3    H243377   0.615   3.183   1.454
14481TIP3   OH243378   8.239   2.588   0.430
14481TIP3    H143379   8.220   2.551   0.516
14481TIP3    H243380   8.290   2.520   0.385
14482TIP3   OH243381   8.375   2.406   0.267
14482TIP3    H143382   8.346   2.409   0.176
14482TIP3    H243383   8.471   2.413   0.262
14483TIP3   OH243384   3.508   6.699   6.889
14483TIP3    H143385   3.492   6.658   6.804
14483TIP3    H243386   3.483   6.790   6.876
14484TIP3   OH243387   0.090   2.452   1.688
14484TIP3    H143388   0.128   2.366   1.669
14484TIP3    H243389   0.159   2.499   1.733
14485TIP3   OH243390   0.185   2.220   1.566
14485TIP3    H143391   0.204   2.265   1.483
14485TIP3    H243392   0.095   2.189   1.556
14486TIP3   OH243393   0.193   2.769   1.377
14486TIP3    H143394   0.282   2.752   1.345
14486TIP3    H243395   0.178   2.862   1.358
14487TIP3   OH243396   0.705   2.909   1.555
14487TIP3    H143397   0.676   2.981   1.499
14487TIP3    H243398   0.801   2.909   1.545
14488TIP3   OH243399   0.327   1.998   1.643
14488TIP3    H143400   0.280   2.079   1.623
14488TIP3    H243401   0.257   1.935   1.663
14489TIP3   OH243402   0.627   2.294   1.747
14489TIP3    H143403   0.537   2.305   1.777
14489TIP3    H243404   0.678   2.355   1.801
14490TIP3   OH243405   8.200   3.453   0.214
14490TIP3    H143406   8.287   3.430   0.182
14490TIP3    H243407   8.158   3.497   0.140
14491TIP3   OH243408   7.711   2.814   0.335
14491TIP3    H143409   7.805   2.824   0.350
14491TIP3    H243410   7.701   2.723   0.308
14492TIP3   OH243411   0.896   3.651   0.735
14492TIP3    H143412   0.894   3.713   0.807
14492TIP3    H243413   0.983   3.661   0.696
14493TIP3   OH243414   0.825   2.900   0.281
14493TIP3    H143415   0.887   2.965   0.246
14493TIP3    H243416   0.871   2.860   0.354
14494TIP3   OH243417   0.949   2.751   0.475
14494TIP3    H143418   0.882   2.712   0.531
14494TIP3    H243419   1.016   2.783   0.536
14495TIP3   OH243420   0.980   3.142   0.878
14495TIP3    H143421   1.041   3.080   0.837
14495TIP3    H243422   0.977   3.215   0.816
14496TIP3   OH243423   0.881   3.440   1.014
14496TIP3    H143424   0.829   3.519   0.996
14496TIP3    H243425   0.844   3.374   0.956
14497TIP3   OH243426   0.880   2.675   0.131
14497TIP3    H143427   0.811   2.672   0.064
14497TIP3    H243428   0.859   2.753   0.183
14498TIP3   OH243429   0.730   2.330   0.071
14498TIP3    H143430   0.689   2.367  -0.007
14498TIP3    H243431   0.719   2.236   0.062
14499TIP3   OH243432   0.757   2.617   0.623
14499TIP3    H143433   0.764   2.523   0.609
14499TIP3    H243434   0.741   2.627   0.717
14500TIP3   OH243435   0.966   2.870   1.476
14500TIP3    H143436   1.057   2.842   1.481
14500TIP3    H243437   0.963   2.928   1.399
14501TIP3   OH243438   1.232   2.799   1.477
14501TIP3    H143439   1.275   2.864   1.534
14501TIP3    H243440   1.303   2.743   1.447
14502TIP3   OH243441   0.690   2.061   0.049
14502TIP3    H143442   0.758   2.030   0.110
14502TIP3    H243443   0.610   2.017   0.077
14503TIP3   OH243444   0.763   2.344   0.514
14503TIP3    H143445   0.807   2.260   0.525
14503TIP3    H243446   0.803   2.382   0.436
14504TIP3   OH243447   0.909   2.493   1.025
14504TIP3    H143448   0.992   2.512   0.981
14504TIP3    H243449   0.921   2.528   1.114
14505TIP3   OH243450   0.989   2.643   1.250
14505TIP3    H143451   0.906   2.665   1.294
14505TIP3    H243452   1.001   2.712   1.185
14506TIP3   OH243453   0.875   2.092   0.563
14506TIP3    H143454   0.918   2.073   0.646
14506TIP3    H243455   0.812   2.020   0.552
14507TIP3   OH243456   8.085   2.083   1.382
14507TIP3    H143457   8.137   2.003   1.384
14507TIP3    H243458   8.149   2.152   1.365
14508TIP3   OH243459   7.914   2.395   1.465
14508TIP3    H143460   7.835   2.350   1.434
14508TIP3    H243461   7.970   2.400   1.388
14509TIP3   OH243462   1.313   2.344   1.618
14509TIP3    H143463   1.251   2.417   1.625
14509TIP3    H243464   1.271   2.283   1.556
14510TIP3   OH243465   0.923   2.006   0.199
14510TIP3    H143466   0.969   1.947   0.139
14510TIP3    H243467   0.977   2.085   0.200
14511TIP3   OH243468   7.929   1.871   0.959
14511TIP3    H143469   7.842   1.846   0.990
14511TIP3    H243470   7.914   1.909   0.872
14512TIP3   OH243471   0.536   3.569   0.469
14512TIP3    H143472   0.579   3.543   0.388
14512TIP3    H243473   0.559   3.661   0.480
14513TIP3   OH243474   1.195   2.098   1.491
14513TIP3    H143475   1.109   2.069   1.461
14513TIP3    H243476   1.250   2.020   1.487
14514TIP3   OH243477   0.412   2.043   1.138
14514TIP3    H143478   0.370   1.972   1.185
14514TIP3    H243479   0.479   2.000   1.085
14515TIP3   OH243480   0.908   1.994   1.033
14515TIP3    H143481   0.947   2.000   0.946
14515TIP3    H243482   0.816   1.973   1.017
14516TIP3   OH243483   1.027   2.040   0.791
14516TIP3    H143484   1.092   1.977   0.758
14516TIP3    H243485   1.065   2.126   0.773
14517TIP3   OH243486   8.175   1.757   1.117
14517TIP3    H143487   8.084   1.730   1.106
14517TIP3    H243488   8.224   1.675   1.114
14518TIP3   OH243489   7.990   1.655   0.773
14518TIP3    H143490   8.013   1.699   0.691
14518TIP3    H243491   7.976   1.726   0.836
14519TIP3   OH243492   0.136   1.792   1.021
14519TIP3    H143493   0.184   1.837   0.951
14519TIP3    H243494   0.184   1.815   1.101
14520TIP3   OH243495   0.632   1.938   0.996
14520TIP3    H143496   0.630   1.903   0.907
14520TIP3    H243497   0.632   1.860   1.052
14521TIP3   OH243498   0.689   1.883   0.566
14521TIP3    H143499   0.609   1.930   0.590
14521TIP3    H243500   0.677   1.796   0.603
14522TIP3   OH243501   8.091   1.783   0.537
14522TIP3    H143502   8.137   1.723   0.480
14522TIP3    H243503   8.159   1.839   0.574
14523TIP3   OH243504   0.068   1.984   0.639
14523TIP3    H143505   0.127   1.930   0.692
14523TIP3    H243506   0.086   2.073   0.668
14524TIP3   OH243507   8.454   3.377   0.135
14524TIP3    H143508   8.538   3.404   0.097
14524TIP3    H243509   8.423   3.308   0.077
14525TIP3   OH243510   0.655   3.511   0.226
14525TIP3    H143511   0.649   3.416   0.219
14525TIP3    H243512   0.613   3.544   0.147
14526TIP3   OH243513   7.789   3.212   0.189
14526TIP3    H143514   7.832   3.274   0.249
14526TIP3    H243515   7.861   3.159   0.155
14527TIP3   OH243516   2.064   3.000   0.164
14527TIP3    H143517   2.036   3.088   0.139
14527TIP3    H243518   2.003   2.941   0.120
14528TIP3   OH243519   2.123   3.075   0.559
14528TIP3    H143520   2.199   3.078   0.616
14528TIP3    H243521   2.140   3.000   0.501
14529TIP3   OH243522   1.433   2.875   0.954
14529TIP3    H143523   1.486   2.798   0.974
14529TIP3    H243524   1.496   2.940   0.922
14530TIP3   OH243525   2.341   3.291   0.254
14530TIP3    H143526   2.400   3.275   0.328
14530TIP3    H243527   2.366   3.377   0.222
14531TIP3   OH243528   1.415   3.258   0.622
14531TIP3    H143529   1.383   3.173   0.592
14531TIP3    H243530   1.365   3.277   0.701
14532TIP3   OH243531   1.116   2.531   0.405
14532TIP3    H143532   1.076   2.615   0.426
14532TIP3    H243533   1.046   2.480   0.364
14533TIP3   OH243534   1.169   2.812   0.623
14533TIP3    H143535   1.225   2.739   0.649
14533TIP3    H243536   1.229   2.875   0.582
14534TIP3   OH243537   1.955   3.837   0.259
14534TIP3    H143538   1.891   3.788   0.208
14534TIP3    H243539   1.986   3.774   0.325
14535TIP3   OH243540   1.958   3.268   0.656
14535TIP3    H143541   2.013   3.203   0.612
14535TIP3    H243542   2.019   3.315   0.714
14536TIP3   OH243543   2.429   2.739   0.667
14536TIP3    H143544   2.413   2.645   0.664
14536TIP3    H243545   2.374   2.774   0.596
14537TIP3   OH243546   1.700   2.385   0.578
14537TIP3    H143547   1.685   2.465   0.527
14537TIP3    H243548   1.644   2.320   0.536
14538TIP3   OH243549   2.398   2.494   0.197
14538TIP3    H143550   2.465   2.461   0.257
14538TIP3    H243551   2.448   2.535   0.126
14539TIP3   OH243552   1.329   2.608   0.719
14539TIP3    H143553   1.415   2.592   0.757
14539TIP3    H243554   1.329   2.559   0.637
14540TIP3   OH243555   1.736   2.828   0.480
14540TIP3    H143556   1.831   2.819   0.486
14540TIP3    H243557   1.705   2.739   0.463
14541TIP3   OH243558   1.656   2.362   1.030
14541TIP3    H143559   1.610   2.396   0.954
14541TIP3    H243560   1.595   2.375   1.103
14542TIP3   OH243561   2.030   3.239   0.043
14542TIP3    H143562   2.003   3.235  -0.049
14542TIP3    H243563   1.971   3.303   0.082
14543TIP3   OH243564   1.707   3.184   0.722
14543TIP3    H143565   1.650   3.236   0.778
14543TIP3    H243566   1.785   3.237   0.710
14544TIP3   OH243567   2.562   2.422   0.406
14544TIP3    H143568   2.505   2.447   0.479
14544TIP3    H243569   2.613   2.501   0.387
14545TIP3   OH243570   1.571   2.490   0.799
14545TIP3    H143571   1.635   2.552   0.833
14545TIP3    H243572   1.613   2.450   0.723
14546TIP3   OH243573   1.573   3.364   0.894
14546TIP3    H143574   1.568   3.450   0.937
14546TIP3    H243575   1.522   3.306   0.950
14547TIP3   OH243576   1.002   3.069   0.155
14547TIP3    H143577   0.972   3.087   0.066
14547TIP3    H243578   1.017   3.155   0.194
14548TIP3   OH243579   2.020   2.081   0.751
14548TIP3    H143580   2.011   1.990   0.781
14548TIP3    H243581   1.950   2.128   0.795
14549TIP3   OH243582   5.068   7.629   6.875
14549TIP3    H143583   5.080   7.534   6.867
14549TIP3    H243584   5.150   7.660   6.914
14550TIP3   OH243585   5.127   7.364   6.909
14550TIP3    H143586   5.148   7.308   6.834
14550TIP3    H243587   5.062   7.315   6.958
14551TIP3   OH243588   4.764   6.859   6.915
14551TIP3    H143589   4.687   6.912   6.897
14551TIP3    H243590   4.816   6.864   6.835
14552TIP3   OH243591   4.773   6.680   6.636
14552TIP3    H143592   4.839   6.731   6.682
14552TIP3    H243593   4.822   6.615   6.586
14553TIP3   OH243594   5.090   7.022   6.896
14553TIP3    H143595   5.027   7.032   6.967
14553TIP3    H243596   5.155   6.962   6.930
14554TIP3   OH243597   1.538   2.956   0.345
14554TIP3    H143598   1.504   2.891   0.283
14554TIP3    H243599   1.611   2.913   0.388
14555TIP3   OH243600   1.705   3.335   0.467
14555TIP3    H143601   1.633   3.362   0.409
14555TIP3    H243602   1.677   3.251   0.501
14556TIP3   OH243603   1.592   2.943   0.681
14556TIP3    H143604   1.646   2.900   0.615
14556TIP3    H243605   1.628   3.031   0.688
14557TIP3   OH243606   4.978   6.837   6.731
14557TIP3    H143607   5.019   6.909   6.778
14557TIP3    H243608   5.014   6.842   6.642
14558TIP3   OH243609   1.515   3.130   1.067
14558TIP3    H143610   1.524   3.185   1.145
14558TIP3    H243611   1.442   3.072   1.086
14559TIP3   OH243612   4.788   7.507   6.870
14559TIP3    H143613   4.805   7.523   6.963
14559TIP3    H243614   4.699   7.474   6.867
14560TIP3   OH243615   5.501   6.059   6.798
14560TIP3    H143616   5.423   6.082   6.850
14560TIP3    H243617   5.515   6.134   6.741
14561TIP3   OH243618   1.426   2.778   0.166
14561TIP3    H143619   1.349   2.827   0.138
14561TIP3    H243620   1.396   2.688   0.177
14562TIP3   OH243621   5.339   7.448   6.359
14562TIP3    H143622   5.331   7.537   6.325
14562TIP3    H243623   5.426   7.419   6.330
14563TIP3   OH243624   1.180   3.182   1.063
14563TIP3    H143625   1.106   3.174   1.003
14563TIP3    H243626   1.175   3.103   1.118
14564TIP3   OH243627   1.029   3.373   0.731
14564TIP3    H143628   1.120   3.367   0.758
14564TIP3    H243629   1.004   3.464   0.749
14565TIP3   OH243630   4.609   7.745   6.802
14565TIP3    H143631   4.587   7.712   6.715
14565TIP3    H243632   4.567   7.830   6.807
14566TIP3   OH243633   1.175   3.574   0.168
14566TIP3    H143634   1.189   3.563   0.263
14566TIP3    H243635   1.115   3.503   0.145
14567TIP3   OH243636   4.831   7.672   6.443
14567TIP3    H143637   4.887   7.603   6.408
14567TIP3    H243638   4.867   7.692   6.529
14568TIP3   OH243639   4.880   7.732   6.711
14568TIP3    H143640   4.798   7.702   6.750
14568TIP3    H243641   4.948   7.690   6.764
14569TIP3   OH243642   1.419   3.401   1.132
14569TIP3    H143643   1.462   3.360   1.208
14569TIP3    H243644   1.326   3.389   1.148
14570TIP3   OH243645   1.789   2.176   0.878
14570TIP3    H143646   1.711   2.145   0.833
14570TIP3    H243647   1.759   2.250   0.930
14571TIP3   OH243648   2.311   2.366   1.038
14571TIP3    H143649   2.399   2.368   1.075
14571TIP3    H243650   2.252   2.383   1.112
14572TIP3   OH243651   5.079   6.831   6.481
14572TIP3    H143652   5.035   6.829   6.396
14572TIP3    H243653   5.163   6.873   6.463
14573TIP3   OH243654   4.783   6.241   6.801
14573TIP3    H143655   4.745   6.248   6.889
14573TIP3    H243656   4.748   6.160   6.766
14574TIP3   OH243657   1.751   2.636   0.948
14574TIP3    H143658   1.687   2.633   1.020
14574TIP3    H243659   1.762   2.729   0.930
14575TIP3   OH243660   1.610   2.592   0.422
14575TIP3    H143661   1.521   2.568   0.449
14575TIP3    H243662   1.617   2.560   0.332
14576TIP3   OH243663   2.078   2.661   0.106
14576TIP3    H143664   2.024   2.727   0.064
14576TIP3    H243665   2.143   2.637   0.040
14577TIP3   OH243666   2.199   2.622   0.345
14577TIP3    H143667   2.149   2.647   0.267
14577TIP3    H243668   2.273   2.571   0.311
14578TIP3   OH243669   1.553   2.673   1.129
14578TIP3    H143670   1.588   2.723   1.203
14578TIP3    H243671   1.526   2.590   1.167
14579TIP3   OH243672   4.454   6.225   6.782
14579TIP3    H143673   4.442   6.228   6.877
14579TIP3    H243674   4.376   6.268   6.747
14580TIP3   OH243675   1.148   2.264   0.708
14580TIP3    H143676   1.222   2.297   0.758
14580TIP3    H243677   1.184   2.245   0.621
14581TIP3   OH243678   1.073   2.242   0.210
14581TIP3    H143679   1.118   2.276   0.133
14581TIP3    H243680   1.008   2.308   0.231
14582TIP3   OH243681   2.439   2.936   0.869
14582TIP3    H143682   2.442   2.855   0.818
14582TIP3    H243683   2.372   2.921   0.935
14583TIP3   OH243684   1.963   2.400   0.464
14583TIP3    H143685   1.884   2.400   0.518
14583TIP3    H243686   2.035   2.386   0.526
14584TIP3   OH243687   1.371   2.469   0.487
14584TIP3    H143688   1.285   2.478   0.447
14584TIP3    H243689   1.400   2.380   0.464
14585TIP3   OH243690   1.623   2.478   0.175
14585TIP3    H143691   1.718   2.488   0.166
14585TIP3    H243692   1.588   2.498   0.088
14586TIP3   OH243693   2.408   2.448   0.628
14586TIP3    H143694   2.432   2.392   0.702
14586TIP3    H243695   2.332   2.406   0.589
14587TIP3   OH243696   4.347   6.516   6.868
14587TIP3    H143697   4.287   6.465   6.815
14587TIP3    H243698   4.403   6.561   6.804
14588TIP3   OH243699   1.560   3.242   1.315
14588TIP3    H143700   1.648   3.278   1.318
14588TIP3    H243701   1.556   3.180   1.388
14589TIP3   OH243702   1.998   2.742   0.511
14589TIP3    H143703   2.055   2.682   0.463
14589TIP3    H243704   1.953   2.686   0.574
14590TIP3   OH243705   1.512   2.222   0.453
14590TIP3    H143706   1.485   2.148   0.506
14590TIP3    H243707   1.533   2.185   0.368
14591TIP3   OH243708   1.884   2.597   0.710
14591TIP3    H143709   1.848   2.606   0.798
14591TIP3    H243710   1.972   2.561   0.723
14592TIP3   OH243711   4.554   7.037   6.885
14592TIP3    H143712   4.478   6.981   6.867
14592TIP3    H243713   4.536   7.076   6.971
14593TIP3   OH243714   5.036   6.338   6.802
14593TIP3    H143715   4.943   6.320   6.796
14593TIP3    H243716   5.042   6.433   6.807
14594TIP3   OH243717   5.092   6.605   6.845
14594TIP3    H143718   5.187   6.606   6.856
14594TIP3    H243719   5.072   6.686   6.797
14595TIP3   OH243720   1.361   2.993   0.553
14595TIP3    H143721   1.401   2.992   0.466
14595TIP3    H243722   1.432   2.969   0.612
14596TIP3   OH243723   4.723   7.190   6.738
14596TIP3    H143724   4.675   7.272   6.731
14596TIP3    H243725   4.665   7.132   6.787
14597TIP3   OH243726   1.138   2.990   1.259
14597TIP3    H143727   1.228   2.959   1.273
14597TIP3    H243728   1.100   2.925   1.200
14598TIP3   OH243729   5.493   6.697   6.675
14598TIP3    H143730   5.439   6.645   6.615
14598TIP3    H243731   5.499   6.783   6.633
14599TIP3   OH243732   5.270   7.511   6.619
14599TIP3    H143733   5.226   7.434   6.654
14599TIP3    H243734   5.292   7.487   6.529
14600TIP3   OH243735   2.492   3.204   0.461
14600TIP3    H143736   2.468   3.185   0.552
14600TIP3    H243737   2.586   3.225   0.465
14601TIP3   OH243738   1.517   3.367   0.257
14601TIP3    H143739   1.508   3.443   0.200
14601TIP3    H243740   1.435   3.365   0.306
14602TIP3   OH243741   1.119   2.662  -0.007
14602TIP3    H143742   1.159   2.747   0.011
14602TIP3    H243743   1.037   2.663   0.043
14603TIP3   OH243744   1.649   3.144   0.179
14603TIP3    H143745   1.599   3.222   0.199
14603TIP3    H243746   1.617   3.078   0.241
14604TIP3   OH243747   1.427   3.567   0.070
14604TIP3    H143748   1.335   3.574   0.094
14604TIP3    H243749   1.468   3.643   0.110
14605TIP3   OH243750   2.174   3.368   0.790
14605TIP3    H143751   2.202   3.281   0.818
14605TIP3    H243752   2.222   3.384   0.710
14606TIP3   OH243753   5.011   7.257   6.494
14606TIP3    H143754   5.057   7.234   6.575
14606TIP3    H243755   4.928   7.209   6.499
14607TIP3   OH243756   5.327   7.718   6.310
14607TIP3    H143757   5.356   7.788   6.252
14607TIP3    H243758   5.256   7.757   6.361
14608TIP3   OH243759   1.490   2.429   1.237
14608TIP3    H143760   1.397   2.450   1.243
14608TIP3    H243761   1.499   2.348   1.288
14609TIP3   OH243762   5.178   7.193   6.703
14609TIP3    H143763   5.149   7.125   6.764
14609TIP3    H243764   5.271   7.176   6.690
14610TIP3   OH243765   1.374   3.591   0.892
14610TIP3    H143766   1.301   3.598   0.830
14610TIP3    H243767   1.332   3.586   0.977
14611TIP3   OH243768   4.372   7.208   6.524
14611TIP3    H143769   4.381   7.117   6.496
14611TIP3    H243770   4.350   7.203   6.617
14612TIP3   OH243771   4.309   7.225   6.795
14612TIP3    H143772   4.387   7.213   6.848
14612TIP3    H243773   4.300   7.320   6.787
14613TIP3   OH243774   1.211   2.913   0.066
14613TIP3    H143775   1.142   2.958   0.117
14613TIP3    H243776   1.230   2.973  -0.006
14614TIP3   OH243777   2.335   2.588   0.891
14614TIP3    H143778   2.415   2.634   0.918
14614TIP3    H243779   2.339   2.506   0.940
14615TIP3   OH243780   2.250   2.275   0.126
14615TIP3    H143781   2.226   2.288   0.034
14615TIP3    H243782   2.292   2.357   0.152
14616TIP3   OH243783   4.565   7.413   6.735
14616TIP3    H143784   4.472   7.437   6.743
14616TIP3    H243785   4.601   7.479   6.676
14617TIP3   OH243786   1.899   2.483   0.209
14617TIP3    H143787   1.961   2.547   0.175
14617TIP3    H243788   1.924   2.471   0.301
14618TIP3   OH243789   2.233   2.869   1.029
14618TIP3    H143790   2.144   2.870   1.065
14618TIP3    H243791   2.276   2.796   1.072
14619TIP3   OH243792   2.065   2.184   0.309
14619TIP3    H143793   2.041   2.264   0.356
14619TIP3    H243794   2.135   2.211   0.249
14620TIP3   OH243795   4.307   7.495   6.759
14620TIP3    H143796   4.294   7.572   6.703
14620TIP3    H243797   4.288   7.527   6.847
14621TIP3   OH243798   1.584   2.206   0.123
14621TIP3    H143799   1.575   2.297   0.149
14621TIP3    H243800   1.679   2.189   0.126
14622TIP3   OH243801   2.546   2.909   0.364
14622TIP3    H143802   2.474   2.958   0.324
14622TIP3    H243803   2.566   2.957   0.444
14623TIP3   OH243804   4.064   7.098   6.792
14623TIP3    H143805   4.137   7.159   6.802
14623TIP3    H243806   4.095   7.036   6.726
14624TIP3   OH243807   3.976   6.393   6.928
14624TIP3    H143808   3.986   6.487   6.936
14624TIP3    H243809   3.922   6.381   6.850
14625TIP3   OH243810   1.522   2.103   0.850
14625TIP3    H143811   1.494   2.070   0.764
14625TIP3    H243812   1.515   2.028   0.908
14626TIP3   OH243813   1.023   3.328   0.235
14626TIP3    H143814   1.002   3.372   0.318
14626TIP3    H243815   0.975   3.376   0.169
14627TIP3   OH243816   4.518   7.412   6.414
14627TIP3    H143817   4.473   7.339   6.456
14627TIP3    H243818   4.593   7.372   6.370
14628TIP3   OH243819   4.968   7.467   6.325
14628TIP3    H143820   5.001   7.400   6.384
14628TIP3    H243821   5.022   7.458   6.246
14629TIP3   OH243822   4.188   6.909   6.638
14629TIP3    H143823   4.238   6.885   6.716
14629TIP3    H243824   4.254   6.921   6.570
14630TIP3   OH243825   4.766   7.129   6.473
14630TIP3    H143826   4.741   7.140   6.565
14630TIP3    H243827   4.747   7.037   6.454
14631TIP3   OH243828   1.603   3.051   1.514
14631TIP3    H143829   1.636   2.977   1.463
14631TIP3    H243830   1.528   3.015   1.562
14632TIP3   OH243831   4.359   6.848   6.850
14632TIP3    H143832   4.335   6.813   6.936
14632TIP3    H243833   4.409   6.777   6.809
14633TIP3   OH243834   1.750   3.038   1.181
14633TIP3    H143835   1.672   3.067   1.133
14633TIP3    H243836   1.819   3.037   1.115
14634TIP3   OH243837   4.503   6.666   6.699
14634TIP3    H143838   4.473   6.670   6.608
14634TIP3    H243839   4.599   6.666   6.693
14635TIP3   OH243840   5.301   6.956   6.376
14635TIP3    H143841   5.287   6.915   6.291
14635TIP3    H243842   5.280   7.048   6.361
14636TIP3   OH243843   1.898   2.639   1.280
14636TIP3    H143844   1.901   2.567   1.217
14636TIP3    H243845   1.918   2.717   1.228
14637TIP3   OH243846   1.914   2.434   1.090
14637TIP3    H143847   1.953   2.497   1.029
14637TIP3    H243848   1.824   2.422   1.058
14638TIP3   OH243849   1.945   3.077   0.993
14638TIP3    H143850   2.006   3.085   0.919
14638TIP3    H243851   1.902   3.163   0.997
14639TIP3   OH243852   1.859   2.804   1.495
14639TIP3    H143853   1.895   2.775   1.579
14639TIP3    H243854   1.886   2.737   1.432
14640TIP3   OH243855   2.036   2.185   1.094
14640TIP3    H143856   1.995   2.269   1.071
14640TIP3    H243857   1.962   2.125   1.105
14641TIP3   OH243858   2.178   2.799   1.414
14641TIP3    H143859   2.261   2.807   1.459
14641TIP3    H243860   2.143   2.715   1.442
14642TIP3   OH243861   1.685   2.563   1.498
14642TIP3    H143862   1.680   2.476   1.539
14642TIP3    H243863   1.693   2.623   1.572
14643TIP3   OH243864   2.189   2.256   1.442
14643TIP3    H143865   2.277   2.220   1.450
14643TIP3    H243866   2.135   2.181   1.418
14644TIP3   OH243867   4.323   7.722   6.606
14644TIP3    H143868   4.414   7.701   6.582
14644TIP3    H243869   4.290   7.773   6.532
14645TIP3   OH243870   3.792   7.093   6.812
14645TIP3    H143871   3.886   7.106   6.807
14645TIP3    H243872   3.777   7.008   6.771
14646TIP3   OH243873   0.848   3.668   0.335
14646TIP3    H143874   0.786   3.613   0.286
14646TIP3    H243875   0.897   3.607   0.389
14647TIP3   OH243876   0.999   3.477   0.467
14647TIP3    H143877   0.992   3.428   0.549
14647TIP3    H243878   1.085   3.519   0.471
14648TIP3   OH243879   5.449   7.156   6.697
14648TIP3    H143880   5.504   7.226   6.663
14648TIP3    H243881   5.490   7.130   6.780
14649TIP3   OH243882   5.596   7.057   6.915
14649TIP3    H143883   5.527   7.057   6.981
14649TIP3    H243884   5.630   7.146   6.916
14650TIP3   OH243885   5.510   6.936   6.548
14650TIP3    H143886   5.441   6.935   6.481
14650TIP3    H243887   5.490   7.014   6.601
14651TIP3   OH243888   5.338   6.582   6.485
14651TIP3    H143889   5.295   6.611   6.405
14651TIP3    H243890   5.339   6.487   6.480
14652TIP3   OH243891   2.439   2.836   0.037
14652TIP3    H143892   2.479   2.750   0.023
14652TIP3    H243893   2.508   2.888   0.078
14653TIP3   OH243894   1.177   2.938   0.863
14653TIP3    H143895   1.169   2.901   0.775
14653TIP3    H243896   1.270   2.926   0.885
14654TIP3   OH243897   5.320   6.311   6.466
14654TIP3    H143898   5.385   6.284   6.531
14654TIP3    H243899   5.238   6.271   6.496
14655TIP3   OH243900   5.376   6.586   6.903
14655TIP3    H143901   5.428   6.508   6.920
14655TIP3    H243902   5.421   6.630   6.831
14656TIP3   OH243903   1.418   2.604   1.467
14656TIP3    H143904   1.513   2.604   1.454
14656TIP3    H243905   1.403   2.546   1.542
14657TIP3   OH243906   2.689   2.325   0.052
14657TIP3    H143907   2.738   2.282   0.122
14657TIP3    H243908   2.615   2.267   0.035
14658TIP3   OH243909   1.359   2.323   0.883
14658TIP3    H143910   1.412   2.243   0.880
14658TIP3    H243911   1.417   2.391   0.849
14659TIP3   OH243912   1.155   2.585   0.943
14659TIP3    H143913   1.209   2.583   0.864
14659TIP3    H243914   1.150   2.678   0.967
14660TIP3   OH243915   5.545   6.265   6.625
14660TIP3    H143916   5.590   6.207   6.564
14660TIP3    H243917   5.598   6.345   6.628
14661TIP3   OH243918   1.145   2.121   0.444
14661TIP3    H143919   1.058   2.101   0.479
14661TIP3    H243920   1.128   2.170   0.363
14662TIP3   OH243921   5.265   7.822   6.933
14662TIP3    H143922   5.268   7.808   6.838
14662TIP3    H243923   5.174   7.850   6.950
14663TIP3   OH243924   1.362   2.182   1.283
14663TIP3    H143925   1.302   2.154   1.352
14663TIP3    H243926   1.305   2.206   1.210
14664TIP3   OH243927   1.667   3.597   1.019
14664TIP3    H143928   1.643   3.686   1.041
14664TIP3    H243929   1.762   3.601   1.004
14665TIP3   OH243930   3.134   2.433   0.964
14665TIP3    H143931   3.096   2.345   0.964
14665TIP3    H243932   3.205   2.429   0.900
14666TIP3   OH243933   1.494   3.979   0.782
14666TIP3    H143934   1.525   3.911   0.842
14666TIP3    H243935   1.542   3.963   0.701
14667TIP3   OH243936   1.170   3.635   0.712
14667TIP3    H143937   1.162   3.710   0.772
14667TIP3    H243938   1.211   3.672   0.633
14668TIP3   OH243939   1.468   3.515   0.545
14668TIP3    H143940   1.460   3.428   0.584
14668TIP3    H243941   1.507   3.569   0.614
14669TIP3   OH243942   1.748   3.653   0.492
14669TIP3    H143943   1.815   3.599   0.448
14669TIP3    H243944   1.736   3.611   0.577
14670TIP3   OH243945   2.173   2.271   0.603
14670TIP3    H143946   2.131   2.201   0.654
14670TIP3    H243947   2.235   2.225   0.546
14671TIP3   OH243948   2.675   2.178   0.451
14671TIP3    H143949   2.745   2.209   0.394
14671TIP3    H243950   2.609   2.248   0.449
14672TIP3   OH243951   2.857   2.262   0.277
14672TIP3    H143952   2.905   2.190   0.237
14672TIP3    H243953   2.907   2.341   0.255
14673TIP3   OH243954   1.444   2.001   0.607
14673TIP3    H143955   1.354   1.968   0.613
14673TIP3    H243956   1.498   1.922   0.599
14674TIP3   OH243957   1.281   1.924   0.278
14674TIP3    H143958   1.302   1.968   0.196
14674TIP3    H243959   1.242   1.992   0.333
14675TIP3   OH243960   1.913   2.040   0.494
14675TIP3    H143961   1.962   2.091   0.429
14675TIP3    H243962   1.951   2.066   0.578
14676TIP3   OH243963   2.369   2.168   0.449
14676TIP3    H143964   2.393   2.149   0.358
14676TIP3    H243965   2.422   2.108   0.501
14677TIP3   OH243966   2.481   2.142   0.044
14677TIP3    H143967   2.398   2.187   0.062
14677TIP3    H243968   2.467   2.052   0.075
14678TIP3   OH243969   0.935   3.480   0.027
14678TIP3    H143970   0.855   3.449  -0.016
14678TIP3    H243971   0.943   3.571  -0.002
14679TIP3   OH243972   1.377   2.041   0.031
14679TIP3    H143973   1.423   1.980  -0.027
14679TIP3    H243974   1.446   2.097   0.066
14680TIP3   OH243975   1.858   2.229   0.121
14680TIP3    H143976   1.917   2.178   0.177
14680TIP3    H243977   1.871   2.320   0.149
14681TIP3   OH243978   4.580   7.639   6.547
14681TIP3    H143979   4.662   7.666   6.506
14681TIP3    H243980   4.549   7.566   6.494
14682TIP3   OH243981   5.297   7.782   6.661
14682TIP3    H143982   5.286   7.688   6.649
14682TIP3    H243983   5.254   7.821   6.585
14683TIP3   OH243984   1.682   2.299   1.592
14683TIP3    H143985   1.638   2.214   1.587
14683TIP3    H243986   1.768   2.285   1.554
14684TIP3   OH243987   1.940   2.204   1.585
14684TIP3    H143988   1.953   2.270   1.517
14684TIP3    H243989   1.958   2.121   1.542
14685TIP3   OH243990   3.887   7.486   6.622
14685TIP3    H143991   3.891   7.502   6.717
14685TIP3    H243992   3.968   7.439   6.602
14686TIP3   OH243993   5.708   6.842   6.791
14686TIP3    H143994   5.672   6.919   6.833
14686TIP3    H243995   5.632   6.800   6.750
14687TIP3   OH243996   3.041   3.108   0.138
14687TIP3    H143997   3.124   3.068   0.164
14687TIP3    H243998   3.047   3.115   0.043
14688TIP3   OH243999   3.551   2.676   0.072
14688TIP3    H144000   3.494   2.741   0.030
14688TIP3    H244001   3.514   2.592   0.048
14689TIP3   OH244002   3.242   2.917   0.144
14689TIP3    H144003   3.318   2.939   0.090
14689TIP3    H244004   3.214   2.831   0.113
14690TIP3   OH244005   5.626   7.335   6.575
14690TIP3    H144006   5.601   7.330   6.483
14690TIP3    H244007   5.624   7.428   6.596
14691TIP3   OH244008   6.579   6.948   6.145
14691TIP3    H144009   6.633   7.014   6.188
14691TIP3    H244010   6.642   6.886   6.108
14692TIP3   OH244011   7.294   6.326   6.265
14692TIP3    H144012   7.221   6.341   6.325
14692TIP3    H244013   7.303   6.409   6.218
14693TIP3   OH244014   6.070   7.030   6.555
14693TIP3    H144015   5.990   7.081   6.546
14693TIP3    H244016   6.041   6.945   6.589
14694TIP3   OH244017   6.828   7.081   5.943
14694TIP3    H144018   6.820   7.053   5.851
14694TIP3    H244019   6.907   7.136   5.944
14695TIP3   OH244020   6.582   6.482   6.284
14695TIP3    H144021   6.549   6.484   6.374
14695TIP3    H244022   6.539   6.406   6.245
14696TIP3   OH244023   6.230   6.845   6.844
14696TIP3    H144024   6.135   6.847   6.830
14696TIP3    H244025   6.266   6.805   6.765
14697TIP3   OH244026   6.243   6.482   6.259
14697TIP3    H144027   6.233   6.480   6.354
14697TIP3    H244028   6.165   6.529   6.228
14698TIP3   OH244029   3.008   2.458   0.180
14698TIP3    H144030   3.075   2.522   0.203
14698TIP3    H244031   2.990   2.474   0.088
14699TIP3   OH244032   5.691   6.499   6.630
14699TIP3    H144033   5.737   6.536   6.555
14699TIP3    H244034   5.634   6.570   6.660
14700TIP3   OH244035   5.974   6.828   6.741
14700TIP3    H144036   5.880   6.832   6.757
14700TIP3    H244037   5.989   6.738   6.710
14701TIP3   OH244038   6.266   6.731   6.598
14701TIP3    H144039   6.359   6.745   6.577
14701TIP3    H244040   6.220   6.757   6.518
14702TIP3   OH244041   6.140   6.774   6.362
14702TIP3    H144042   6.077   6.726   6.308
14702TIP3    H244043   6.194   6.822   6.299
14703TIP3   OH244044   6.228   6.485   6.881
14703TIP3    H144045   6.167   6.412   6.875
14703TIP3    H244046   6.299   6.462   6.821
14704TIP3   OH244047   6.331   7.328   6.450
14704TIP3    H144048   6.287   7.252   6.412
14704TIP3    H244049   6.266   7.364   6.512
14705TIP3   OH244050   6.804   6.636   6.276
14705TIP3    H144051   6.721   6.589   6.277
14705TIP3    H244052   6.794   6.701   6.207
14706TIP3   OH244053   5.752   6.927   6.415
14706TIP3    H144054   5.794   7.011   6.432
14706TIP3    H244055   5.671   6.929   6.465
14707TIP3   OH244056   6.183   7.467   6.001
14707TIP3    H144057   6.176   7.376   5.974
14707TIP3    H244058   6.166   7.466   6.095
14708TIP3   OH244059   6.157   7.476   6.273
14708TIP3    H144060   6.223   7.421   6.316
14708TIP3    H244061   6.150   7.554   6.329
14709TIP3   OH244062   5.844   7.179   6.484
14709TIP3    H144063   5.780   7.223   6.541
14709TIP3    H244064   5.864   7.243   6.417
14710TIP3   OH244065   6.904   6.568   6.522
14710TIP3    H144066   6.873   6.586   6.433
14710TIP3    H244067   6.929   6.653   6.557
14711TIP3   OH244068   6.543   6.745   6.617
14711TIP3    H144069   6.635   6.755   6.594
14711TIP3    H244070   6.537   6.775   6.708
14712TIP3   OH244071   6.764   6.454   6.730
14712TIP3    H144072   6.821   6.467   6.805
14712TIP3    H244073   6.809   6.495   6.656
14713TIP3   OH244074   6.219   6.462   6.533
14713TIP3    H144075   6.210   6.551   6.568
14713TIP3    H244076   6.313   6.445   6.536
14714TIP3   OH244077   5.858   7.370   6.275
14714TIP3    H144078   5.916   7.446   6.276
14714TIP3    H244079   5.900   7.309   6.215
14715TIP3   OH244080   5.769   6.651   6.419
14715TIP3    H144081   5.782   6.746   6.422
14715TIP3    H244082   5.723   6.637   6.335
14716TIP3   OH244083   3.361   2.387   0.477
14716TIP3    H144084   3.342   2.370   0.385
14716TIP3    H244085   3.386   2.301   0.512
14717TIP3   OH244086   5.618   7.604   6.631
14717TIP3    H144087   5.540   7.641   6.672
14717TIP3    H244088   5.625   7.649   6.547
14718TIP3   OH244089   6.329   7.672   5.890
14718TIP3    H144090   6.282   7.602   5.935
14718TIP3    H244091   6.409   7.630   5.858
14719TIP3   OH244092   5.994   7.181   6.133
14719TIP3    H144093   6.050   7.160   6.208
14719TIP3    H244094   6.054   7.189   6.059
14720TIP3   OH244095   6.489   7.382   5.953
14720TIP3    H144096   6.420   7.387   6.019
14720TIP3    H244097   6.504   7.288   5.941
14721TIP3   OH244098   6.187   7.124   6.330
14721TIP3    H144099   6.150   7.084   6.409
14721TIP3    H244100   6.232   7.052   6.286
14722TIP3   OH244101   6.304   6.918   6.190
14722TIP3    H144102   6.274   6.923   6.100
14722TIP3    H244103   6.400   6.920   6.184
14723TIP3   OH244104   5.587   7.338   6.299
14723TIP3    H144105   5.681   7.354   6.289
14723TIP3    H244106   5.571   7.257   6.251
14724TIP3   OH244107   7.036   6.836   6.014
14724TIP3    H144108   7.069   6.899   5.950
14724TIP3    H244109   7.071   6.752   5.985
14725TIP3   OH244110   7.120   6.576   5.957
14725TIP3    H144111   7.187   6.558   6.022
14725TIP3    H244112   7.041   6.536   5.992
14726TIP3   OH244113   3.155   2.569   0.431
14726TIP3    H144114   3.199   2.489   0.458
14726TIP3    H244115   3.223   2.621   0.389
14727TIP3   OH244116   2.867   2.952   0.434
14727TIP3    H144117   2.842   2.867   0.397
14727TIP3    H244118   2.959   2.963   0.407
14728TIP3   OH244119   7.362   6.533   6.092
14728TIP3    H144120   7.402   6.462   6.042
14728TIP3    H244121   7.423   6.606   6.083
14729TIP3   OH244122   5.773   6.328   6.839
14729TIP3    H144123   5.686   6.319   6.879
14729TIP3    H244124   5.770   6.412   6.793
14730TIP3   OH244125   6.046   6.278   6.895
14730TIP3    H144126   5.951   6.280   6.887
14730TIP3    H244127   6.065   6.190   6.929
14731TIP3   OH244128   5.876   6.150   6.653
14731TIP3    H144129   5.917   6.202   6.584
14731TIP3    H244130   5.838   6.215   6.713
14732TIP3   OH244131   6.519   6.415   6.842
14732TIP3    H144132   6.600   6.445   6.801
14732TIP3    H244133   6.545   6.387   6.930
14733TIP3   OH244134   7.098   6.383   6.444
14733TIP3    H144135   7.030   6.441   6.477
14733TIP3    H244136   7.089   6.303   6.496
14734TIP3   OH244137   5.594   7.726   6.385
14734TIP3    H144138   5.504   7.697   6.367
14734TIP3    H244139   5.592   7.821   6.371
14735TIP3   OH244140   6.008   6.298   6.453
14735TIP3    H144141   6.054   6.241   6.393
14735TIP3    H244142   6.075   6.355   6.490
14736TIP3   OH244143   6.493   6.484   6.547
14736TIP3    H144144   6.524   6.433   6.622
14736TIP3    H244145   6.510   6.575   6.572
14737TIP3   OH244146   5.679   7.715   6.111
14737TIP3    H144147   5.671   7.715   6.206
14737TIP3    H244148   5.765   7.676   6.094
14738TIP3   OH244149   5.466   0.227   6.777
14738TIP3    H144150   5.513   0.254   6.856
14738TIP3    H244151   5.526   0.167   6.733
14739TIP3   OH244152   0.522   3.609   0.004
14739TIP3    H144153   0.447   3.628   0.061
14739TIP3    H244154   0.533   3.688  -0.048
14740TIP3   OH244155   5.740   0.341   6.624
14740TIP3    H144156   5.704   0.336   6.535
14740TIP3    H244157   5.797   0.418   6.622
14741TIP3   OH244158   8.279   3.805   0.008
14741TIP3    H144159   8.216   3.839   0.071
14741TIP3    H244160   8.249   3.716  -0.010
14742TIP3   OH244161   2.274   7.773   6.896
14742TIP3    H144162   2.211   7.763   6.967
14742TIP3    H244163   2.223   7.808   6.823
14743TIP3   OH244164   2.875   7.893   6.930
14743TIP3    H144165   2.780   7.882   6.933
14743TIP3    H244166   2.888   7.986   6.911
14744TIP3   OH244167   5.799   0.138   6.889
14744TIP3    H144168   5.882   0.123   6.933
14744TIP3    H244169   5.813   0.217   6.837
14745TIP3   OH244170   6.200   0.257   6.818
14745TIP3    H144171   6.141   0.216   6.755
14745TIP3    H244172   6.204   0.349   6.792
14746TIP3   OH244173   0.145   3.860   0.242
14746TIP3    H144174   0.106   3.860   0.155
14746TIP3    H244175   0.156   3.952   0.264
14747TIP3   OH244176   6.013   0.516   6.519
14747TIP3    H144177   5.967   0.459   6.458
14747TIP3    H244178   6.092   0.543   6.471
14748TIP3   OH244179   6.198   0.522   6.724
14748TIP3    H144180   6.122   0.518   6.667
14748TIP3    H244181   6.203   0.613   6.752
14749TIP3   OH244182   6.033   0.145   6.632
14749TIP3    H144183   5.978   0.166   6.556
14749TIP3    H244184   6.029   0.049   6.639
14750TIP3   OH244185   3.167   7.886   6.629
14750TIP3    H144186   3.233   7.855   6.691
14750TIP3    H244187   3.088   7.837   6.652
14751TIP3   OH244188   0.381   4.103   0.068
14751TIP3    H144189   0.432   4.035   0.113
14751TIP3    H244190   0.446   4.154   0.021
14752TIP3   OH244191   0.525   3.888   0.196
14752TIP3    H144192   0.557   3.878   0.286
14752TIP3    H244193   0.462   3.818   0.186
14753TIP3   OH244194   3.399   7.827   6.774
14753TIP3    H144195   3.446   7.767   6.716
14753TIP3    H244196   3.452   7.906   6.775
14754TIP3   OH244197   0.565   3.824   0.725
14754TIP3    H144198   0.607   3.831   0.639
14754TIP3    H244199   0.473   3.808   0.705
14755TIP3   OH244200   0.660   3.834   0.451
14755TIP3    H144201   0.728   3.773   0.421
14755TIP3    H244202   0.697   3.921   0.433
14756TIP3   OH244203   0.311   3.754   0.646
14756TIP3    H144204   0.265   3.741   0.563
14756TIP3    H244205   0.294   3.675   0.697
14757TIP3   OH244206   0.343   3.681   0.195
14757TIP3    H144207   0.269   3.738   0.214
14757TIP3    H244208   0.322   3.599   0.239
14758TIP3   OH244209   7.752   3.622   0.120
14758TIP3    H144210   7.780   3.544   0.073
14758TIP3    H244211   7.736   3.592   0.209
14759TIP3   OH244212   0.724   4.334   0.071
14759TIP3    H144213   0.681   4.403   0.123
14759TIP3    H244214   0.655   4.304   0.011
14760TIP3   OH244215   1.391   4.123   0.211
14760TIP3    H144216   1.366   4.214   0.219
14760TIP3    H244217   1.326   4.084   0.152
14761TIP3   OH244218   7.710   0.285   6.739
14761TIP3    H144219   7.805   0.279   6.736
14761TIP3    H244220   7.689   0.362   6.687
14762TIP3   OH244221   1.455   4.633   0.059
14762TIP3    H144222   1.504   4.632  -0.023
14762TIP3    H244223   1.385   4.569   0.047
14763TIP3   OH244224   1.205   4.472   0.361
14763TIP3    H144225   1.239   4.521   0.436
14763TIP3    H244226   1.203   4.381   0.391
14764TIP3   OH244227   1.655   3.935   0.313
14764TIP3    H144228   1.704   3.876   0.371
14764TIP3    H244229   1.587   3.971   0.369
14765TIP3   OH244230   7.307   0.707   6.625
14765TIP3    H144231   7.221   0.748   6.622
14765TIP3    H244232   7.348   0.728   6.541
14766TIP3   OH244233   7.253   0.446   6.314
14766TIP3    H144234   7.304   0.517   6.353
14766TIP3    H244235   7.316   0.399   6.259
14767TIP3   OH244236   6.919   0.799   6.861
14767TIP3    H144237   6.853   0.733   6.844
14767TIP3    H244238   6.955   0.776   6.947
14768TIP3   OH244239   7.468   0.661   6.384
14768TIP3    H144240   7.478   0.756   6.375
14768TIP3    H244241   7.483   0.627   6.296
14769TIP3   OH244242   5.150   7.885   6.447
14769TIP3    H144243   5.077   7.912   6.502
14769TIP3    H244244   5.154   7.950   6.378
14770TIP3   OH244245   6.748   0.582   6.787
14770TIP3    H144246   6.668   0.624   6.756
14770TIP3    H244247   6.719   0.500   6.828
14771TIP3   OH244248   1.456   4.052   0.466
14771TIP3    H144249   1.419   4.065   0.379
14771TIP3    H244250   1.467   4.140   0.502
14772TIP3   OH244251   7.525   0.595   6.126
14772TIP3    H144252   7.492   0.576   6.038
14772TIP3    H244253   7.557   0.685   6.120
14773TIP3   OH244254   7.253   0.050   6.414
14773TIP3    H144255   7.211   0.058   6.500
14773TIP3    H244256   7.221  -0.033   6.379
14774TIP3   OH244257   1.285   4.408   0.050
14774TIP3    H144258   1.213   4.380   0.107
14774TIP3    H244259   1.262   4.372  -0.036
14775TIP3   OH244260   7.367   0.440   6.636
14775TIP3    H144261   7.345   0.532   6.625
14775TIP3    H244262   7.447   0.428   6.585
14776TIP3   OH244263   6.912   0.026   6.418
14776TIP3    H144264   6.902   0.026   6.513
14776TIP3    H244265   6.833   0.070   6.386
14777TIP3   OH244266   0.822   4.027   0.328
14777TIP3    H144267   0.901   3.987   0.363
14777TIP3    H244268   0.816   3.995   0.238
14778TIP3   OH244269   6.383   0.047   6.783
14778TIP3    H144270   6.433   0.075   6.706
14778TIP3    H244271   6.324   0.120   6.801
14779TIP3   OH244272   1.601   4.207   0.048
14779TIP3    H144273   1.526   4.187   0.104
14779TIP3    H244274   1.677   4.181   0.101
14780TIP3   OH244275   0.980   4.377  -0.011
14780TIP3    H144276   0.887   4.362   0.007
14780TIP3    H244277   1.025   4.310   0.041
14781TIP3   OH244278   6.901   0.271   6.752
14781TIP3    H144279   6.994   0.287   6.733
14781TIP3    H244280   6.856   0.295   6.671
14782TIP3   OH244281   6.795   0.313   6.503
14782TIP3    H144282   6.734   0.262   6.450
14782TIP3    H244283   6.862   0.343   6.442
14783TIP3   OH244284   1.191   4.000   0.065
14783TIP3    H144285   1.137   3.932   0.106
14783TIP3    H244286   1.201   3.971  -0.025
14784TIP3   OH244287   7.043   0.796   6.618
14784TIP3    H144288   6.979   0.734   6.583
14784TIP3    H244289   7.015   0.813   6.707
14785TIP3   OH244290   7.502   0.162   6.398
14785TIP3    H144291   7.408   0.144   6.402
14785TIP3    H244292   7.509   0.256   6.416
14786TIP3   OH244293   7.591   0.426   6.477
14786TIP3    H144294   7.686   0.425   6.479
14786TIP3    H244295   7.568   0.513   6.445
14787TIP3   OH244296   7.098   0.973   6.416
14787TIP3    H144297   7.162   1.037   6.447
14787TIP3    H244298   7.071   0.925   6.495
14788TIP3   OH244299   8.008   0.465   6.303
14788TIP3    H144300   7.938   0.440   6.242
14788TIP3    H244301   8.035   0.552   6.274
14789TIP3   OH244302   6.433   0.466   6.580
14789TIP3    H144303   6.485   0.542   6.605
14789TIP3    H244304   6.351   0.476   6.628
14790TIP3   OH244305   7.474   0.919   6.284
14790TIP3    H144306   7.525   0.912   6.203
14790TIP3    H244307   7.383   0.920   6.254
14791TIP3   OH244308   6.838   0.887   6.343
14791TIP3    H144309   6.836   0.821   6.275
14791TIP3    H244310   6.912   0.943   6.321
14792TIP3   OH244311   6.529   0.708   6.680
14792TIP3    H144312   6.493   0.764   6.749
14792TIP3    H244313   6.524   0.761   6.601
14793TIP3   OH244314   7.544   0.082   6.657
14793TIP3    H144315   7.532   0.106   6.565
14793TIP3    H244316   7.592   0.156   6.695
14794TIP3   OH244317   7.173   0.294   6.750
14794TIP3    H144318   7.241   0.346   6.706
14794TIP3    H244319   7.208   0.276   6.837
14795TIP3   OH244320   7.351  -0.013   6.827
14795TIP3    H144321   7.333   0.060   6.886
14795TIP3    H244322   7.424   0.017   6.774
14796TIP3   OH244323   6.874  -0.001   6.707
14796TIP3    H144324   6.862   0.090   6.733
14796TIP3    H244325   6.969  -0.011   6.697
14797TIP3   OH244326   6.502   0.864   6.448
14797TIP3    H144327   6.541   0.948   6.422
14797TIP3    H244328   6.552   0.798   6.401
14798TIP3   OH244329   6.463   0.187   6.562
14798TIP3    H144330   6.479   0.278   6.586
14798TIP3    H244331   6.409   0.192   6.483
14799TIP3   OH244332   1.051   3.928   0.461
14799TIP3    H144333   1.073   3.886   0.378
14799TIP3    H244334   1.127   3.910   0.517
14800TIP3   OH244335   6.645   0.650   6.351
14800TIP3    H144336   6.700   0.640   6.429
14800TIP3    H244337   6.708   0.659   6.279
14801TIP3   OH244338   7.224   0.918   6.178
14801TIP3    H144339   7.169   0.955   6.246
14801TIP3    H244340   7.191   0.828   6.167
14802TIP3   OH244341   6.857   0.614   6.534
14802TIP3    H144342   6.823   0.590   6.620
14802TIP3    H244343   6.885   0.531   6.495
14803TIP3   OH244344   6.981   0.436   6.349
14803TIP3    H144345   6.956   0.429   6.257
14803TIP3    H244346   7.077   0.430   6.348
14804TIP3   OH244347   7.846   0.765   6.009
14804TIP3    H144348   7.807   0.707   5.944
14804TIP3    H244349   7.922   0.804   5.965
14805TIP3   OH244350   6.234   0.800   6.498
14805TIP3    H144351   6.320   0.840   6.489
14805TIP3    H244352   6.236   0.724   6.438
14806TIP3   OH244353   8.061   0.694   6.168
14806TIP3    H144354   7.976   0.712   6.128
14806TIP3    H244355   8.111   0.775   6.156
14807TIP3   OH244356   7.824   0.401   6.115
14807TIP3    H144357   7.768   0.427   6.042
14807TIP3    H244358   7.812   0.306   6.122
14808TIP3   OH244359   7.770   0.135   6.117
14808TIP3    H144360   7.842   0.093   6.164
14808TIP3    H244361   7.696   0.076   6.127
14809TIP3   OH244362   7.868   0.428   6.534
14809TIP3    H144363   7.902   0.342   6.560
14809TIP3    H244364   7.919   0.451   6.456
14810TIP3   OH244365   7.966   0.184   6.624
14810TIP3    H144366   8.011   0.192   6.709
14810TIP3    H244367   7.917   0.102   6.632
14811TIP3   OH244368   0.942   4.145   0.599
14811TIP3    H144369   0.972   4.061   0.563
14811TIP3    H244370   0.906   4.192   0.523
14812TIP3   OH244371   8.005   0.050   6.241
14812TIP3    H144372   8.042  -0.013   6.179
14812TIP3    H244373   8.069   0.122   6.243
14813TIP3   OH244374   0.775   3.919   0.073
14813TIP3    H144375   0.686   3.899   0.103
14813TIP3    H244376   0.763   3.974  -0.004
14814TIP3   OH244377   1.810   4.100   0.166
14814TIP3    H144378   1.773   4.030   0.220
14814TIP3    H244379   1.869   4.054   0.106
14815TIP3   OH244380   1.047   3.814   0.206
14815TIP3    H144381   0.962   3.777   0.231
14815TIP3    H244382   1.100   3.738   0.183
14816TIP3   OH244383   3.751   7.735   6.853
14816TIP3    H144384   3.770   7.780   6.771
14816TIP3    H244385   3.712   7.802   6.909
14817TIP3   OH244386   1.510   3.868   0.079
14817TIP3    H144387   1.565   3.893   0.005
14817TIP3    H244388   1.561   3.893   0.156
14818TIP3   OH244389   4.807   7.995   6.917
14818TIP3    H144390   4.892   7.967   6.951
14818TIP3    H244391   4.783   7.928   6.853
14819TIP3   OH244392   4.962   7.976   6.628
14819TIP3    H144393   4.877   8.020   6.634
14819TIP3    H244394   4.945   7.887   6.660
14820TIP3   OH244395   3.841   7.852   6.607
14820TIP3    H144396   3.889   7.792   6.549
14820TIP3    H244397   3.908   7.908   6.646
14821TIP3   OH244398   7.139   0.039   6.664
14821TIP3    H144399   7.206  -0.007   6.715
14821TIP3    H244400   7.148   0.131   6.691
14822TIP3   OH244401   0.215   0.319   5.865
14822TIP3    H144402   0.210   0.324   5.960
14822TIP3    H244403   0.132   0.356   5.835
14823TIP3   OH244404   8.186   0.260   6.254
14823TIP3    H144405   8.231   0.288   6.175
14823TIP3    H244406   8.131   0.334   6.278
14824TIP3   OH244407   8.191   0.456   6.046
14824TIP3    H144408   8.236   0.531   6.086
14824TIP3    H244409   8.098   0.472   6.065
14825TIP3   OH244410   8.216   0.133   6.492
14825TIP3    H144411   8.130   0.139   6.534
14825TIP3    H244412   8.207   0.183   6.412
14826TIP3   OH244413   5.498   7.971   6.303
14826TIP3    H144414   5.523   8.032   6.234
14826TIP3    H244415   5.464   8.026   6.373
14827TIP3   OH244416   8.457   0.110   6.097
14827TIP3    H144417   8.490   0.041   6.039
14827TIP3    H244418   8.533   0.138   6.147
   8.50000   8.01388   6.94022   0.00000   0.00000  -2.83333   0.00000  -2.83333  -4.00694
