        68  EXT
         1         1  ASP       N               0.5860000000        4.1460000000       10.1440000000  PROA      1              55.7300000000
         2         1  ASP       CA             -0.0190000000        2.8390000000        9.9050000000  PROA      1              56.5200000000
         3         1  ASP       C               0.7430000000        2.0700000000        8.8290000000  PROA      1              58.3300000000
         4         1  ASP       CB             -1.4870000000        2.9930000000        9.5020000000  PROA      1              51.6900000000
         5         1  ASP       O               1.0360000000        2.6120000000        7.7610000000  PROA      1              55.5100000000
         6         1  ASP       CG             -2.2330000000        1.6710000000        9.4620000000  PROA      1              51.7500000000
         7         1  ASP       OD1            -2.3030000000        0.9780000000       10.5000000000  PROA      1              57.2000000000
         8         1  ASP       OD2            -2.7520000000        1.3160000000        8.3820000000  PROA      1              63.8800000000
         9         2  ALA       N               1.7050000000        1.3100000000        9.1720000000  PROA      2              60.5500000000
        10         2  ALA       CA              2.7080000000        0.9590000000        8.1700000000  PROA      2              58.5100000000
        11         2  ALA       C               2.0790000000        0.1950000000        7.0090000000  PROA      2              60.2700000000
        12         2  ALA       CB              3.8250000000        0.1320000000        8.8030000000  PROA      2              55.1000000000
        13         2  ALA       O               2.6100000000        0.1980000000        5.8960000000  PROA      2              58.2100000000
        14         3  ASP       N               0.8620000000       -0.2370000000        7.0750000000  PROA      3              62.5500000000
        15         3  ASP       CA              0.1880000000       -0.8040000000        5.9100000000  PROA      3              61.3700000000
        16         3  ASP       C              -0.8390000000        0.1730000000        5.3410000000  PROA      3              62.8200000000
        17         3  ASP       CB             -0.4900000000       -2.1270000000        6.2730000000  PROA      3              56.9300000000
        18         3  ASP       O              -1.8940000000        0.3920000000        5.9400000000  PROA      3              60.9300000000
        19         3  ASP       CG              0.5000000000       -3.2520000000        6.5200000000  PROA      3              53.7400000000
        20         3  ASP       OD1             1.6180000000       -3.2130000000        5.9630000000  PROA      3              58.9600000000
        21         3  ASP       OD2             0.1580000000       -4.1870000000        7.2760000000  PROA      3              63.6200000000
        22         4  GLY       N              -0.5460000000        1.5170000000        5.6320000000  PROA      4              67.9800000000
        23         4  GLY       CA             -1.3120000000        2.4800000000        4.8580000000  PROA      4              66.1300000000
        24         4  GLY       C              -2.5170000000        1.8670000000        4.1690000000  PROA      4              67.0600000000
        25         4  GLY       O              -2.7190000000        0.6530000000        4.2240000000  PROA      4              62.6200000000
        26         5  PRO       N              -3.5760000000        2.4090000000        3.9480000000  PROA      5              71.2200000000
        27         5  PRO       CA             -4.7580000000        1.9350000000        3.2250000000  PROA      5              69.6800000000
        28         5  PRO       C              -4.4230000000        0.8780000000        2.1740000000  PROA      5              71.0500000000
        29         5  PRO       CB             -5.3020000000        3.2060000000        2.5670000000  PROA      5              66.2800000000
        30         5  PRO       O              -3.3560000000        0.9320000000        1.5580000000  PROA      5              66.7300000000
        31         5  PRO       CG             -4.1430000000        4.1490000000        2.5420000000  PROA      5              63.6700000000
        32         5  PRO       CD             -3.1000000000        3.6480000000        3.4990000000  PROA      5              63.5500000000
        33         6  GLY       N              -4.5930000000       -0.3680000000        2.4190000000  PROA      6              76.0500000000
        34         6  GLY       CA             -4.5980000000       -1.5200000000        1.5310000000  PROA      6              75.3600000000
        35         6  GLY       C              -4.7810000000       -1.1470000000        0.0720000000  PROA      6              76.0900000000
        36         6  GLY       O              -5.2750000000       -0.0610000000       -0.2390000000  PROA      6              73.8700000000
        37         7  ASP       N              -3.8630000000       -1.9340000000       -1.0380000000  PROA      7              75.5800000000
        38         7  ASP       CA             -3.8830000000       -1.7470000000       -2.4850000000  PROA      7              77.0100000000
        39         7  ASP       C              -5.2730000000       -2.0160000000       -3.0560000000  PROA      7              78.5400000000
        40         7  ASP       CB             -2.8530000000       -2.6570000000       -3.1580000000  PROA      7              73.6300000000
        41         7  ASP       O              -5.7910000000       -3.1290000000       -2.9430000000  PROA      7              77.8600000000
        42         7  ASP       CG             -2.6900000000       -2.3740000000       -4.6410000000  PROA      7              71.2600000000
        43         7  ASP       OD1            -3.3950000000       -1.4900000000       -5.1740000000  PROA      7              73.9100000000
        44         7  ASP       OD2            -1.8510000000       -3.0420000000       -5.2820000000  PROA      7              76.1900000000
        45         8  PRO       N              -6.1590000000       -0.7970000000       -3.3100000000  PROA      8              77.5900000000
        46         8  PRO       CA             -7.5070000000       -1.0770000000       -3.8100000000  PROA      8              77.7400000000
        47         8  PRO       C              -7.5090000000       -2.0500000000       -4.9870000000  PROA      8              78.9400000000
        48         8  PRO       CB             -8.0170000000        0.3010000000       -4.2390000000  PROA      8              75.7300000000
        49         8  PRO       O              -8.5290000000       -2.6850000000       -5.2660000000  PROA      8              78.2700000000
        50         8  PRO       CG             -6.9720000000        1.2590000000       -3.7690000000  PROA      8              73.8700000000
        51         8  PRO       CD             -5.8040000000        0.4720000000       -3.2470000000  PROA      8              74.1900000000
        52         9  ASP       N              -6.4530000000       -2.1910000000       -5.5940000000  PROA      9              75.0800000000
        53         9  ASP       CA             -6.4230000000       -2.9880000000       -6.8160000000  PROA      9              74.7600000000
        54         9  ASP       C              -5.8820000000       -4.3900000000       -6.5450000000  PROA      9              73.3700000000
        55         9  ASP       CB             -5.5780000000       -2.2960000000       -7.8880000000  PROA      9              71.2300000000
        56         9  ASP       O              -5.8290000000       -5.2260000000       -7.4490000000  PROA      9              70.5400000000
        57         9  ASP       CG             -6.1700000000       -0.9760000000       -8.3490000000  PROA      9              69.1300000000
        58         9  ASP       OD1            -7.3040000000       -0.6410000000       -7.9440000000  PROA      9              69.2800000000
        59         9  ASP       OD2            -5.4970000000       -0.2650000000       -9.1270000000  PROA      9              70.6800000000
        60        10  ALA       N              -5.4620000000       -4.6430000000       -5.1950000000  PROA      10             75.6900000000
        61        10  ALA       CA             -4.8920000000       -5.9640000000       -4.9440000000  PROA      10             73.6500000000
        62        10  ALA       C              -5.9270000000       -7.0610000000       -5.1740000000  PROA      10             73.8400000000
        63        10  ALA       CB             -4.3420000000       -6.0450000000       -3.5220000000  PROA      10             72.1700000000
        64        10  ALA       O              -7.0040000000       -7.0430000000       -4.5730000000  PROA      10             72.3800000000
        65        11  GLY       N              -6.8440000000       -7.3420000000       -5.9850000000  PROA      11             76.0100000000
        66        11  GLY       CA             -7.5080000000       -8.4970000000       -6.5690000000  PROA      11             75.7400000000
        67        11  GLY       C              -7.2110000000       -8.6720000000       -8.0460000000  PROA      11             76.8600000000
        68        11  GLY       O              -6.6510000000       -7.7780000000       -8.6830000000  PROA      11             75.1200000000
