* GENERATED BY CHARMM-GUI (HTTP://WWW.CHARMM-GUI.ORG) V3.7 ON JUN, 17. 2026. JOB
* SETUP PERIODIC BOUNDARY CONDITION
*  DATE:     6/17/26     23:46:33      CREATED BY USER: charmm-gui
*
     19942  EXT
         1         1  ASP       N              10.4389360006        2.6484629563       -3.3825037751  PROA      1              55.7300000000
         2         1  ASP       HT1            11.2158613228        2.1837902987       -3.9061671107  PROA      1               0.0000000000
         3         1  ASP       HT2            10.7919912724        3.5771881444       -3.0787028442  PROA      1               0.0000000000
         4         1  ASP       HT3             9.6336543866        2.8090635113       -4.0389620828  PROA      1               0.0000000000
         5         1  ASP       CA              9.9284808585        1.9161635350       -2.2272686885  PROA      1              56.5200000000
         6         1  ASP       HA             10.7787426750        1.5041188891       -1.6973811278  PROA      1               0.0000000000
         7         1  ASP       CB              9.1522923422        2.8524416810       -1.2987948760  PROA      1              51.6900000000
         8         1  ASP       HB1             8.2059781734        3.2011654124       -1.7713985169  PROA      1               0.0000000000
         9         1  ASP       HB2             9.7531813644        3.7518012583       -1.0404227452  PROA      1               0.0000000000
        10         1  ASP       CG              8.7922291485        2.2076416457        0.0280010431  PROA      1              51.7500000000
        11         1  ASP       OD1             9.7056291392        1.7809414938        0.7670683184  PROA      1              57.2000000000
        12         1  ASP       OD2             7.5841973694        2.1208665332        0.3360843120  PROA      1              63.8800000000
        13         1  ASP       C               9.0402878052        0.7538122893       -2.6629677611  PROA      1              58.3300000000
        14         1  ASP       O               8.1462238848        0.9264519426       -3.4942813339  PROA      1              55.5100000000
        15         2  ALA       N               9.5663999229       -0.3870674035       -2.8686193258  PROA      2              60.5500000000
        16         2  ALA       HN             10.3884886022       -0.7149858526       -2.4075653937  PROA      2               0.0000000000
        17         2  ALA       CA              8.8522001216       -1.3428923652       -3.7109561269  PROA      2              58.5100000000
        18         2  ALA       HA              8.6560135321       -0.9289497686       -4.6891163941  PROA      2               0.0000000000
        19         2  ALA       CB              9.6926905983       -2.6011581535       -3.9174748050  PROA      2              55.1000000000
        20         2  ALA       HB1             9.8235945148       -3.1551924695       -2.9686676205  PROA      2               0.0000000000
        21         2  ALA       HB2            10.6866732234       -2.3276899003       -4.3267175503  PROA      2               0.0000000000
        22         2  ALA       HB3             9.1989972485       -3.2759463361       -4.6461798775  PROA      2               0.0000000000
        23         2  ALA       C               7.5003137768       -1.7052274046       -3.1040173903  PROA      2              60.2700000000
        24         2  ALA       O               6.5811629548       -2.1113684186       -3.8188252268  PROA      2              58.2100000000
        25         3  ASP       N               7.1905513994       -1.3463669365       -1.9009648419  PROA      3              62.5500000000
        26         3  ASP       HN              7.8257749449       -0.9179354325       -1.2694633250  PROA      3               0.0000000000
        27         3  ASP       CA              5.8398125691       -1.5232923533       -1.3744745672  PROA      3              61.3700000000
        28         3  ASP       HA              5.2353557495       -2.1618124162       -2.0063943357  PROA      3               0.0000000000
        29         3  ASP       CB              5.8841844073       -2.1713496032        0.0111065169  PROA      3              56.9300000000
        30         3  ASP       HB1             4.8831050521       -2.1321723164        0.4887901127  PROA      3               0.0000000000
        31         3  ASP       HB2             6.6012104236       -1.5975860203        0.6251585029  PROA      3               0.0000000000
        32         3  ASP       CG              6.2939322042       -3.6332127094       -0.0312845406  PROA      3              53.7400000000
        33         3  ASP       OD1             6.0717636303       -4.2984972555       -1.0655628384  PROA      3              58.9600000000
        34         3  ASP       OD2             6.8411890873       -4.1248015673        0.9794455415  PROA      3              63.6200000000
        35         3  ASP       C               5.0985754751       -0.1895228112       -1.3063175500  PROA      3              62.8200000000
        36         3  ASP       O               5.4010230812        0.6524467467       -0.4581432111  PROA      3              60.9300000000
        37         4  GLY       N               5.5762206504        0.7578154800       -2.2289611695  PROA      4              67.9800000000
        38         4  GLY       HN              6.3712221275        0.5950333822       -2.8074934022  PROA      4               0.0000000000
        39         4  GLY       CA              4.7093122605        1.9106799823       -2.4094446397  PROA      4              66.1300000000
        40         4  GLY       HA1             4.2226919343        1.7685128443       -3.3630110850  PROA      4               0.0000000000
        41         4  GLY       HA2             5.3847913952        2.7526695635       -2.3534303870  PROA      4               0.0000000000
        42         4  GLY       C               3.6641037264        2.0467824655       -1.3178722719  PROA      4              67.0600000000
        43         4  GLY       O               3.5541971738        1.1839316546       -0.4454996292  PROA      4              62.6200000000
        44         5  PRO       N               3.2088868791        3.0780579834       -0.8781741616  PROA      5              71.2200000000
        45         5  PRO       CD              3.0191969882        3.7668430234       -2.0835334084  PROA      5              63.5500000000
        46         5  PRO       HD1             2.6788589649        3.2298321884       -3.0292105516  PROA      5               0.0000000000
        47         5  PRO       HD2             3.9110329931        4.4128540359       -2.2991348800  PROA      5               0.0000000000
        48         5  PRO       CA              2.1497059197        3.3104962494        0.1060194920  PROA      5              69.6800000000
        49         5  PRO       HA              2.5986979186        3.3772461553        1.0856671806  PROA      5               0.0000000000
        50         5  PRO       CB              1.4820781314        4.5954914474       -0.3913751979  PROA      5              66.2800000000
        51         5  PRO       HB1             1.9371431837        5.4510677258        0.1632063315  PROA      5               0.0000000000
        52         5  PRO       HB2             0.3824451315        4.6176824948       -0.2374266217  PROA      5               0.0000000000
        53         5  PRO       CG              1.8601609831        4.6883313428       -1.8341465281  PROA      5              63.6700000000
        54         5  PRO       HG1             0.9826961920        4.3463516943       -2.4380592146  PROA      5               0.0000000000
        55         5  PRO       HG2             2.0874749527        5.7359580119       -2.1316533683  PROA      5               0.0000000000
        56         5  PRO       C               1.1425713604        2.1635769686        0.1718309104  PROA      5              71.0500000000
        57         5  PRO       O               0.8512073888        1.5345320509       -0.8481056206  PROA      5              66.7300000000
        58         6  GLY       N               1.2205467162        1.2736541577        1.0901980671  PROA      6              76.0500000000
        59         6  GLY       HN              2.0425614085        1.3430819448        1.6467417374  PROA      6               0.0000000000
        60         6  GLY       CA              0.2675314915        0.2610440857        1.5168780683  PROA      6              75.3600000000
        61         6  GLY       HA1             0.2490877356        0.2657522682        2.5964821582  PROA      6               0.0000000000
        62         6  GLY       HA2             0.5744487887       -0.6785990537        1.0862876458  PROA      6               0.0000000000
        63         6  GLY       C              -1.1467282373        0.5359081530        1.0418852641  PROA      6              76.0900000000
        64         6  GLY       O              -1.4846995142        1.6736963527        0.7081691743  PROA      6              73.8700000000
        65         7  ASP       N              -2.0261310406       -0.7342884210        0.4874085982  PROA      7              75.5800000000
        66         7  ASP       HN             -1.6391800310       -1.6486218718        0.5275926296  PROA      7               0.0000000000
        67         7  ASP       CA             -3.4004403109       -0.7033626367       -0.0019743045  PROA      7              77.0100000000
        68         7  ASP       HA             -3.4094355385       -0.0508580874       -0.8622396796  PROA      7               0.0000000000
        69         7  ASP       CB             -3.8415013492       -2.0980778115       -0.4516005290  PROA      7              73.6300000000
        70         7  ASP       HB1            -3.8612602874       -2.7839050015        0.4006570301  PROA      7               0.0000000000
        71         7  ASP       HB2            -3.1091734785       -2.4950875525       -1.1824283587  PROA      7               0.0000000000
        72         7  ASP       CG             -5.1914599296       -2.0983230433       -1.1469844309  PROA      7              71.2600000000
        73         7  ASP       OD1            -5.8178233260       -1.0227429079       -1.2625970082  PROA      7              73.9100000000
        74         7  ASP       OD2            -5.6331181022       -3.1834805549       -1.5810319325  PROA      7              76.1900000000
        75         7  ASP       C              -4.3532747822       -0.1705810903        1.0651490690  PROA      7              78.5400000000
        76         7  ASP       O              -4.4857082497       -0.7636269877        2.1378186082  PROA      7              77.8600000000
        77         8  PRO       N              -4.7328233045        1.3067872028        0.9713469071  PROA      8              77.5900000000
        78         8  PRO       CD             -4.4630022348        2.1366284877       -0.0180544434  PROA      8              74.1900000000
        79         8  PRO       HD1            -4.8496853807        1.6774715596       -0.9595840615  PROA      8               0.0000000000
        80         8  PRO       HD2            -3.3905996859        2.3369415326       -0.1555023709  PROA      8               0.0000000000
        81         8  PRO       CA             -5.6070982268        1.8128706589        2.0320197575  PROA      8              77.7400000000
        82         8  PRO       HA             -5.0286331531        1.8282907885        2.9416677090  PROA      8               0.0000000000
        83         8  PRO       CB             -6.0367085810        3.1859377535        1.5093853756  PROA      8              75.7300000000
        84         8  PRO       HB1            -5.8207339807        3.9660057900        2.2685563408  PROA      8               0.0000000000
        85         8  PRO       HB2            -7.1222039316        3.2226776905        1.2493440136  PROA      8               0.0000000000
        86         8  PRO       CG             -5.2147853139        3.4020694552        0.2812085844  PROA      8              73.8700000000
        87         8  PRO       HG1            -5.8599736444        3.6865451907       -0.5770104419  PROA      8               0.0000000000
        88         8  PRO       HG2            -4.4841297505        4.2276178352        0.4509166329  PROA      8               0.0000000000
        89         8  PRO       C              -6.8201885046        0.9172802289        2.2736636267  PROA      8              78.9400000000
        90         8  PRO       O              -7.4239163669        0.9661300947        3.3481832213  PROA      8              78.2700000000
        91         9  ASP       N              -7.1231464357        0.1372621927        1.3774190422  PROA      9              75.0800000000
        92         9  ASP       HN             -6.6360642789        0.0758384046        0.5036980752  PROA      9               0.0000000000
        93         9  ASP       CA             -8.3550030524       -0.6381901247        1.4803558155  PROA      9              74.7600000000
        94         9  ASP       HA             -9.0402807171       -0.2161325395        2.2049717853  PROA      9               0.0000000000
        95         9  ASP       CB             -9.0877855415       -0.6632114539        0.1370476764  PROA      9              71.2300000000
        96         9  ASP       HB1            -9.9815198355       -1.3184906005        0.1786536650  PROA      9               0.0000000000
        97         9  ASP       HB2            -8.4055613822       -1.0469016291       -0.6527616117  PROA      9               0.0000000000
        98         9  ASP       CG             -9.5757057901        0.7072702932       -0.2978070257  PROA      9              69.1300000000
        99         9  ASP       OD1            -9.4705003874        1.6712301196        0.4908115616  PROA      9              69.2800000000
       100         9  ASP       OD2           -10.0726823288        0.8239211291       -1.4393589967  PROA      9              70.6800000000
       101         9  ASP       C              -8.0702385033       -2.0630795085        1.9497441359  PROA      9              73.3700000000
       102         9  ASP       O              -8.9947658723       -2.8543782150        2.1447223428  PROA      9              70.5400000000
       103        10  ALA       N              -6.6845406177       -2.3875255580        2.1433549079  PROA      10             75.6900000000
       104        10  ALA       HN             -5.9297605853       -1.7357601328        2.0368379158  PROA      10              0.0000000000
       105        10  ALA       CA             -6.4038055110       -3.7653060822        2.5381341207  PROA      10             73.6500000000
       106        10  ALA       HA             -6.8868155159       -4.4250693013        1.8320625306  PROA      10              0.0000000000
       107        10  ALA       CB             -4.8982500916       -4.0187865521        2.5521173387  PROA      10             72.1700000000
       108        10  ALA       HB1            -4.3575895624       -3.1600173851        3.0051821957  PROA      10              0.0000000000
       109        10  ALA       HB2            -4.5321240509       -4.1955371881        1.5259138203  PROA      10              0.0000000000
       110        10  ALA       HB3            -4.6463856178       -4.9282789525        3.1385943356  PROA      10              0.0000000000
       111        10  ALA       C              -7.0054618747       -4.0780074289        3.9047948276  PROA      10             73.8400000000
       112        10  ALA       O              -6.7248652394       -3.3861612863        4.8866646984  PROA      10             72.3800000000
       113        11  GLY       N              -8.0589629272       -3.8502042761        4.5496298885  PROA      11             76.0100000000
       114        11  GLY       HN             -8.6239190449       -3.2777702394        3.9698963051  PROA      11              0.0000000000
       115        11  GLY       CA             -8.9025443324       -4.4566777258        5.5677346806  PROA      11             75.7400000000
       116        11  GLY       HA1            -9.0783317732       -3.7155338055        6.3308756751  PROA      11              0.0000000000
       117        11  GLY       HA2            -8.3972386483       -5.3350476569        5.9415501443  PROA      11              0.0000000000
       118        11  GLY       C             -10.2502448622       -4.9052548999        5.0359031274  PROA      11             76.8600000000
       119        11  GLY       OT1           -10.4969217368       -4.7164506702        3.8147956455  PROA      11              0.0000000000
       120        11  GLY       OT2           -11.0548156522       -5.4439630557        5.8421657191  PROA      11              0.0000000000
       121        12  TIP3      OH2           -16.8147211279      -26.6725831045       -9.6129535932  SOLV      1               0.0000000000
       122        12  TIP3      H1            -17.0873862321      -27.5688358038       -9.8425312873  SOLV      1               0.0000000000
       123        12  TIP3      H2            -17.6230821299      -26.3522372277       -9.1622701100  SOLV      1               0.0000000000
       124        13  TIP3      OH2           -19.7313174722      -23.3767184966       -8.7295143796  SOLV      2               0.0000000000
       125        13  TIP3      H1            -19.7700694095      -23.0444367428       -9.6438269247  SOLV      2               0.0000000000
       126        13  TIP3      H2            -19.0364992458      -22.8107714214       -8.3473263535  SOLV      2               0.0000000000
       127        14  TIP3      OH2           -18.4120207373      -25.4630375593      -11.6783648425  SOLV      3               0.0000000000
       128        14  TIP3      H1            -18.7024466102      -26.3039623736      -12.0728955426  SOLV      3               0.0000000000
       129        14  TIP3      H2            -17.5832669169      -25.7505076541      -11.2693274297  SOLV      3               0.0000000000
       130        15  TIP3      OH2           -18.0833888273      -28.7066114015       -6.3003942467  SOLV      4               0.0000000000
       131        15  TIP3      H1            -18.7545032516      -28.5688718822       -5.5914261887  SOLV      4               0.0000000000
       132        15  TIP3      H2            -17.5999103976      -27.8486831282       -6.2387280137  SOLV      4               0.0000000000
       133        16  TIP3      OH2           -19.4745509658      -26.0897949499       -8.6631219679  SOLV      5               0.0000000000
       134        16  TIP3      H1            -20.3598650390      -26.1805197658       -9.0448454811  SOLV      5               0.0000000000
       135        16  TIP3      H2            -19.4265221158      -25.1070650618       -8.6311568051  SOLV      5               0.0000000000
       136        17  TIP3      OH2            -4.2277942247      -29.3508254503      -20.3206716991  SOLV      6               0.0000000000
       137        17  TIP3      H1             -4.1861862541      -29.8435732370      -19.4838725736  SOLV      6               0.0000000000
       138        17  TIP3      H2             -3.9587722122      -28.4642419289      -20.0289752106  SOLV      6               0.0000000000
       139        18  TIP3      OH2            -7.7268600518      -24.4879926132      -20.3257504319  SOLV      7               0.0000000000
       140        18  TIP3      H1             -7.2954235942      -25.2297942762      -20.8072737121  SOLV      7               0.0000000000
       141        18  TIP3      H2             -8.1257654140      -24.9452090513      -19.5774995976  SOLV      7               0.0000000000
       142        19  TIP3      OH2            -8.3924784621      -30.1837966948      -16.1741824110  SOLV      8               0.0000000000
       143        19  TIP3      H1             -8.4675631361      -30.2507170845      -17.1421272111  SOLV      8               0.0000000000
       144        19  TIP3      H2             -7.4975774072      -29.8109898421      -16.0752264308  SOLV      8               0.0000000000
       145        20  TIP3      OH2             1.5656909247      -36.5081767067      -16.9638216092  SOLV      9               0.0000000000
       146        20  TIP3      H1              1.7522272077      -35.7110360344      -16.4121199920  SOLV      9               0.0000000000
       147        20  TIP3      H2              1.3113949784      -36.0845479879      -17.7950463496  SOLV      9               0.0000000000
       148        21  TIP3      OH2             1.9922186689      -34.4607085313      -15.2377986652  SOLV      10              0.0000000000
       149        21  TIP3      H1              1.1537241911      -33.9562922660      -15.1611240933  SOLV      10              0.0000000000
       150        21  TIP3      H2              2.4697595824      -34.1971446573      -14.4336623037  SOLV      10              0.0000000000
       151        22  TIP3      OH2           -10.0874685221      -30.7904524541      -14.1139395161  SOLV      11              0.0000000000
       152        22  TIP3      H1            -10.7542784338      -30.0828426755      -14.0153351059  SOLV      11              0.0000000000
       153        22  TIP3      H2             -9.6004366102      -30.5067899014      -14.9179927567  SOLV      11              0.0000000000
       154        23  TIP3      OH2           -11.7804390643      -28.6582516827      -13.5809409963  SOLV      12              0.0000000000
       155        23  TIP3      H1            -12.0233424112      -27.7464026962      -13.8317920346  SOLV      12              0.0000000000
       156        23  TIP3      H2            -12.5850214966      -28.9259097096      -13.0922367101  SOLV      12              0.0000000000
       157        24  TIP3      OH2            -3.4242281482      -26.6960281920      -18.8820093275  SOLV      13              0.0000000000
       158        24  TIP3      H1             -4.2995477536      -26.7954717559      -18.4362915560  SOLV      13              0.0000000000
       159        24  TIP3      H2             -3.5227902924      -25.8013253387      -19.2657235990  SOLV      13              0.0000000000
       160        25  TIP3      OH2            -6.4080237137      -26.2724402366      -21.9640005123  SOLV      14              0.0000000000
       161        25  TIP3      H1             -5.8549413228      -27.0551071393      -21.9784624779  SOLV      14              0.0000000000
       162        25  TIP3      H2             -5.9153204066      -25.6627608529      -22.5574294743  SOLV      14              0.0000000000
       163        26  TIP3      OH2            -1.1631760845      -27.5817214785      -15.3248799391  SOLV      15              0.0000000000
       164        26  TIP3      H1             -1.3201300912      -28.3581767630      -15.9043228662  SOLV      15              0.0000000000
       165        26  TIP3      H2             -1.3859133361      -26.8386441065      -15.9268944177  SOLV      15              0.0000000000
       166        27  TIP3      OH2             0.7473859265      -31.2228257111      -16.9226165956  SOLV      16              0.0000000000
       167        27  TIP3      H1             -0.0715077383      -30.6802454177      -16.8585145324  SOLV      16              0.0000000000
       168        27  TIP3      H2              1.0392784628      -30.9719381392      -17.8250395661  SOLV      16              0.0000000000
       169        28  TIP3      OH2            -2.4648646347      -32.2791576299      -13.8558717813  SOLV      17              0.0000000000
       170        28  TIP3      H1             -2.5417086689      -31.4357560086      -13.3700986369  SOLV      17              0.0000000000
       171        28  TIP3      H2             -3.3547366805      -32.3257654267      -14.2809383192  SOLV      17              0.0000000000
       172        29  TIP3      OH2            -5.7388226006      -26.7869468719      -17.5479515067  SOLV      18              0.0000000000
       173        29  TIP3      H1             -5.9678555272      -25.9565805848      -17.0896246842  SOLV      18              0.0000000000
       174        29  TIP3      H2             -5.9677828295      -27.4741070291      -16.8980819169  SOLV      18              0.0000000000
       175        30  TIP3      OH2            -9.7024020909      -27.6209499983      -12.0838215734  SOLV      19              0.0000000000
       176        30  TIP3      H1            -10.3248214991      -27.0116037839      -11.6312904028  SOLV      19              0.0000000000
       177        30  TIP3      H2            -10.3329432282      -28.1360753471      -12.6294801825  SOLV      19              0.0000000000
       178        31  TIP3      OH2           -12.2529576583      -31.9517259251      -11.1757590836  SOLV      20              0.0000000000
       179        31  TIP3      H1            -12.2640548660      -31.1050495305      -10.6796878371  SOLV      20              0.0000000000
       180        31  TIP3      H2            -12.8882189122      -32.4953957956      -10.7008370386  SOLV      20              0.0000000000
       181        32  TIP3      OH2           -11.7568083663      -25.9591728876      -11.1750839722  SOLV      21              0.0000000000
       182        32  TIP3      H1            -12.0701270630      -25.8687212877      -12.0933937584  SOLV      21              0.0000000000
       183        32  TIP3      H2            -12.5895667106      -26.1518047383      -10.6857285093  SOLV      21              0.0000000000
       184        33  TIP3      OH2             1.2107317876      -24.0699768571      -14.8269857580  SOLV      22              0.0000000000
       185        33  TIP3      H1              1.1899804491      -25.0359538636      -14.6861657937  SOLV      22              0.0000000000
       186        33  TIP3      H2              0.3622777691      -23.8205478478      -14.3917487489  SOLV      22              0.0000000000
       187        34  TIP3      OH2            -7.7368174755      -26.3016106867      -13.5050158830  SOLV      23              0.0000000000
       188        34  TIP3      H1             -7.8021224924      -25.3646353347      -13.2161751568  SOLV      23              0.0000000000
       189        34  TIP3      H2             -8.4683317070      -26.7032365573      -12.9864624056  SOLV      23              0.0000000000
       190        35  TIP3      OH2             0.1352303196      -32.8015225802      -12.0278547611  SOLV      24              0.0000000000
       191        35  TIP3      H1             -0.7254830909      -32.6948486982      -12.4585510670  SOLV      24              0.0000000000
       192        35  TIP3      H2              0.3037387601      -33.7557755604      -12.1455489220  SOLV      24              0.0000000000
       193        36  TIP3      OH2           -13.9539974420      -28.8095216506      -11.8824295543  SOLV      25              0.0000000000
       194        36  TIP3      H1            -13.3372415436      -28.8824296450      -11.1260665492  SOLV      25              0.0000000000
       195        36  TIP3      H2            -14.7041209397      -29.3382507860      -11.5334395728  SOLV      25              0.0000000000
       196        37  TIP3      OH2            -2.2494645990      -34.8137251834      -12.7567044820  SOLV      26              0.0000000000
       197        37  TIP3      H1             -2.7684578286      -34.8412760390      -11.9196457857  SOLV      26              0.0000000000
       198        37  TIP3      H2             -2.5055365840      -33.9465255167      -13.1293659168  SOLV      26              0.0000000000
       199        38  TIP3      OH2            -5.0616789939      -32.7761403280      -10.7185311939  SOLV      27              0.0000000000
       200        38  TIP3      H1             -5.3523419062      -33.4298478518      -10.0468589496  SOLV      27              0.0000000000
       201        38  TIP3      H2             -4.1334757231      -32.6377040451      -10.4407286492  SOLV      27              0.0000000000
       202        39  TIP3      OH2            -4.9339195172      -32.9440187451      -14.8341402495  SOLV      28              0.0000000000
       203        39  TIP3      H1             -5.0654006682      -33.6648043287      -15.4546213596  SOLV      28              0.0000000000
       204        39  TIP3      H2             -5.3720071958      -33.3113451354      -14.0363004661  SOLV      28              0.0000000000
       205        40  TIP3      OH2            -1.8424242697      -20.6572361057      -13.8441562996  SOLV      29              0.0000000000
       206        40  TIP3      H1             -1.9057936129      -20.3872283922      -14.7775333112  SOLV      29              0.0000000000
       207        40  TIP3      H2             -1.0727854171      -20.1411150337      -13.5396039583  SOLV      29              0.0000000000
       208        41  TIP3      OH2           -12.3484544570      -29.5051003863       -9.6626681051  SOLV      30              0.0000000000
       209        41  TIP3      H1            -11.5496075222      -29.2342155007       -9.1689204899  SOLV      30              0.0000000000
       210        41  TIP3      H2            -13.0304646168      -29.4334083915       -8.9700354221  SOLV      30              0.0000000000
       211        42  TIP3      OH2            -1.5505190409      -29.7390485124      -17.0086551768  SOLV      31              0.0000000000
       212        42  TIP3      H1             -1.3083029946      -29.2025670277      -17.7950584560  SOLV      31              0.0000000000
       213        42  TIP3      H2             -2.3924364146      -30.1527488562      -17.3005920503  SOLV      31              0.0000000000
       214        43  TIP3      OH2            -6.4080591335      -28.8044694807      -13.3126675992  SOLV      32              0.0000000000
       215        43  TIP3      H1             -6.4659092522      -29.2099141372      -12.4412061511  SOLV      32              0.0000000000
       216        43  TIP3      H2             -6.9396743647      -27.9939076546      -13.2155567604  SOLV      32              0.0000000000
       217        44  TIP3      OH2            -7.5421240482      -31.5286952353      -10.1958683920  SOLV      33              0.0000000000
       218        44  TIP3      H1             -8.1624237893      -31.9996849678      -10.7773472428  SOLV      33              0.0000000000
       219        44  TIP3      H2             -6.6909174984      -31.8198344716      -10.5781902245  SOLV      33              0.0000000000
       220        45  TIP3      OH2            -4.9525227679      -26.3087012642      -14.3391658785  SOLV      34              0.0000000000
       221        45  TIP3      H1             -5.9158912405      -26.3601168366      -14.2103586920  SOLV      34              0.0000000000
       222        45  TIP3      H2             -4.6984569544      -25.7849202537      -13.5493442471  SOLV      34              0.0000000000
       223        46  TIP3      OH2             1.3362846095      -26.9569129881      -14.4631984683  SOLV      35              0.0000000000
       224        46  TIP3      H1              0.3577091858      -27.0280512940      -14.5366571303  SOLV      35              0.0000000000
       225        46  TIP3      H2              1.5897270383      -27.2817303501      -15.3562727528  SOLV      35              0.0000000000
       226        47  TIP3      OH2            -3.8224270148      -31.0449183304      -17.9106883020  SOLV      36              0.0000000000
       227        47  TIP3      H1             -4.6220309536      -31.2317462167      -17.4015511153  SOLV      36              0.0000000000
       228        47  TIP3      H2             -3.5894504370      -31.9425390517      -18.2388312542  SOLV      36              0.0000000000
       229        48  TIP3      OH2            -9.8800148020      -25.5229484637      -15.4356414715  SOLV      37              0.0000000000
       230        48  TIP3      H1             -9.5486772877      -24.8816759646      -16.0927557687  SOLV      37              0.0000000000
       231        48  TIP3      H2             -9.0530951433      -25.8656470778      -15.0711572846  SOLV      37              0.0000000000
       232        49  TIP3      OH2            -5.8228406464      -29.1720618224      -15.9201024912  SOLV      38              0.0000000000
       233        49  TIP3      H1             -6.0415883298      -29.0269872616      -14.9686553670  SOLV      38              0.0000000000
       234        49  TIP3      H2             -4.8935725004      -29.4086499900      -15.8441590223  SOLV      38              0.0000000000
       235        50  TIP3      OH2            -3.5447864356      -23.7896494626      -15.4875944755  SOLV      39              0.0000000000
       236        50  TIP3      H1             -4.3515930799      -24.3416305825      -15.5261226037  SOLV      39              0.0000000000
       237        50  TIP3      H2             -3.7328401375      -23.1410485859      -16.2020391953  SOLV      39              0.0000000000
       238        51  TIP3      OH2           -15.1019484029      -26.9319266039      -13.6984848857  SOLV      40              0.0000000000
       239        51  TIP3      H1            -14.7996808357      -27.6911178834      -13.1640654671  SOLV      40              0.0000000000
       240        51  TIP3      H2            -14.7966662232      -26.1904627032      -13.1704860270  SOLV      40              0.0000000000
       241        52  TIP3      OH2           -16.8184027156       25.4175836906      -25.8181283799  SOLV      41              0.0000000000
       242        52  TIP3      H1            -16.1611713411       25.9864128197      -26.2328975013  SOLV      41              0.0000000000
       243        52  TIP3      H2            -16.2763011956       24.6695585754      -25.5219487410  SOLV      41              0.0000000000
       244        53  TIP3      OH2            -5.7407160165      -34.5285765770      -12.7563726915  SOLV      42              0.0000000000
       245        53  TIP3      H1             -5.6576001235      -33.8899883889      -12.0185938670  SOLV      42              0.0000000000
       246        53  TIP3      H2             -5.2552865599      -35.2972241034      -12.4290485736  SOLV      42              0.0000000000
       247        54  TIP3      OH2             0.3591861556      -35.5333786380      -13.0402953692  SOLV      43              0.0000000000
       248        54  TIP3      H1             -0.5941449757      -35.2998706972      -13.0580318059  SOLV      43              0.0000000000
       249        54  TIP3      H2              0.5127531943      -35.8089169761      -13.9561028700  SOLV      43              0.0000000000
       250        55  TIP3      OH2            -3.2438638827      -33.5872024879      -18.7968969892  SOLV      44              0.0000000000
       251        55  TIP3      H1             -3.9565906631      -34.2596552362      -18.8512770839  SOLV      44              0.0000000000
       252        55  TIP3      H2             -2.4931902955      -34.1179609603      -18.4474198505  SOLV      44              0.0000000000
       253        56  TIP3      OH2            -3.3419123639      -23.9887642207      -19.5636952744  SOLV      45              0.0000000000
       254        56  TIP3      H1             -3.7760490680      -23.5546276929      -20.3340074419  SOLV      45              0.0000000000
       255        56  TIP3      H2             -2.3995498604      -23.8164686994      -19.7769629431  SOLV      45              0.0000000000
       256        57  TIP3      OH2           -15.5741176366      -23.5902620922       -9.7768201537  SOLV      46              0.0000000000
       257        57  TIP3      H1            -14.7285882941      -23.5455317285       -9.2731006627  SOLV      46              0.0000000000
       258        57  TIP3      H2            -15.7326738648      -24.5466314617       -9.7786071181  SOLV      46              0.0000000000
       259        58  TIP3      OH2           -10.8734710663      -24.1465822983       -9.2723572856  SOLV      47              0.0000000000
       260        58  TIP3      H1             -9.9158754978      -24.2687353152       -9.2390622604  SOLV      47              0.0000000000
       261        58  TIP3      H2            -11.1127668370      -24.7662516290       -9.9929360616  SOLV      47              0.0000000000
       262        59  TIP3      OH2            -4.4438982204      -25.0015892686      -11.9883238866  SOLV      48              0.0000000000
       263        59  TIP3      H1             -4.5015579734      -25.7002751392      -11.2963135203  SOLV      48              0.0000000000
       264        59  TIP3      H2             -3.6974444154      -24.4598787898      -11.6701390148  SOLV      48              0.0000000000
       265        60  TIP3      OH2           -14.3618842715      -29.7640743491       -7.6162122793  SOLV      49              0.0000000000
       266        60  TIP3      H1            -13.9425613793      -30.6418718748       -7.7647776902  SOLV      49              0.0000000000
       267        60  TIP3      H2            -15.1748640740      -30.0494750318       -7.1758801523  SOLV      49              0.0000000000
       268        61  TIP3      OH2            -8.2822734249      -28.7688936374      -10.0108047086  SOLV      50              0.0000000000
       269        61  TIP3      H1             -8.7307067647      -28.5678913650      -10.8579751859  SOLV      50              0.0000000000
       270        61  TIP3      H2             -7.9945821891      -29.6981704070      -10.1295853607  SOLV      50              0.0000000000
       271        62  TIP3      OH2            -3.3621606207      -28.7103319407      -14.0042328147  SOLV      51              0.0000000000
       272        62  TIP3      H1             -2.6511472674      -28.1674434362      -14.3921701913  SOLV      51              0.0000000000
       273        62  TIP3      H2             -4.1037274327      -28.0740121890      -14.0029427441  SOLV      51              0.0000000000
       274        63  TIP3      OH2           -13.2401099808      -32.2915781348       -7.8466343449  SOLV      52              0.0000000000
       275        63  TIP3      H1            -12.6166549248      -32.9544793990       -8.1656756885  SOLV      52              0.0000000000
       276        63  TIP3      H2            -12.8349505537      -32.0256543575       -6.9909615175  SOLV      52              0.0000000000
       277        64  TIP3      OH2            -9.9037738786      -33.4218781589      -11.3719311490  SOLV      53              0.0000000000
       278        64  TIP3      H1            -10.7257892958      -32.8899018875      -11.4314750907  SOLV      53              0.0000000000
       279        64  TIP3      H2             -9.3946573502      -33.0771674383      -12.1321190173  SOLV      53              0.0000000000
       280        65  TIP3      OH2            -4.6064497162      -29.4184524147       -9.9695629793  SOLV      54              0.0000000000
       281        65  TIP3      H1             -3.9218766201      -29.8369888926      -10.4961317819  SOLV      54              0.0000000000
       282        65  TIP3      H2             -4.7233837446      -30.0524685490       -9.2372231090  SOLV      54              0.0000000000
       283        66  TIP3      OH2            -8.5906105760      -35.1818716012       -9.8648454466  SOLV      55              0.0000000000
       284        66  TIP3      H1             -9.0763465501      -35.9986768913      -10.0275684411  SOLV      55              0.0000000000
       285        66  TIP3      H2             -9.0781705775      -34.5372603592      -10.4438820855  SOLV      55              0.0000000000
       286        67  TIP3      OH2            -8.1214412689      -32.2406297970      -13.0443339526  SOLV      56              0.0000000000
       287        67  TIP3      H1             -7.7074968613      -32.5367422631      -13.8628378203  SOLV      56              0.0000000000
       288        67  TIP3      H2             -8.8304306352      -31.6548774707      -13.4059050616  SOLV      56              0.0000000000
       289        68  TIP3      OH2            -2.5437564961      -32.6184624293       -9.5747733012  SOLV      57              0.0000000000
       290        68  TIP3      H1             -2.2028718683      -33.3302347422       -8.9930906105  SOLV      57              0.0000000000
       291        68  TIP3      H2             -1.7254918433      -32.1808754529       -9.8526334180  SOLV      57              0.0000000000
       292        69  TIP3      OH2            -2.0798712243      -30.0700051120      -12.0567411785  SOLV      58              0.0000000000
       293        69  TIP3      H1             -2.6622782133      -29.5337547782      -12.6443843486  SOLV      58              0.0000000000
       294        69  TIP3      H2             -1.2072044546      -29.8679536303      -12.4637018483  SOLV      58              0.0000000000
       295        70  TIP3      OH2            -9.7393089884      -34.1876420619       -7.5100309886  SOLV      59              0.0000000000
       296        70  TIP3      H1            -10.4901943515      -34.8091580139       -7.4174469001  SOLV      59              0.0000000000
       297        70  TIP3      H2             -9.4034927327      -34.4214326643       -8.3951654088  SOLV      59              0.0000000000
       298        71  TIP3      OH2            -5.9193625877      -34.8580233867       -9.2162427828  SOLV      60              0.0000000000
       299        71  TIP3      H1             -6.0492054028      -34.9398883935       -8.2391278325  SOLV      60              0.0000000000
       300        71  TIP3      H2             -6.8587519879      -34.9507446295       -9.4734937907  SOLV      60              0.0000000000
       301        72  TIP3      OH2            -3.5495802783      -35.6576109011      -10.4612055279  SOLV      61              0.0000000000
       302        72  TIP3      H1             -4.3583534976      -35.3699257812       -9.9923708941  SOLV      61              0.0000000000
       303        72  TIP3      H2             -3.2297933703      -36.3289640747       -9.8178616189  SOLV      61              0.0000000000
       304        73  TIP3      OH2           -11.7140214281      -36.0293509784       -7.1136074630  SOLV      62              0.0000000000
       305        73  TIP3      H1            -11.7807005563      -36.8029146330       -7.6987535901  SOLV      62              0.0000000000
       306        73  TIP3      H2            -11.2759978926      -36.4188855585       -6.3411958182  SOLV      62              0.0000000000
       307        74  TIP3      OH2            -0.7381399235      -23.2333500881      -19.9256338100  SOLV      63              0.0000000000
       308        74  TIP3      H1             -0.5727380048      -22.8590739946      -19.0396866152  SOLV      63              0.0000000000
       309        74  TIP3      H2             -0.2178083089      -22.6457303524      -20.4933955933  SOLV      63              0.0000000000
       310        75  TIP3      OH2            -0.5533407795      -22.9214694587      -17.1253063180  SOLV      64              0.0000000000
       311        75  TIP3      H1             -1.0198403885      -23.7838190276      -17.1592168399  SOLV      64              0.0000000000
       312        75  TIP3      H2              0.1739725251      -23.1502380304      -16.5273557349  SOLV      64              0.0000000000
       313        76  TIP3      OH2            -0.0321600827      -26.1552348072      -11.3791810067  SOLV      65              0.0000000000
       314        76  TIP3      H1             -0.7721433973      -26.0583719671      -10.7454891964  SOLV      65              0.0000000000
       315        76  TIP3      H2              0.3576011811      -25.2575930402      -11.3559664761  SOLV      65              0.0000000000
       316        77  TIP3      OH2            -0.5937391359      -32.6765639308      -23.4105673780  SOLV      66              0.0000000000
       317        77  TIP3      H1             -1.3202377382      -32.7036253730      -22.7484710745  SOLV      66              0.0000000000
       318        77  TIP3      H2              0.1157674901      -32.2584319519      -22.8955201202  SOLV      66              0.0000000000
       319        78  TIP3      OH2            -0.0451674356      -28.3495862554      -18.8444325529  SOLV      67              0.0000000000
       320        78  TIP3      H1              0.4378637458      -29.0220369869      -19.3559030283  SOLV      67              0.0000000000
       321        78  TIP3      H2             -0.0978377821      -27.6050249376      -19.4780940723  SOLV      67              0.0000000000
       322        79  TIP3      OH2            -1.8137455056      -25.4277376986      -16.9333423423  SOLV      68              0.0000000000
       323        79  TIP3      H1             -2.5215269691      -24.9899432211      -16.4182013353  SOLV      68              0.0000000000
       324        79  TIP3      H2             -2.3214673519      -25.8599954896      -17.6522233381  SOLV      68              0.0000000000
       325        80  TIP3      OH2             0.3446441941      -29.4352743937      -13.1502389807  SOLV      69              0.0000000000
       326        80  TIP3      H1              1.0636694425      -30.0920220605      -13.2910654764  SOLV      69              0.0000000000
       327        80  TIP3      H2              0.5465935873      -28.7614174468      -13.8149699351  SOLV      69              0.0000000000
       328        81  TIP3      OH2             2.1665686186      -31.3786451426      -13.1179825297  SOLV      70              0.0000000000
       329        81  TIP3      H1              1.4233920084      -31.8382133832      -12.6698501821  SOLV      70              0.0000000000
       330        81  TIP3      H2              2.8411697350      -32.0823483142      -13.0243565557  SOLV      70              0.0000000000
       331        82  TIP3      OH2            -0.8805631522      -34.6782896739      -17.8826632696  SOLV      71              0.0000000000
       332        82  TIP3      H1             -0.0390764140      -34.3842670260      -18.2810125800  SOLV      71              0.0000000000
       333        82  TIP3      H2             -0.7986682582      -34.3418850567      -16.9712880468  SOLV      71              0.0000000000
       334        83  TIP3      OH2            -0.4444067666      -33.2607862089      -15.4994038362  SOLV      72              0.0000000000
       335        83  TIP3      H1             -1.1903882194      -32.8837471251      -14.9870918714  SOLV      72              0.0000000000
       336        83  TIP3      H2             -0.0886050016      -32.4650445970      -15.9481174508  SOLV      72              0.0000000000
       337        84  TIP3      OH2            -4.9288641867      -24.5393330508      -23.4824044602  SOLV      73              0.0000000000
       338        84  TIP3      H1             -4.3069334740      -24.4713616374      -24.2196077421  SOLV      73              0.0000000000
       339        84  TIP3      H2             -4.6317843284      -23.8251689401      -22.8871833658  SOLV      73              0.0000000000
       340        85  TIP3      OH2           -14.0222869698      -26.4014877515       -9.5930439652  SOLV      74              0.0000000000
       341        85  TIP3      H1            -14.9694914090      -26.6323895438       -9.6532012347  SOLV      74              0.0000000000
       342        85  TIP3      H2            -13.8611920273      -26.4791327268       -8.6458079924  SOLV      74              0.0000000000
       343        86  TIP3      OH2           -12.1395681492      -25.9426119828      -13.9869955617  SOLV      75              0.0000000000
       344        86  TIP3      H1            -12.6401105124      -25.2011596590      -14.3820536085  SOLV      75              0.0000000000
       345        86  TIP3      H2            -11.2683575331      -25.7708558002      -14.4001421089  SOLV      75              0.0000000000
       346        87  TIP3      OH2            -7.8203550215      -23.6433593974      -12.7196920007  SOLV      76              0.0000000000
       347        87  TIP3      H1             -7.3941464647      -23.6531688466      -11.8361093502  SOLV      76              0.0000000000
       348        87  TIP3      H2             -7.1733317073      -23.1105912525      -13.2298836679  SOLV      76              0.0000000000
       349        88  TIP3      OH2            -6.0207501972      -22.0767437154      -14.0665794135  SOLV      77              0.0000000000
       350        88  TIP3      H1             -5.3316432296      -22.5878369485      -14.5120441035  SOLV      77              0.0000000000
       351        88  TIP3      H2             -5.4811982810      -21.5084346466      -13.4737735198  SOLV      77              0.0000000000
       352        89  TIP3      OH2           -15.3800737143      -23.3744367509      -13.8508143851  SOLV      78              0.0000000000
       353        89  TIP3      H1            -16.3186897497      -23.1528762401      -14.0377066970  SOLV      78              0.0000000000
       354        89  TIP3      H2            -15.2765310301      -22.9807048133      -12.9761111759  SOLV      78              0.0000000000
       355        90  TIP3      OH2           -12.9992910416      -23.5926286774      -15.1523909727  SOLV      79              0.0000000000
       356        90  TIP3      H1            -13.8882389567      -23.4916508692      -14.7402387370  SOLV      79              0.0000000000
       357        90  TIP3      H2            -13.1758895526      -23.3240964829      -16.0710500017  SOLV      79              0.0000000000
       358        91  TIP3      OH2            -8.7423738571      -23.5001331063      -17.1522541741  SOLV      80              0.0000000000
       359        91  TIP3      H1             -9.4690936156      -23.3245838247      -17.7861068024  SOLV      80              0.0000000000
       360        91  TIP3      H2             -8.6344570839      -22.6158162592      -16.7492446051  SOLV      80              0.0000000000
       361        92  TIP3      OH2            -6.0759746990      -24.0954268824      -16.7326345987  SOLV      81              0.0000000000
       362        92  TIP3      H1             -7.0351487605      -23.9639569965      -16.8927337110  SOLV      81              0.0000000000
       363        92  TIP3      H2             -5.7003286383      -23.3533865971      -17.2293480114  SOLV      81              0.0000000000
       364        93  TIP3      OH2            -4.0387428513      -22.1342021268      -17.6330529067  SOLV      82              0.0000000000
       365        93  TIP3      H1             -4.2154226326      -21.2936668141      -18.1072440134  SOLV      82              0.0000000000
       366        93  TIP3      H2             -3.8132798881      -22.7372534786      -18.3743082404  SOLV      82              0.0000000000
       367        94  TIP3      OH2           -10.3298219333      -26.2903036363      -18.7680285285  SOLV      83              0.0000000000
       368        94  TIP3      H1            -10.7032644794      -27.1120047700      -19.1207042466  SOLV      83              0.0000000000
       369        94  TIP3      H2            -11.0961430782      -25.8909568907      -18.3215881172  SOLV      83              0.0000000000
       370        95  TIP3      OH2            -3.2054430875      -24.9464817373      -25.7948378789  SOLV      84              0.0000000000
       371        95  TIP3      H1             -3.2463768255      -25.8990349653      -25.6518595175  SOLV      84              0.0000000000
       372        95  TIP3      H2             -4.0489900420      -24.8170824173      -26.2873139096  SOLV      84              0.0000000000
       373        96  TIP3      OH2            -1.2870392854      -23.3577065626      -13.8810007821  SOLV      85              0.0000000000
       374        96  TIP3      H1             -2.0819489411      -23.6566566086      -14.3714972992  SOLV      85              0.0000000000
       375        96  TIP3      H2             -1.4886746479      -22.4023964187      -13.8006705411  SOLV      85              0.0000000000
       376        97  TIP3      OH2             4.2459372766      -30.7705167437      -18.6937507911  SOLV      86              0.0000000000
       377        97  TIP3      H1              4.5536314243      -31.3991678969      -18.0067032258  SOLV      86              0.0000000000
       378        97  TIP3      H2              4.9987241791      -30.1636256146      -18.7118545294  SOLV      86              0.0000000000
       379        98  TIP3      OH2             4.0793822466      -26.5611219286      -21.5145962254  SOLV      87              0.0000000000
       380        98  TIP3      H1              3.9227609616      -27.5129084454      -21.4241585334  SOLV      87              0.0000000000
       381        98  TIP3      H2              5.0450381120      -26.5230907034      -21.6799847501  SOLV      87              0.0000000000
       382        99  TIP3      OH2             2.0280563351      -31.7100084882      -22.0286247379  SOLV      88              0.0000000000
       383        99  TIP3      H1              2.9273862819      -31.9744418220      -21.7321228121  SOLV      88              0.0000000000
       384        99  TIP3      H2              2.1915360896      -30.8563620249      -22.4221415379  SOLV      88              0.0000000000
       385       100  TIP3      OH2            10.5205721627      -22.2368423195      -25.4388282648  SOLV      89              0.0000000000
       386       100  TIP3      H1             11.3289778500      -22.7177632898      -25.2279409991  SOLV      89              0.0000000000
       387       100  TIP3      H2             10.1504782853      -22.0795730299      -24.5590638965  SOLV      89              0.0000000000
       388       101  TIP3      OH2             9.2631218179      -27.1507831413      -21.8361068930  SOLV      90              0.0000000000
       389       101  TIP3      H1              9.3997092898      -27.4476228003      -22.7667894668  SOLV      90              0.0000000000
       390       101  TIP3      H2             10.1909438015      -26.9495627943      -21.5942623922  SOLV      90              0.0000000000
       391       102  TIP3      OH2             7.9199987171      -28.1044123671      -19.6580142403  SOLV      91              0.0000000000
       392       102  TIP3      H1              7.3520357508      -27.3776272350      -19.3190663607  SOLV      91              0.0000000000
       393       102  TIP3      H2              8.3923896584      -27.6578370858      -20.3966054587  SOLV      91              0.0000000000
       394       103  TIP3      OH2             6.2190161567      -26.1268155798      -18.6877588584  SOLV      92              0.0000000000
       395       103  TIP3      H1              5.9670478738      -25.2483488781      -19.0435722812  SOLV      92              0.0000000000
       396       103  TIP3      H2              5.4127788329      -26.3177958570      -18.1637432931  SOLV      92              0.0000000000
       397       104  TIP3      OH2             0.2901721397      -29.0340758350      -25.4523672898  SOLV      93              0.0000000000
       398       104  TIP3      H1             -0.2907957953      -29.0039291360      -26.2180217218  SOLV      93              0.0000000000
       399       104  TIP3      H2              0.6755973365      -28.1446564727      -25.4445775186  SOLV      93              0.0000000000
       400       105  TIP3      OH2            14.5556376329      -23.7688174478      -23.9043552028  SOLV      94              0.0000000000
       401       105  TIP3      H1             13.6836183647      -24.1019995444      -23.5977052998  SOLV      94              0.0000000000
       402       105  TIP3      H2             14.3412636861      -22.8466467237      -24.1489759436  SOLV      94              0.0000000000
       403       106  TIP3      OH2            16.7340445614      -24.9705861218      -20.3855341532  SOLV      95              0.0000000000
       404       106  TIP3      H1             16.6130650619      -25.7263514190      -21.0020543765  SOLV      95              0.0000000000
       405       106  TIP3      H2             16.5061026962      -24.2075966141      -20.9612033469  SOLV      95              0.0000000000
       406       107  TIP3      OH2            14.6562003383      -29.8568088683      -18.7120830389  SOLV      96              0.0000000000
       407       107  TIP3      H1             15.4460065214      -29.3368074185      -18.5497971051  SOLV      96              0.0000000000
       408       107  TIP3      H2             14.7206077706      -30.0620677017      -19.6439803981  SOLV      96              0.0000000000
       409       108  TIP3      OH2             6.6609665567      -26.2770850876      -22.5471655194  SOLV      97              0.0000000000
       410       108  TIP3      H1              6.6327893617      -26.4154516156      -23.5034233116  SOLV      97              0.0000000000
       411       108  TIP3      H2              7.5726464718      -26.5626451232      -22.3116756324  SOLV      97              0.0000000000
       412       109  TIP3      OH2             6.5655331562      -30.3330279377      -20.4293613081  SOLV      98              0.0000000000
       413       109  TIP3      H1              7.2055667151      -30.6917818445      -21.0925594655  SOLV      98              0.0000000000
       414       109  TIP3      H2              7.0530310638      -29.5307131912      -20.1257777684  SOLV      98              0.0000000000
       415       110  TIP3      OH2            12.1000319080      -24.2019110267      -22.7904414824  SOLV      99              0.0000000000
       416       110  TIP3      H1             11.9727894001      -23.4161420577      -22.2283723289  SOLV      99              0.0000000000
       417       110  TIP3      H2             11.9203991791      -24.9407608106      -22.1787013046  SOLV      99              0.0000000000
       418       111  TIP3      OH2             8.2385895354      -25.0111901273      -17.1970158636  SOLV      100             0.0000000000
       419       111  TIP3      H1              7.6070957273      -24.3844871866      -16.7825786898  SOLV      100             0.0000000000
       420       111  TIP3      H2              7.6160178938      -25.5370784402      -17.7430036242  SOLV      100             0.0000000000
       421       112  TIP3      OH2             5.7441233970      -29.4314856381      -16.2414516055  SOLV      101             0.0000000000
       422       112  TIP3      H1              5.7807121044      -28.5591649915      -15.8015749224  SOLV      101             0.0000000000
       423       112  TIP3      H2              4.8141460052      -29.6794917103      -16.0574533814  SOLV      101             0.0000000000
       424       113  TIP3      OH2             8.6524460377      -24.2589005557      -26.2876396891  SOLV      102             0.0000000000
       425       113  TIP3      H1              9.1508437844      -23.4617223091      -26.0360712528  SOLV      102             0.0000000000
       426       113  TIP3      H2              8.7447199670      -24.2487212430      -27.2555933033  SOLV      102             0.0000000000
       427       114  TIP3      OH2             6.1695748180      -23.3978114682      -16.3226734840  SOLV      103             0.0000000000
       428       114  TIP3      H1              5.8331612383      -23.3241850263      -17.2356224368  SOLV      103             0.0000000000
       429       114  TIP3      H2              5.3522981868      -23.6094584297      -15.8163623067  SOLV      103             0.0000000000
       430       115  TIP3      OH2             1.9536728597      -27.9987719136      -16.8899698236  SOLV      104             0.0000000000
       431       115  TIP3      H1              1.2478803451      -28.1842589134      -17.5463604704  SOLV      104             0.0000000000
       432       115  TIP3      H2              2.3030940382      -28.8880506625      -16.6830081816  SOLV      104             0.0000000000
       433       116  TIP3      OH2             0.4944463143      -26.0701951283      -20.5416989549  SOLV      105             0.0000000000
       434       116  TIP3      H1              1.4564145420      -25.9694641113      -20.5612256317  SOLV      105             0.0000000000
       435       116  TIP3      H2              0.2273532803      -25.2690879998      -20.0615627239  SOLV      105             0.0000000000
       436       117  TIP3      OH2            19.1729755936      -21.6450594799      -19.7635285166  SOLV      106             0.0000000000
       437       117  TIP3      H1             19.0189872739      -22.5071404085      -19.3554096281  SOLV      106             0.0000000000
       438       117  TIP3      H2             18.3102416555      -21.2150549835      -19.5849521128  SOLV      106             0.0000000000
       439       118  TIP3      OH2            10.2053474606      -23.7152016259      -18.6430511668  SOLV      107             0.0000000000
       440       118  TIP3      H1             10.1510685190      -22.7823127661      -18.3398536178  SOLV      107             0.0000000000
       441       118  TIP3      H2              9.4877262766      -24.1257309466      -18.1127656765  SOLV      107             0.0000000000
       442       119  TIP3      OH2             8.1427100643      -21.9657784812      -29.4400238817  SOLV      108             0.0000000000
       443       119  TIP3      H1              7.3588530041      -22.4812253501      -29.6890762463  SOLV      108             0.0000000000
       444       119  TIP3      H2              7.7461752745      -21.1857274246      -29.0140513017  SOLV      108             0.0000000000
       445       120  TIP3      OH2             2.1968941758      -23.9015412751      -25.2414029750  SOLV      109             0.0000000000
       446       120  TIP3      H1              2.6457292324      -24.0226926342      -24.3728889394  SOLV      109             0.0000000000
       447       120  TIP3      H2              1.7276800635      -24.7520082171      -25.3193639072  SOLV      109             0.0000000000
       448       121  TIP3      OH2             3.9810787786      -26.1742771084      -17.1092615469  SOLV      110             0.0000000000
       449       121  TIP3      H1              4.4491328772      -26.3478883317      -16.2693920799  SOLV      110             0.0000000000
       450       121  TIP3      H2              3.2291101199      -26.8013381891      -17.0417999405  SOLV      110             0.0000000000
       451       122  TIP3      OH2             6.9611066456      -32.8583819642      -19.2151128158  SOLV      111             0.0000000000
       452       122  TIP3      H1              6.6485818655      -32.7404048686      -18.2950743697  SOLV      111             0.0000000000
       453       122  TIP3      H2              7.0073566107      -31.9385845585      -19.5112915594  SOLV      111             0.0000000000
       454       123  TIP3      OH2            12.7897602746      -29.9966424891      -15.6819299130  SOLV      112             0.0000000000
       455       123  TIP3      H1             12.6128373994      -30.8095112987      -15.1649604486  SOLV      112             0.0000000000
       456       123  TIP3      H2             13.7547440044      -30.0209517755      -15.7606498632  SOLV      112             0.0000000000
       457       124  TIP3      OH2             5.4910317117      -32.3989620783      -16.8998461246  SOLV      113             0.0000000000
       458       124  TIP3      H1              5.9918178321      -31.7637802148      -16.3608720454  SOLV      113             0.0000000000
       459       124  TIP3      H2              5.4050177546      -33.1485269264      -16.2620507159  SOLV      113             0.0000000000
       460       125  TIP3      OH2            16.1089145197      -18.0825164683      -18.9744193085  SOLV      114             0.0000000000
       461       125  TIP3      H1             16.0708548388      -17.8097137196      -19.9087332569  SOLV      114             0.0000000000
       462       125  TIP3      H2             16.9114031431      -17.6129050165      -18.6705361838  SOLV      114             0.0000000000
       463       126  TIP3      OH2             5.5689491316      -26.9828054036      -14.8745925586  SOLV      115             0.0000000000
       464       126  TIP3      H1              6.2600581151      -26.4186658952      -14.5079690735  SOLV      115             0.0000000000
       465       126  TIP3      H2              4.9327156463      -27.0237898141      -14.1306898972  SOLV      115             0.0000000000
       466       127  TIP3      OH2            11.3167012350      -26.3718112246      -18.4593243301  SOLV      116             0.0000000000
       467       127  TIP3      H1             11.6851617003      -26.5949367356      -17.5968545060  SOLV      116             0.0000000000
       468       127  TIP3      H2             10.9951735599      -25.4620343895      -18.3370494782  SOLV      116             0.0000000000
       469       128  TIP3      OH2             4.1254088960      -29.5600096634      -21.6613640786  SOLV      117             0.0000000000
       470       128  TIP3      H1              4.7513080308      -29.4662121760      -22.3849879202  SOLV      117             0.0000000000
       471       128  TIP3      H2              4.7018857827      -29.9160974407      -20.9605518021  SOLV      117             0.0000000000
       472       129  TIP3      OH2             3.1392673334      -30.1497109908      -15.5311413539  SOLV      118             0.0000000000
       473       129  TIP3      H1              3.2906387583      -30.2872293700      -14.5764120797  SOLV      118             0.0000000000
       474       129  TIP3      H2              2.4540287996      -30.8168474415      -15.7078774481  SOLV      118             0.0000000000
       475       130  TIP3      OH2            10.3271681429      -28.8882678890      -15.3019666733  SOLV      119             0.0000000000
       476       130  TIP3      H1              9.8186504938      -29.4765034840      -15.8805063553  SOLV      119             0.0000000000
       477       130  TIP3      H2             11.2409753434      -29.1768014798      -15.5271422935  SOLV      119             0.0000000000
       478       131  TIP3      OH2            12.9557783768      -23.8203071618      -19.4287937340  SOLV      120             0.0000000000
       479       131  TIP3      H1             11.9896843433      -23.7929714564      -19.3105654131  SOLV      120             0.0000000000
       480       131  TIP3      H2             13.2435077666      -23.2604723332      -18.6762933965  SOLV      120             0.0000000000
       481       132  TIP3      OH2            19.2726699788      -24.6888823374      -19.5236883920  SOLV      121             0.0000000000
       482       132  TIP3      H1             18.3044080178      -24.6517382859      -19.7100547106  SOLV      121             0.0000000000
       483       132  TIP3      H2             19.6398520377      -24.5778529253      -20.4118393517  SOLV      121             0.0000000000
       484       133  TIP3      OH2             5.6038049606      -26.2536993730      -25.3131133796  SOLV      122             0.0000000000
       485       133  TIP3      H1              5.3877400715      -25.3882403049      -25.7169504379  SOLV      122             0.0000000000
       486       133  TIP3      H2              4.7491498554      -26.6998068642      -25.3789311698  SOLV      122             0.0000000000
       487       134  TIP3      OH2             8.0588264817      -22.8730048533      -20.7339384507  SOLV      123             0.0000000000
       488       134  TIP3      H1              8.4643700333      -22.1345334230      -21.2279525712  SOLV      123             0.0000000000
       489       134  TIP3      H2              8.8294408777      -23.2397870970      -20.2724457967  SOLV      123             0.0000000000
       490       135  TIP3      OH2             4.5436614315      -24.0304003514      -26.6628478583  SOLV      124             0.0000000000
       491       135  TIP3      H1              3.6814388988      -23.8316999633      -26.2390066147  SOLV      124             0.0000000000
       492       135  TIP3      H2              4.9005597626      -23.1207989191      -26.7716825652  SOLV      124             0.0000000000
       493       136  TIP3      OH2            11.8937579252      -26.5639519068      -21.1046519782  SOLV      125             0.0000000000
       494       136  TIP3      H1             11.6747055124      -26.5191980867      -20.1437592826  SOLV      125             0.0000000000
       495       136  TIP3      H2             12.7972582291      -26.8917200748      -21.0591252805  SOLV      125             0.0000000000
       496       137  TIP3      OH2            14.4228867795      -21.2639167157      -20.6516892248  SOLV      126             0.0000000000
       497       137  TIP3      H1             13.6048479836      -21.7871102346      -20.7371568400  SOLV      126             0.0000000000
       498       137  TIP3      H2             14.2494385793      -20.5334164969      -21.2845688859  SOLV      126             0.0000000000
       499       138  TIP3      OH2             5.5078721665      -34.4568999375      -15.1233610885  SOLV      127             0.0000000000
       500       138  TIP3      H1              4.8641909429      -35.1402891993      -15.4087000479  SOLV      127             0.0000000000
       501       138  TIP3      H2              6.2287321158      -35.0129922816      -14.8104651924  SOLV      127             0.0000000000
       502       139  TIP3      OH2             2.4461209666      -24.2446529843      -19.1600652305  SOLV      128             0.0000000000
       503       139  TIP3      H1              2.9682248563      -24.9092212553      -18.6836526283  SOLV      128             0.0000000000
       504       139  TIP3      H2              2.6079610016      -23.4508659846      -18.6350639140  SOLV      128             0.0000000000
       505       140  TIP3      OH2            12.0979148377      -32.0001619239      -17.6641359743  SOLV      129             0.0000000000
       506       140  TIP3      H1             12.4144229244      -31.1911491800      -17.2354899079  SOLV      129             0.0000000000
       507       140  TIP3      H2             12.9231960703      -32.4222033756      -17.9408612262  SOLV      129             0.0000000000
       508       141  TIP3      OH2            14.4961007147      -21.1180428936      -24.4984015839  SOLV      130             0.0000000000
       509       141  TIP3      H1             14.0998198734      -20.7541592641      -25.3240156733  SOLV      130             0.0000000000
       510       141  TIP3      H2             15.4492145077      -20.9855529175      -24.7133198036  SOLV      130             0.0000000000
       511       142  TIP3      OH2             0.7956041017      -26.2764048967      -25.5428419334  SOLV      131             0.0000000000
       512       142  TIP3      H1              0.1144927065      -26.0450923459      -24.8940778783  SOLV      131             0.0000000000
       513       142  TIP3      H2              0.4178015619      -25.9140569586      -26.3723550070  SOLV      131             0.0000000000
       514       143  TIP3      OH2             2.3354844038      -21.0721675308      -14.9203759903  SOLV      132             0.0000000000
       515       143  TIP3      H1              3.1827690704      -21.0584605694      -14.4209881260  SOLV      132             0.0000000000
       516       143  TIP3      H2              2.1064211543      -22.0156733906      -14.8910135062  SOLV      132             0.0000000000
       517       144  TIP3      OH2             7.0539621715      -21.6999397596      -14.2788666840  SOLV      133             0.0000000000
       518       144  TIP3      H1              8.0121447870      -21.5965213291      -14.3546140051  SOLV      133             0.0000000000
       519       144  TIP3      H2              6.8556858618      -22.2441332901      -15.0688168376  SOLV      133             0.0000000000
       520       145  TIP3      OH2            13.4811582700      -22.4286740084      -17.1135205258  SOLV      134             0.0000000000
       521       145  TIP3      H1             13.4315905650      -23.1375078830      -16.4325584567  SOLV      134             0.0000000000
       522       145  TIP3      H2             14.2635317813      -21.9176661609      -16.8239478933  SOLV      134             0.0000000000
       523       146  TIP3      OH2             3.6328241573      -27.0794259479      -12.8873527070  SOLV      135             0.0000000000
       524       146  TIP3      H1              3.7496770036      -28.0443681033      -12.8148258959  SOLV      135             0.0000000000
       525       146  TIP3      H2              2.7571284010      -27.0232966663      -13.3323526520  SOLV      135             0.0000000000
       526       147  TIP3      OH2             9.6326343024      -26.1930986633      -15.1223279247  SOLV      136             0.0000000000
       527       147  TIP3      H1              9.2127138057      -25.9889419950      -15.9838613801  SOLV      136             0.0000000000
       528       147  TIP3      H2              9.9415016336      -27.1178161907      -15.2580663644  SOLV      136             0.0000000000
       529       148  TIP3      OH2            14.5796151686      -26.1173331137      -19.0754712870  SOLV      137             0.0000000000
       530       148  TIP3      H1             15.3334056529      -25.6419671085      -19.4715765700  SOLV      137             0.0000000000
       531       148  TIP3      H2             13.8752083427      -25.4487123980      -19.1812919671  SOLV      137             0.0000000000
       532       149  TIP3      OH2             4.9047909144      -29.7022076208      -13.0815035793  SOLV      138             0.0000000000
       533       149  TIP3      H1              5.6782607131      -30.1937985364      -13.3848301172  SOLV      138             0.0000000000
       534       149  TIP3      H2              5.1681262656      -29.4494718935      -12.1745677060  SOLV      138             0.0000000000
       535       150  TIP3      OH2             8.0109702451      -30.9487981300      -16.4900363359  SOLV      139             0.0000000000
       536       150  TIP3      H1              7.3089146775      -30.2616926818      -16.4336279841  SOLV      139             0.0000000000
       537       150  TIP3      H2              8.5792836280      -30.5900301425      -17.2021477401  SOLV      139             0.0000000000
       538       151  TIP3      OH2            13.3921803790      -26.8547369802      -15.1197359130  SOLV      140             0.0000000000
       539       151  TIP3      H1             14.0784562421      -27.2383040449      -15.6791368296  SOLV      140             0.0000000000
       540       151  TIP3      H2             13.2560651131      -27.5561127805      -14.4602646994  SOLV      140             0.0000000000
       541       152  TIP3      OH2             9.4319630670      -32.8466491363      -15.1961913127  SOLV      141             0.0000000000
       542       152  TIP3      H1              9.3162730165      -33.6117626265      -15.7702651280  SOLV      141             0.0000000000
       543       152  TIP3      H2              8.9360617930      -32.1629102934      -15.7017872915  SOLV      141             0.0000000000
       544       153  TIP3      OH2             9.6327757333      -29.7487263693      -18.2397761012  SOLV      142             0.0000000000
       545       153  TIP3      H1             10.4526605594      -29.9153433752      -18.7199979500  SOLV      142             0.0000000000
       546       153  TIP3      H2              9.1773735573      -29.0834758336      -18.7994999435  SOLV      142             0.0000000000
       547       154  TIP3      OH2            15.4973016181      -29.9114861236      -14.4475754712  SOLV      143             0.0000000000
       548       154  TIP3      H1             15.4529948349      -30.8783865618      -14.6200970275  SOLV      143             0.0000000000
       549       154  TIP3      H2             16.1500784947      -29.6119795139      -15.0867933097  SOLV      143             0.0000000000
       550       155  TIP3      OH2            15.9705785339      -27.4285835467      -17.0840256830  SOLV      144             0.0000000000
       551       155  TIP3      H1             15.3488097886      -27.0506995265      -17.7467577148  SOLV      144             0.0000000000
       552       155  TIP3      H2             16.8170050783      -27.3458014679      -17.5633254263  SOLV      144             0.0000000000
       553       156  TIP3      OH2             8.0426005239      -31.2849676497      -13.0415337965  SOLV      145             0.0000000000
       554       156  TIP3      H1              7.4081394193      -32.0073212324      -12.8754032530  SOLV      145             0.0000000000
       555       156  TIP3      H2              8.6491255878      -31.7072449140      -13.6761431298  SOLV      145             0.0000000000
       556       157  TIP3      OH2            12.1204203877      -32.3362209318      -14.4054469981  SOLV      146             0.0000000000
       557       157  TIP3      H1             11.8674352485      -32.3023153065      -13.4532891811  SOLV      146             0.0000000000
       558       157  TIP3      H2             11.2345898423      -32.4831610881      -14.7892207859  SOLV      146             0.0000000000
       559       158  TIP3      OH2            14.7999223176      -32.4619716154      -15.0032580687  SOLV      147             0.0000000000
       560       158  TIP3      H1             13.8565563189      -32.4586251890      -14.7221672671  SOLV      147             0.0000000000
       561       158  TIP3      H2             15.0621239464      -33.3729644880      -14.7518088398  SOLV      147             0.0000000000
       562       159  TIP3      OH2             6.2207607794      -33.2340510042      -12.4457417516  SOLV      148             0.0000000000
       563       159  TIP3      H1              6.4754891881      -33.9512724976      -13.0616611541  SOLV      148             0.0000000000
       564       159  TIP3      H2              6.4166789094      -33.6659796209      -11.6020987682  SOLV      148             0.0000000000
       565       160  TIP3      OH2            -1.4132573010      -23.0208798117      -24.9296863781  SOLV      149             0.0000000000
       566       160  TIP3      H1             -2.0115865209      -23.6534522474      -25.3847960141  SOLV      149             0.0000000000
       567       160  TIP3      H2             -0.9978410095      -23.6134074891      -24.2669710432  SOLV      149             0.0000000000
       568       161  TIP3      OH2            -0.1617072287      -24.6033902241      -23.0533657347  SOLV      150             0.0000000000
       569       161  TIP3      H1             -0.2710182689      -25.2917466347      -22.3756223773  SOLV      150             0.0000000000
       570       161  TIP3      H2              0.3642855453      -23.9532642225      -22.5521376255  SOLV      150             0.0000000000
       571       162  TIP3      OH2            17.0559904624      -20.5048437762      -25.1505646861  SOLV      151             0.0000000000
       572       162  TIP3      H1             17.7878215824      -20.6827537328      -24.5328935719  SOLV      151             0.0000000000
       573       162  TIP3      H2             17.3164542387      -19.6490866420      -25.5151537382  SOLV      151             0.0000000000
       574       163  TIP3      OH2            17.2538985012      -20.2059291091      -22.0535219198  SOLV      152             0.0000000000
       575       163  TIP3      H1             16.9001529299      -21.1198643602      -22.0601941299  SOLV      152             0.0000000000
       576       163  TIP3      H2             18.1231674095      -20.3710246935      -22.4486112225  SOLV      152             0.0000000000
       577       164  TIP3      OH2            17.9283588921      -23.5820863935      -16.5749114520  SOLV      153             0.0000000000
       578       164  TIP3      H1             17.2006115413      -23.4892301709      -15.9274977311  SOLV      153             0.0000000000
       579       164  TIP3      H2             18.3396514351      -22.6944791243      -16.5222563012  SOLV      153             0.0000000000
       580       165  TIP3      OH2            16.2655817244      -22.8441540795      -21.9957459063  SOLV      154             0.0000000000
       581       165  TIP3      H1             15.5530082968      -22.3794296345      -21.5074438746  SOLV      154             0.0000000000
       582       165  TIP3      H2             15.7638244562      -23.2225779292      -22.7528509738  SOLV      154             0.0000000000
       583       166  TIP3      OH2             1.6527080962      -30.4942613323      -19.4239169314  SOLV      155             0.0000000000
       584       166  TIP3      H1              1.6626629301      -30.8473247313      -20.3318213090  SOLV      155             0.0000000000
       585       166  TIP3      H2              2.6166033512      -30.4834506715      -19.2166927572  SOLV      155             0.0000000000
       586       167  TIP3      OH2            18.5278115880      -27.1342768465      -18.2895080535  SOLV      156             0.0000000000
       587       167  TIP3      H1             18.5428605097      -27.8215967318      -18.9572811249  SOLV      156             0.0000000000
       588       167  TIP3      H2             18.6920743665      -26.3168102409      -18.8100767424  SOLV      156             0.0000000000
       589       168  TIP3      OH2             3.4870274921      -33.6975100020      -12.7947633087  SOLV      157             0.0000000000
       590       168  TIP3      H1              4.4410469516      -33.6023273637      -12.9965686809  SOLV      157             0.0000000000
       591       168  TIP3      H2              3.5314761431      -34.0527929664      -11.9005456478  SOLV      157             0.0000000000
       592       169  TIP3      OH2             1.6975721770      -33.8933048552      -18.6387024665  SOLV      158             0.0000000000
       593       169  TIP3      H1              2.4255001065      -33.6317870473      -19.2043966522  SOLV      158             0.0000000000
       594       169  TIP3      H2              1.6964814582      -33.1858920777      -17.9811456437  SOLV      158             0.0000000000
       595       170  TIP3      OH2             3.9917242251      -23.9299453008      -14.6484978693  SOLV      159             0.0000000000
       596       170  TIP3      H1              3.0598131613      -24.0794696055      -14.8990941326  SOLV      159             0.0000000000
       597       170  TIP3      H2              3.9232640494      -23.9178980392      -13.6866136748  SOLV      159             0.0000000000
       598       171  TIP3      OH2             5.8183694716      -23.4330506458      -19.1877852351  SOLV      160             0.0000000000
       599       171  TIP3      H1              5.2964565870      -22.6980944653      -19.5724004881  SOLV      160             0.0000000000
       600       171  TIP3      H2              6.6518731663      -23.2854843633      -19.6815656659  SOLV      160             0.0000000000
       601       172  TIP3      OH2            10.1366654901      -21.0578664433      -17.8838744972  SOLV      161             0.0000000000
       602       172  TIP3      H1             10.5591778842      -21.0566262793      -16.9974161190  SOLV      161             0.0000000000
       603       172  TIP3      H2             10.7950112357      -20.5357851349      -18.3921417920  SOLV      161             0.0000000000
       604       173  TIP3      OH2            11.9584543038      -19.5094416432      -19.2095216886  SOLV      162             0.0000000000
       605       173  TIP3      H1             12.6822380351      -19.9820952749      -19.6415408665  SOLV      162             0.0000000000
       606       173  TIP3      H2             12.4663680780      -18.9246884636      -18.6033699616  SOLV      162             0.0000000000
       607       174  TIP3      OH2             2.5224620360      -20.9484762612      -18.9142921961  SOLV      163             0.0000000000
       608       174  TIP3      H1              1.6059618517      -20.6797867078      -19.1585358612  SOLV      163             0.0000000000
       609       174  TIP3      H2              2.6663036760      -20.3763470920      -18.1521587110  SOLV      163             0.0000000000
       610       175  TIP3      OH2             4.8622900383      -21.1325546584      -20.3705136423  SOLV      164             0.0000000000
       611       175  TIP3      H1              3.9905978664      -21.0247509173      -19.9274995409  SOLV      164             0.0000000000
       612       175  TIP3      H2              4.6605224379      -20.8073294420      -21.2705482571  SOLV      164             0.0000000000
       613       176  TIP3      OH2             9.1576719986      -20.8675073450      -22.4937345678  SOLV      165             0.0000000000
       614       176  TIP3      H1              8.3705754003      -20.6788975305      -23.0422813702  SOLV      165             0.0000000000
       615       176  TIP3      H2              9.2809923881      -20.0048296820      -22.0402379563  SOLV      165             0.0000000000
       616       177  TIP3      OH2            11.8426594868      -21.5007767171      -21.9335705096  SOLV      166             0.0000000000
       617       177  TIP3      H1             10.9000848441      -21.3030132417      -22.0967114967  SOLV      166             0.0000000000
       618       177  TIP3      H2             12.2695646434      -20.6864346344      -22.2510317393  SOLV      166             0.0000000000
       619       178  TIP3      OH2            13.7479062577      -19.4004600431      -22.5613591024  SOLV      167             0.0000000000
       620       178  TIP3      H1             13.6233550277      -18.5523222653      -23.0410097253  SOLV      167             0.0000000000
       621       178  TIP3      H2             14.0533321556      -19.9800125123      -23.2973680536  SOLV      167             0.0000000000
       622       179  TIP3      OH2             1.6385530534      -22.9879563022      -21.5665245553  SOLV      168             0.0000000000
       623       179  TIP3      H1              1.8745673066      -23.2999910034      -20.6668079713  SOLV      168             0.0000000000
       624       179  TIP3      H2              2.3760481778      -23.3968669212      -22.0723833754  SOLV      168             0.0000000000
       625       180  TIP3      OH2             3.6110271773      -24.2411839042      -22.9237441626  SOLV      169             0.0000000000
       626       180  TIP3      H1              3.7443447704      -25.0862443594      -22.4362324318  SOLV      169             0.0000000000
       627       180  TIP3      H2              4.5222954574      -23.8807681612      -22.9354707429  SOLV      169             0.0000000000
       628       181  TIP3      OH2             6.2653983012      -23.3155154019      -22.8854810859  SOLV      170             0.0000000000
       629       181  TIP3      H1              6.5833476176      -24.2173248969      -23.0563660084  SOLV      170             0.0000000000
       630       181  TIP3      H2              6.7412905814      -23.1202449581      -22.0558357037  SOLV      170             0.0000000000
       631       182  TIP3      OH2            -0.5149124821      -25.1077453898      -27.6044028927  SOLV      171             0.0000000000
       632       182  TIP3      H1             -1.3926405614      -25.4919516932      -27.6961496716  SOLV      171             0.0000000000
       633       182  TIP3      H2             -0.6617714769      -24.2362599980      -28.0221712808  SOLV      171             0.0000000000
       634       183  TIP3      OH2            -0.8125377567      -25.6033400379      -30.7207881348  SOLV      172             0.0000000000
       635       183  TIP3      H1             -0.9938007074      -24.6668271168      -30.5687377934  SOLV      172             0.0000000000
       636       183  TIP3      H2              0.0659800356      -25.5659566972      -31.1360085472  SOLV      172             0.0000000000
       637       184  TIP3      OH2            16.6472875840      -20.7914714598      -18.9581364060  SOLV      173             0.0000000000
       638       184  TIP3      H1             15.8971040747      -21.0715711389      -19.5193612612  SOLV      173             0.0000000000
       639       184  TIP3      H2             16.5027276855      -19.8227323599      -18.9482108003  SOLV      173             0.0000000000
       640       185  TIP3      OH2            23.2840920905      -20.0544477353      -21.5908078694  SOLV      174             0.0000000000
       641       185  TIP3      H1             23.2671859918      -20.5573927637      -22.4092366692  SOLV      174             0.0000000000
       642       185  TIP3      H2             22.7748084514      -20.6270672377      -20.9774317837  SOLV      174             0.0000000000
       643       186  TIP3      OH2            23.4581997665      -24.5253091392      -19.5661942912  SOLV      175             0.0000000000
       644       186  TIP3      H1             24.1223680358      -24.5186627229      -18.8764961144  SOLV      175             0.0000000000
       645       186  TIP3      H2             22.6490709200      -24.3172205347      -19.0611000563  SOLV      175             0.0000000000
       646       187  TIP3      OH2            19.3256603098      -21.0463772965      -23.6236281980  SOLV      176             0.0000000000
       647       187  TIP3      H1             19.7829258288      -21.9119730048      -23.4836846934  SOLV      176             0.0000000000
       648       187  TIP3      H2             20.0590884466      -20.5227812418      -23.9707477159  SOLV      176             0.0000000000
       649       188  TIP3      OH2            20.2559027341      -18.4739458781      -20.0736340457  SOLV      177             0.0000000000
       650       188  TIP3      H1             21.0953994919      -18.4430797059      -19.5589163278  SOLV      177             0.0000000000
       651       188  TIP3      H2             20.0981436624      -19.4295918033      -20.1210709682  SOLV      177             0.0000000000
       652       189  TIP3      OH2            24.9243311117      -19.0092537009      -19.2787558112  SOLV      178             0.0000000000
       653       189  TIP3      H1             25.8398705551      -18.7043253261      -19.1636778936  SOLV      178             0.0000000000
       654       189  TIP3      H2             24.8338589012      -18.8973637209      -20.2433839836  SOLV      178             0.0000000000
       655       190  TIP3      OH2            21.3884162111      -24.3835259656      -17.7097687400  SOLV      179             0.0000000000
       656       190  TIP3      H1             21.5367434992      -25.2198412130      -17.2605779114  SOLV      179             0.0000000000
       657       190  TIP3      H2             20.5549284335      -24.5425825660      -18.2108977815  SOLV      179             0.0000000000
       658       191  TIP3      OH2            21.8941182738      -21.5194593411      -19.7446392642  SOLV      180             0.0000000000
       659       191  TIP3      H1             20.9281509310      -21.6375082416      -19.8616182529  SOLV      180             0.0000000000
       660       191  TIP3      H2             21.9710726662      -21.4972938903      -18.7838473578  SOLV      180             0.0000000000
       661       192  TIP3      OH2            20.3782885476      -18.4279593316      -24.2536050640  SOLV      181             0.0000000000
       662       192  TIP3      H1             19.4694312194      -18.0524179433      -24.3123834997  SOLV      181             0.0000000000
       663       192  TIP3      H2             20.6803887725      -18.0588803014      -23.4183924993  SOLV      181             0.0000000000
       664       193  TIP3      OH2            22.9283381168      -18.3770474997      -25.2974052301  SOLV      182             0.0000000000
       665       193  TIP3      H1             22.0103880831      -18.5072369336      -24.9941916761  SOLV      182             0.0000000000
       666       193  TIP3      H2             22.8029578898      -18.2485573467      -26.2569731946  SOLV      182             0.0000000000
       667       194  TIP3      OH2           -19.1109184190      -19.2534123661      -13.4411790479  SOLV      183             0.0000000000
       668       194  TIP3      H1            -19.8342943506      -18.8311724361      -13.9416383071  SOLV      183             0.0000000000
       669       194  TIP3      H2            -18.9966023750      -18.6326173108      -12.7084109700  SOLV      183             0.0000000000
       670       195  TIP3      OH2           -24.8159540113      -10.7978259700      -16.9471170799  SOLV      184             0.0000000000
       671       195  TIP3      H1            -25.7085102264      -11.3429885133      -16.8589821654  SOLV      184             0.0000000000
       672       195  TIP3      H2            -25.1136796215      -10.1116011453      -17.5100210622  SOLV      184             0.0000000000
       673       196  TIP3      OH2           -22.7507507326      -12.0149297921      -13.7892490590  SOLV      185             0.0000000000
       674       196  TIP3      H1            -22.9027047981      -12.7442415844      -14.4230005509  SOLV      185             0.0000000000
       675       196  TIP3      H2            -22.9108998407      -11.2197877249      -14.3523239393  SOLV      185             0.0000000000
       676       197  TIP3      OH2           -20.8281379914      -15.5770258185      -15.3208622968  SOLV      186             0.0000000000
       677       197  TIP3      H1            -21.6959372067      -15.1155254587      -15.2749772390  SOLV      186             0.0000000000
       678       197  TIP3      H2            -20.5705323991      -15.3738181623      -16.2391815641  SOLV      186             0.0000000000
       679       198  TIP3      OH2           -24.0613366423      -16.8599132568      -12.3229252638  SOLV      187             0.0000000000
       680       198  TIP3      H1            -24.0689340007      -16.0626060158      -11.7641978245  SOLV      187             0.0000000000
       681       198  TIP3      H2            -24.8343323085      -16.6918774727      -12.8844192443  SOLV      187             0.0000000000
       682       199  TIP3      OH2           -27.4242734496      -11.2267705157      -15.7038294330  SOLV      188             0.0000000000
       683       199  TIP3      H1            -27.4934387055      -10.2733674153      -15.5147565929  SOLV      188             0.0000000000
       684       199  TIP3      H2            -27.1811025701      -11.5734680885      -14.8546781996  SOLV      188             0.0000000000
       685       200  TIP3      OH2           -31.3675057487      -12.0287432402      -10.5773761876  SOLV      189             0.0000000000
       686       200  TIP3      H1            -31.9353368442      -11.3058122758      -10.2270747701  SOLV      189             0.0000000000
       687       200  TIP3      H2            -32.0291842037      -12.6983595631      -10.7881131189  SOLV      189             0.0000000000
       688       201  TIP3      OH2           -33.3647683555      -10.2532870262       -9.7937165224  SOLV      190             0.0000000000
       689       201  TIP3      H1            -34.0108669821       -9.6666754520      -10.1851829959  SOLV      190             0.0000000000
       690       201  TIP3      H2            -33.8824490725      -10.6573185464       -9.0466287294  SOLV      190             0.0000000000
       691       202  TIP3      OH2           -20.4011683229       -8.4801286991      -13.3471860892  SOLV      191             0.0000000000
       692       202  TIP3      H1            -20.3963838977       -9.4500791748      -13.2243244989  SOLV      191             0.0000000000
       693       202  TIP3      H2            -21.2477077215       -8.2603938515      -12.8953030589  SOLV      191             0.0000000000
       694       203  TIP3      OH2           -29.2616402067      -10.6814136676      -11.8544420126  SOLV      192             0.0000000000
       695       203  TIP3      H1            -29.3773959750       -9.7628515014      -11.5224193707  SOLV      192             0.0000000000
       696       203  TIP3      H2            -30.0412651937      -11.1309977662      -11.4726991170  SOLV      192             0.0000000000
       697       204  TIP3      OH2           -21.5014192803      -17.2649634798      -10.5593088015  SOLV      193             0.0000000000
       698       204  TIP3      H1            -22.2481926428      -17.2072926714      -11.1757569281  SOLV      193             0.0000000000
       699       204  TIP3      H2            -21.3447782215      -18.2291019475      -10.5480057831  SOLV      193             0.0000000000
       700       205  TIP3      OH2           -23.7428166235      -19.4768528215      -11.3856000938  SOLV      194             0.0000000000
       701       205  TIP3      H1            -24.3356226599      -19.5870785659      -10.6141369953  SOLV      194             0.0000000000
       702       205  TIP3      H2            -24.0279655944      -18.6232585147      -11.7641310839  SOLV      194             0.0000000000
       703       206  TIP3      OH2           -26.7820413776      -17.2285501884       -9.0631960726  SOLV      195             0.0000000000
       704       206  TIP3      H1            -26.9991087068      -18.0624873397       -8.5983934383  SOLV      195             0.0000000000
       705       206  TIP3      H2            -25.8316037048      -17.1592350004       -8.8686623279  SOLV      195             0.0000000000
       706       207  TIP3      OH2           -23.4570717257       -5.0422025733      -12.3225380461  SOLV      196             0.0000000000
       707       207  TIP3      H1            -23.4725171369       -4.8334475095      -13.2753773727  SOLV      196             0.0000000000
       708       207  TIP3      H2            -22.6354030700       -4.5931038582      -12.0366352677  SOLV      196             0.0000000000
       709       208  TIP3      OH2           -33.9466718628      -14.1582624932       -7.5553401598  SOLV      197             0.0000000000
       710       208  TIP3      H1            -33.0654852924      -13.8653783718       -7.2562909910  SOLV      197             0.0000000000
       711       208  TIP3      H2            -34.3975517184      -13.3163557804       -7.7069554974  SOLV      197             0.0000000000
       712       209  TIP3      OH2           -23.1729066714      -14.0972154699      -15.5327589222  SOLV      198             0.0000000000
       713       209  TIP3      H1            -22.8202123122      -13.6066960433      -16.3092201254  SOLV      198             0.0000000000
       714       209  TIP3      H2            -23.9694399372      -14.4953859221      -15.9136212790  SOLV      198             0.0000000000
       715       210  TIP3      OH2           -27.6757813069      -12.9573617584      -11.3217169086  SOLV      199             0.0000000000
       716       210  TIP3      H1            -27.5071735551      -13.1103566092      -10.3951944696  SOLV      199             0.0000000000
       717       210  TIP3      H2            -28.2059418801      -12.1356843921      -11.3278892630  SOLV      199             0.0000000000
       718       211  TIP3      OH2           -29.1666447532      -15.8544345287       -8.5838398979  SOLV      200             0.0000000000
       719       211  TIP3      H1            -29.8655763288      -16.2121524450       -9.1651411152  SOLV      200             0.0000000000
       720       211  TIP3      H2            -28.3574826742      -16.2977764932       -8.9202482135  SOLV      200             0.0000000000
       721       212  TIP3      OH2           -26.6256431497      -10.4865562736      -12.9726554679  SOLV      201             0.0000000000
       722       212  TIP3      H1            -27.5632443345      -10.6390869156      -12.7225099821  SOLV      201             0.0000000000
       723       212  TIP3      H2            -26.2905987450      -10.1291828976      -12.1139824925  SOLV      201             0.0000000000
       724       213  TIP3      OH2           -20.2403229019      -11.3566372976      -12.9612030762  SOLV      202             0.0000000000
       725       213  TIP3      H1            -21.2163516294      -11.4726797361      -13.0137115887  SOLV      202             0.0000000000
       726       213  TIP3      H2            -19.9867271021      -11.7033958706      -13.8509737499  SOLV      202             0.0000000000
       727       214  TIP3      OH2           -31.2218083547       -9.9618666139      -13.9046003403  SOLV      203             0.0000000000
       728       214  TIP3      H1            -31.0863454167       -9.1681095183      -14.4552798422  SOLV      203             0.0000000000
       729       214  TIP3      H2            -30.4217851235       -9.9670427712      -13.3633588571  SOLV      203             0.0000000000
       730       215  TIP3      OH2           -28.6401838855      -14.0356663645      -13.7181981314  SOLV      204             0.0000000000
       731       215  TIP3      H1            -28.2380611798      -13.7326174205      -12.8665746358  SOLV      204             0.0000000000
       732       215  TIP3      H2            -28.2076097138      -14.9066054556      -13.8290176191  SOLV      204             0.0000000000
       733       216  TIP3      OH2           -25.2003853544       -8.1238998084      -13.8571419381  SOLV      205             0.0000000000
       734       216  TIP3      H1            -25.8920191516       -8.8194850750      -13.8811223211  SOLV      205             0.0000000000
       735       216  TIP3      H2            -25.4333031995       -7.5835716374      -14.6440829489  SOLV      205             0.0000000000
       736       217  TIP3      OH2           -21.1022468672      -19.9523275227      -11.3286091440  SOLV      206             0.0000000000
       737       217  TIP3      H1            -22.0872932350      -19.9670178232      -11.3553712311  SOLV      206             0.0000000000
       738       217  TIP3      H2            -20.8887164108      -19.8554633040      -12.2684140035  SOLV      206             0.0000000000
       739       218  TIP3      OH2           -24.9712144622       -8.1746934228      -18.0808792802  SOLV      207             0.0000000000
       740       218  TIP3      H1            -25.4135561283       -7.7832079685      -18.8608209001  SOLV      207             0.0000000000
       741       218  TIP3      H2            -24.0246740600       -8.0213098784      -18.3166000481  SOLV      207             0.0000000000
       742       219  TIP3      OH2           -36.6951964893       -8.8788866371       -8.3941539730  SOLV      208             0.0000000000
       743       219  TIP3      H1            -35.9366173222       -8.5262670277       -7.8774937813  SOLV      208             0.0000000000
       744       219  TIP3      H2            -37.4164341571       -8.3804005397       -8.0244683303  SOLV      208             0.0000000000
       745       220  TIP3      OH2           -32.4356227237       -8.4912322622       -7.8006043023  SOLV      209             0.0000000000
       746       220  TIP3      H1            -31.4919122219       -8.6153031934       -7.6322462805  SOLV      209             0.0000000000
       747       220  TIP3      H2            -32.5692786558       -9.1083113860       -8.5430796759  SOLV      209             0.0000000000
       748       221  TIP3      OH2           -26.0648480424       -9.4480243633      -10.4761249690  SOLV      210             0.0000000000
       749       221  TIP3      H1            -26.1219796496      -10.1567404299       -9.7981704639  SOLV      210             0.0000000000
       750       221  TIP3      H2            -25.2819771843       -8.9413529533      -10.1748427644  SOLV      210             0.0000000000
       751       222  TIP3      OH2           -29.8375971912      -13.1402493346       -8.4862573939  SOLV      211             0.0000000000
       752       222  TIP3      H1            -30.2422239369      -12.9958628007       -9.3621346362  SOLV      211             0.0000000000
       753       222  TIP3      H2            -29.5303179077      -14.0725806393       -8.5498949431  SOLV      211             0.0000000000
       754       223  TIP3      OH2           -24.8731073702      -13.3045785977      -12.4564948698  SOLV      212             0.0000000000
       755       223  TIP3      H1            -24.2424343139      -12.7234720362      -12.9238014484  SOLV      212             0.0000000000
       756       223  TIP3      H2            -25.6913913114      -12.7987250691      -12.4656406081  SOLV      212             0.0000000000
       757       224  TIP3      OH2           -26.2334838232      -13.8444745686       -8.5201773057  SOLV      213             0.0000000000
       758       224  TIP3      H1            -25.4880640984      -14.2048050029       -9.0143852997  SOLV      213             0.0000000000
       759       224  TIP3      H2            -26.3248620040      -14.4983648357       -7.8016707743  SOLV      213             0.0000000000
       760       225  TIP3      OH2           -24.0758047350      -17.1523960450       -7.9783292442  SOLV      214             0.0000000000
       761       225  TIP3      H1            -23.5859904551      -17.9813922414       -7.8654369837  SOLV      214             0.0000000000
       762       225  TIP3      H2            -23.4103896319      -16.5909610529       -8.4045140695  SOLV      214             0.0000000000
       763       226  TIP3      OH2           -23.6216168486      -14.6072797754      -10.5008888884  SOLV      215             0.0000000000
       764       226  TIP3      H1            -24.1798366618      -14.1046044210      -11.1399456492  SOLV      215             0.0000000000
       765       226  TIP3      H2            -22.7362259185      -14.4217379978      -10.8935381398  SOLV      215             0.0000000000
       766       227  TIP3      OH2           -27.5604607571      -19.4576264821       -7.6740587396  SOLV      216             0.0000000000
       767       227  TIP3      H1            -27.5404549529      -19.5723849504       -6.7067730173  SOLV      216             0.0000000000
       768       227  TIP3      H2            -28.5181633053      -19.4958679731       -7.8339884791  SOLV      216             0.0000000000
       769       228  TIP3      OH2           -25.1989198099      -20.1497789651       -9.1860037547  SOLV      217             0.0000000000
       770       228  TIP3      H1            -25.9415469146      -20.0176244611       -8.5670238542  SOLV      217             0.0000000000
       771       228  TIP3      H2            -24.4394026775      -20.2871901350       -8.5802206787  SOLV      217             0.0000000000
       772       229  TIP3      OH2           -22.9351643736      -20.4271502836       -7.5840176598  SOLV      218             0.0000000000
       773       229  TIP3      H1            -22.7197215351      -21.3814787112       -7.4507527367  SOLV      218             0.0000000000
       774       229  TIP3      H2            -22.9251904378      -20.0969467702       -6.6622882630  SOLV      218             0.0000000000
       775       230  TIP3      OH2           -27.0434022011      -22.2376832674       -5.6825242289  SOLV      219             0.0000000000
       776       230  TIP3      H1            -27.4200733764      -22.8526967495       -6.3319245489  SOLV      219             0.0000000000
       777       230  TIP3      H2            -27.7574048117      -21.5671063075       -5.6424469996  SOLV      219             0.0000000000
       778       231  TIP3      OH2           -22.3685271988       -7.4052983642      -18.4593566842  SOLV      220             0.0000000000
       779       231  TIP3      H1            -22.0464961572       -7.1990620101      -17.5589548000  SOLV      220             0.0000000000
       780       231  TIP3      H2            -21.6010038870       -7.2055647467      -19.0118038060  SOLV      220             0.0000000000
       781       232  TIP3      OH2           -21.9768035855       -7.1929141824      -15.6248764813  SOLV      221             0.0000000000
       782       232  TIP3      H1            -22.4879117122       -8.0700820617      -15.5837272433  SOLV      221             0.0000000000
       783       232  TIP3      H2            -21.2385275902       -7.4614221719      -15.0409341170  SOLV      221             0.0000000000
       784       233  TIP3      OH2           -21.6709448862      -10.5407920467       -9.9008464280  SOLV      222             0.0000000000
       785       233  TIP3      H1            -22.3730509735      -10.4490252696       -9.2288131434  SOLV      222             0.0000000000
       786       233  TIP3      H2            -21.2293416323       -9.6700413575       -9.8494846725  SOLV      222             0.0000000000
       787       234  TIP3      OH2           -21.6012713281      -12.8306430355      -17.3598633536  SOLV      223             0.0000000000
       788       234  TIP3      H1            -21.1341789875      -13.5175613522      -17.8785697383  SOLV      223             0.0000000000
       789       234  TIP3      H2            -22.1184589658      -12.3727049161      -18.0336283108  SOLV      223             0.0000000000
       790       235  TIP3      OH2           -23.2882090215       -9.6519348147      -15.1438929648  SOLV      224             0.0000000000
       791       235  TIP3      H1            -23.8848188092       -9.2418782127      -14.6213098919  SOLV      224             0.0000000000
       792       235  TIP3      H2            -23.7007388842      -10.0630416981      -15.8173361702  SOLV      224             0.0000000000
       793       236  TIP3      OH2           -21.1888312673      -13.9414102765      -11.6061917114  SOLV      225             0.0000000000
       794       236  TIP3      H1            -20.4886075129      -14.6195665742      -11.7466172858  SOLV      225             0.0000000000
       795       236  TIP3      H2            -21.0162385904      -13.3135903035      -12.3222308011  SOLV      225             0.0000000000
       796       237  TIP3      OH2           -19.3637024099      -15.9363492964      -11.5957232004  SOLV      226             0.0000000000
       797       237  TIP3      H1            -20.1189170081      -16.4236675244      -11.1979710351  SOLV      226             0.0000000000
       798       237  TIP3      H2            -18.6354232464      -16.5512944613      -11.3696133835  SOLV      226             0.0000000000
       799       238  TIP3      OH2           -21.5799215179      -17.8611734264      -13.7727660326  SOLV      227             0.0000000000
       800       238  TIP3      H1            -22.4874276232      -17.6084404628      -13.5325079828  SOLV      227             0.0000000000
       801       238  TIP3      H2            -21.3308412847      -17.1338411500      -14.3757336035  SOLV      227             0.0000000000
       802       239  TIP3      OH2           -17.2619038666      -21.8719977627       -8.4452288868  SOLV      228             0.0000000000
       803       239  TIP3      H1            -16.6790955303      -22.5033175121       -8.9133267819  SOLV      228             0.0000000000
       804       239  TIP3      H2            -17.6232188761      -21.3460658595       -9.1939634867  SOLV      228             0.0000000000
       805       240  TIP3      OH2           -18.5913253253      -20.5310737455      -10.3771929130  SOLV      229             0.0000000000
       806       240  TIP3      H1            -19.4817299586      -20.1326298405      -10.2801016731  SOLV      229             0.0000000000
       807       240  TIP3      H2            -18.8281122158      -21.2659038793      -10.9783464788  SOLV      229             0.0000000000
       808       241  TIP3      OH2           -34.9253306109      -11.3889883016       -7.8845251492  SOLV      230             0.0000000000
       809       241  TIP3      H1            -35.7747553515      -11.4686384697       -8.3640361031  SOLV      230             0.0000000000
       810       241  TIP3      H2            -35.2400705167      -11.2525603138       -6.9676331262  SOLV      230             0.0000000000
       811       242  TIP3      OH2           -29.4156803747       -7.9959083252      -11.1883386104  SOLV      231             0.0000000000
       812       242  TIP3      H1            -28.9622606436       -8.0281062662      -10.3188829554  SOLV      231             0.0000000000
       813       242  TIP3      H2            -28.7559325009       -7.5023393593      -11.7211011304  SOLV      231             0.0000000000
       814       243  TIP3      OH2           -27.5865516894       -6.4846820378      -12.5790617728  SOLV      232             0.0000000000
       815       243  TIP3      H1            -26.8964792511       -7.0177661596      -13.0026674525  SOLV      232             0.0000000000
       816       243  TIP3      H2            -27.0462522451       -5.9284754844      -11.9784168890  SOLV      232             0.0000000000
       817       244  TIP3      OH2           -19.4399566919      -22.9081638742      -11.5896099287  SOLV      233             0.0000000000
       818       244  TIP3      H1            -20.3223267876      -23.0116603797      -11.9750777422  SOLV      233             0.0000000000
       819       244  TIP3      H2            -19.0999718638      -23.8328318118      -11.6348271679  SOLV      233             0.0000000000
       820       245  TIP3      OH2           -30.4479585092       -7.7791066035      -15.4855262536  SOLV      234             0.0000000000
       821       245  TIP3      H1            -30.5650177512       -8.1717721695      -16.3763518502  SOLV      234             0.0000000000
       822       245  TIP3      H2            -30.2607431650       -6.8379831687      -15.6469992026  SOLV      234             0.0000000000
       823       246  TIP3      OH2           -27.7195714891       -8.4949002730      -15.2490722096  SOLV      235             0.0000000000
       824       246  TIP3      H1            -28.6786877331       -8.3116735324      -15.2260980783  SOLV      235             0.0000000000
       825       246  TIP3      H2            -27.3728541084       -7.7245132377      -15.7305446463  SOLV      235             0.0000000000
       826       247  TIP3      OH2           -25.6459191055       -6.4817981514      -16.0704361438  SOLV      236             0.0000000000
       827       247  TIP3      H1            -25.8264298460       -5.6634285564      -16.5731998048  SOLV      236             0.0000000000
       828       247  TIP3      H2            -25.4030535651       -7.1055846876      -16.8031190639  SOLV      236             0.0000000000
       829       248  TIP3      OH2           -22.1703641671      -22.9939314887       -7.1021338055  SOLV      237             0.0000000000
       830       248  TIP3      H1            -22.0301594769      -23.4426950819       -6.2443055599  SOLV      237             0.0000000000
       831       248  TIP3      H2            -21.4433039071      -23.3521194213       -7.6375819221  SOLV      237             0.0000000000
       832       249  TIP3      OH2           -22.8903363199       -7.7313709036      -12.3396596397  SOLV      238             0.0000000000
       833       249  TIP3      H1            -23.6975591878       -8.0217450443      -12.7992840428  SOLV      238             0.0000000000
       834       249  TIP3      H2            -23.0707198911       -6.7857526890      -12.2434036132  SOLV      238             0.0000000000
       835       250  TIP3      OH2           -10.1344382953      -13.9846428332      -24.6412595125  SOLV      239             0.0000000000
       836       250  TIP3      H1            -10.4338882490      -13.0673382498      -24.8299227261  SOLV      239             0.0000000000
       837       250  TIP3      H2            -10.8790668028      -14.4787042287      -25.0271383899  SOLV      239             0.0000000000
       838       251  TIP3      OH2           -10.1958937002      -13.9789439594      -20.8075575094  SOLV      240             0.0000000000
       839       251  TIP3      H1             -9.8322766713      -14.2282379624      -19.9364894049  SOLV      240             0.0000000000
       840       251  TIP3      H2            -10.5644577498      -14.8229769165      -21.1123976817  SOLV      240             0.0000000000
       841       252  TIP3      OH2           -17.1986081866      -15.0820053170      -17.2392351402  SOLV      241             0.0000000000
       842       252  TIP3      H1            -16.9607280891      -15.8448985194      -16.6791009373  SOLV      241             0.0000000000
       843       252  TIP3      H2            -16.5268697723      -14.4442202604      -16.9653091165  SOLV      241             0.0000000000
       844       253  TIP3      OH2            -7.7057983851      -10.9687189619      -24.0538369911  SOLV      242             0.0000000000
       845       253  TIP3      H1             -7.9416882859      -11.6395307032      -23.3993429374  SOLV      242             0.0000000000
       846       253  TIP3      H2             -7.4318983342      -10.2208555882      -23.4972504963  SOLV      242             0.0000000000
       847       254  TIP3      OH2           -17.4791689382      -10.9795082168      -20.0584851985  SOLV      243             0.0000000000
       848       254  TIP3      H1            -17.5749401455      -11.9544603375      -20.0224573962  SOLV      243             0.0000000000
       849       254  TIP3      H2            -16.5094868794      -10.8991349284      -20.0881519343  SOLV      243             0.0000000000
       850       255  TIP3      OH2           -11.1999539000       -6.3674425772      -23.8823820257  SOLV      244             0.0000000000
       851       255  TIP3      H1            -10.8212885516       -7.0994963923      -24.4112756407  SOLV      244             0.0000000000
       852       255  TIP3      H2            -11.3417884825       -6.7925760775      -23.0308656751  SOLV      244             0.0000000000
       853       256  TIP3      OH2           -12.2335222390      -11.7763004305      -20.4121996422  SOLV      245             0.0000000000
       854       256  TIP3      H1            -11.7861516920      -12.5365583021      -20.8228590383  SOLV      245             0.0000000000
       855       256  TIP3      H2            -11.4339627950      -11.2737804161      -20.1462045241  SOLV      245             0.0000000000
       856       257  TIP3      OH2            -2.0238292098      -18.5727178214      -20.4125700840  SOLV      246             0.0000000000
       857       257  TIP3      H1             -1.7613849433      -17.7310937319      -19.9880354268  SOLV      246             0.0000000000
       858       257  TIP3      H2             -1.8572550731      -18.3716252632      -21.3492508740  SOLV      246             0.0000000000
       859       258  TIP3      OH2            -8.0664538052      -16.7809058949      -20.0933432346  SOLV      247             0.0000000000
       860       258  TIP3      H1             -7.6766430677      -17.6559602317      -19.9060186340  SOLV      247             0.0000000000
       861       258  TIP3      H2             -8.4406387912      -16.9343476762      -20.9835719661  SOLV      247             0.0000000000
       862       259  TIP3      OH2           -15.1422571406      -19.6051427746      -20.4778802735  SOLV      248             0.0000000000
       863       259  TIP3      H1            -15.2564909946      -18.9930336947      -21.2357097073  SOLV      248             0.0000000000
       864       259  TIP3      H2            -14.8747324450      -20.3889335694      -20.9935490944  SOLV      248             0.0000000000
       865       260  TIP3      OH2            -7.6632768467      -19.0678813896      -24.1535171898  SOLV      249             0.0000000000
       866       260  TIP3      H1             -6.9268176243      -19.2664924969      -23.5291709656  SOLV      249             0.0000000000
       867       260  TIP3      H2             -7.1539760141      -18.7507940552      -24.9233474480  SOLV      249             0.0000000000
       868       261  TIP3      OH2           -18.3002174368      -18.2893636021      -19.6054615574  SOLV      250             0.0000000000
       869       261  TIP3      H1            -18.0695526233      -18.2813358933      -18.6566884120  SOLV      250             0.0000000000
       870       261  TIP3      H2            -17.5324042777      -18.7227951056      -19.9644641111  SOLV      250             0.0000000000
       871       262  TIP3      OH2           -13.8831884402      -16.1681424635      -21.4834006744  SOLV      251             0.0000000000
       872       262  TIP3      H1            -12.9095610445      -16.2331332909      -21.3673448442  SOLV      251             0.0000000000
       873       262  TIP3      H2            -14.1552389650      -17.0281008623      -21.1453592880  SOLV      251             0.0000000000
       874       263  TIP3      OH2            -1.3192989651      -16.4558396864      -18.7395456395  SOLV      252             0.0000000000
       875       263  TIP3      H1             -2.1812149456      -16.0180480825      -18.9096722483  SOLV      252             0.0000000000
       876       263  TIP3      H2             -1.1326704640      -16.1363936413      -17.8424319712  SOLV      252             0.0000000000
       877       264  TIP3      OH2           -14.8312868129      -20.4407231180      -16.0483801150  SOLV      253             0.0000000000
       878       264  TIP3      H1            -15.4120730309      -19.9728950930      -16.6901119685  SOLV      253             0.0000000000
       879       264  TIP3      H2            -15.3174524203      -20.2276042103      -15.2203847270  SOLV      253             0.0000000000
       880       265  TIP3      OH2           -11.2164942101      -11.7129677947      -25.7073397888  SOLV      254             0.0000000000
       881       265  TIP3      H1            -11.5713084264      -11.8864450183      -26.6083031789  SOLV      254             0.0000000000
       882       265  TIP3      H2            -11.7358272693      -10.9205009678      -25.4815868698  SOLV      254             0.0000000000
       883       266  TIP3      OH2           -13.7100237294      -12.5535324703      -18.1895643325  SOLV      255             0.0000000000
       884       266  TIP3      H1            -14.3067963612      -11.8576403401      -17.8311179822  SOLV      255             0.0000000000
       885       266  TIP3      H2            -13.2575111501      -12.0788159337      -18.9147367830  SOLV      255             0.0000000000
       886       267  TIP3      OH2            -5.6411284766      -19.2086034799      -22.3768273192  SOLV      256             0.0000000000
       887       267  TIP3      H1             -5.9394328199      -19.5993892185      -21.5446555582  SOLV      256             0.0000000000
       888       267  TIP3      H2             -5.1702127135      -18.4056038242      -22.0755158272  SOLV      256             0.0000000000
       889       268  TIP3      OH2           -16.0587976050      -19.0623830189      -18.0083193358  SOLV      257             0.0000000000
       890       268  TIP3      H1            -15.4953685949      -18.2978211592      -17.7706156488  SOLV      257             0.0000000000
       891       268  TIP3      H2            -15.6958627370      -19.2836047257      -18.8888591162  SOLV      257             0.0000000000
       892       269  TIP3      OH2           -15.3835170281      -10.5812955438      -17.1965572164  SOLV      258             0.0000000000
       893       269  TIP3      H1            -15.6342942556       -9.6952920179      -17.5332237903  SOLV      258             0.0000000000
       894       269  TIP3      H2            -16.1684646209      -10.7614883196      -16.6336642567  SOLV      258             0.0000000000
       895       270  TIP3      OH2            -7.0852958124       -8.5353912509      -22.4227003190  SOLV      259             0.0000000000
       896       270  TIP3      H1             -7.9825353581       -8.6298406348      -22.0256666638  SOLV      259             0.0000000000
       897       270  TIP3      H2             -7.1736765811       -7.6713484057      -22.8707974999  SOLV      259             0.0000000000
       898       271  TIP3      OH2            -4.1247716392      -19.5950345141      -18.7766496540  SOLV      260             0.0000000000
       899       271  TIP3      H1             -5.0074861681      -19.3379245875      -19.0897026914  SOLV      260             0.0000000000
       900       271  TIP3      H2             -3.5418876733      -19.2618686247      -19.4896252713  SOLV      260             0.0000000000
       901       272  TIP3      OH2           -10.9424021746      -22.8095404062      -18.7434632266  SOLV      261             0.0000000000
       902       272  TIP3      H1            -11.2798043859      -23.5795877660      -19.2379870645  SOLV      261             0.0000000000
       903       272  TIP3      H2            -11.7518806407      -22.5428625234      -18.2598508976  SOLV      261             0.0000000000
       904       273  TIP3      OH2           -10.1175996589       -8.1202367928      -25.7499098226  SOLV      262             0.0000000000
       905       273  TIP3      H1             -9.6055716432       -8.9464492604      -25.9190175083  SOLV      262             0.0000000000
       906       273  TIP3      H2             -9.4828744560       -7.4652211097      -26.1182674538  SOLV      262             0.0000000000
       907       274  TIP3      OH2            -8.6271350902      -10.2579663327      -26.5708743474  SOLV      263             0.0000000000
       908       274  TIP3      H1             -9.0417716158      -11.0643644201      -26.9061095582  SOLV      263             0.0000000000
       909       274  TIP3      H2             -8.2435951888      -10.5768349570      -25.7239755064  SOLV      263             0.0000000000
       910       275  TIP3      OH2            -4.8236533447       -9.4634341091      -18.9774895838  SOLV      264             0.0000000000
       911       275  TIP3      H1             -4.9583014935      -10.2336034501      -19.5710064431  SOLV      264             0.0000000000
       912       275  TIP3      H2             -5.0122106435       -8.7125558970      -19.5792342059  SOLV      264             0.0000000000
       913       276  TIP3      OH2           -11.8254982638      -15.3475998663      -26.3539330007  SOLV      265             0.0000000000
       914       276  TIP3      H1            -12.6623601091      -14.8970198663      -26.5689215242  SOLV      265             0.0000000000
       915       276  TIP3      H2            -11.3471703832      -15.3107970649      -27.2050939145  SOLV      265             0.0000000000
       916       277  TIP3      OH2            -2.8690235656      -13.0441804376      -20.4850680499  SOLV      266             0.0000000000
       917       277  TIP3      H1             -3.7134585223      -12.5415000379      -20.4528553393  SOLV      266             0.0000000000
       918       277  TIP3      H2             -2.5726259091      -12.8178458173      -21.3931611420  SOLV      266             0.0000000000
       919       278  TIP3      OH2            -8.3942058884      -14.6680432815      -26.6320913365  SOLV      267             0.0000000000
       920       278  TIP3      H1             -8.9182840918      -14.4148883800      -25.8365282558  SOLV      267             0.0000000000
       921       278  TIP3      H2             -7.5638064415      -14.9709682888      -26.2128246365  SOLV      267             0.0000000000
       922       279  TIP3      OH2            -6.0878032106      -14.3192499672      -17.4980809524  SOLV      268             0.0000000000
       923       279  TIP3      H1             -6.1121392848      -13.4857280659      -16.9898606790  SOLV      268             0.0000000000
       924       279  TIP3      H2             -6.9491758679      -14.2716578518      -17.9600859385  SOLV      268             0.0000000000
       925       280  TIP3      OH2           -16.0716417156      -14.7975576756      -22.4050196759  SOLV      269             0.0000000000
       926       280  TIP3      H1            -16.3864381768      -15.3324400780      -23.1438987530  SOLV      269             0.0000000000
       927       280  TIP3      H2            -15.2596418989      -15.2808182638      -22.1311308013  SOLV      269             0.0000000000
       928       281  TIP3      OH2           -14.7654576083      -10.5779558965      -21.0620909652  SOLV      270             0.0000000000
       929       281  TIP3      H1            -14.9358791640      -10.9246703678      -21.9474792552  SOLV      270             0.0000000000
       930       281  TIP3      H2            -13.8799643269      -10.9473291929      -20.8643306947  SOLV      270             0.0000000000
       931       282  TIP3      OH2           -14.6427311709      -14.9809648631      -19.0223289622  SOLV      271             0.0000000000
       932       282  TIP3      H1            -14.2885192938      -15.0634492097      -19.9231178625  SOLV      271             0.0000000000
       933       282  TIP3      H2            -14.3081105318      -14.1014608315      -18.7420869166  SOLV      271             0.0000000000
       934       283  TIP3      OH2            -9.4766233029       -8.6150817061      -21.1834279344  SOLV      272             0.0000000000
       935       283  TIP3      H1             -9.6201617103       -7.8167434069      -20.6446600079  SOLV      272             0.0000000000
       936       283  TIP3      H2             -9.6376836562       -9.3428855164      -20.5494005093  SOLV      272             0.0000000000
       937       284  TIP3      OH2           -13.3450788757       -9.4484501272      -15.7183752486  SOLV      273             0.0000000000
       938       284  TIP3      H1            -13.9527467043       -8.8346014387      -15.2502699545  SOLV      273             0.0000000000
       939       284  TIP3      H2            -13.9964393002       -9.9768424734      -16.2248782672  SOLV      273             0.0000000000
       940       285  TIP3      OH2           -10.0492579500      -15.8795838460      -28.4690936642  SOLV      274             0.0000000000
       941       285  TIP3      H1             -9.4329059777      -15.4874810262      -27.8070210857  SOLV      274             0.0000000000
       942       285  TIP3      H2             -9.4137486072      -16.1317561476      -29.1591924986  SOLV      274             0.0000000000
       943       286  TIP3      OH2           -15.8340221820      -13.8820927991      -14.7283640033  SOLV      275             0.0000000000
       944       286  TIP3      H1            -15.7642107819      -13.0059679559      -14.2959612109  SOLV      275             0.0000000000
       945       286  TIP3      H2            -16.7629549236      -14.1060530480      -14.5102954658  SOLV      275             0.0000000000
       946       287  TIP3      OH2           -12.6231613384       -9.2382564765      -25.6207732038  SOLV      276             0.0000000000
       947       287  TIP3      H1            -11.7606943837       -8.7918833893      -25.6018200390  SOLV      276             0.0000000000
       948       287  TIP3      H2            -13.1837795225       -8.5866700373      -26.0674357963  SOLV      276             0.0000000000
       949       288  TIP3      OH2           -15.4130687136       -7.8123015196      -14.8475709362  SOLV      277             0.0000000000
       950       288  TIP3      H1            -15.7651344662       -7.7796330406      -15.7545089130  SOLV      277             0.0000000000
       951       288  TIP3      H2            -16.2221753258       -8.0059035439      -14.3173495156  SOLV      277             0.0000000000
       952       289  TIP3      OH2            -6.9186266755       -9.9885734591      -32.5766135313  SOLV      278             0.0000000000
       953       289  TIP3      H1             -6.7816581333       -9.0267984214      -32.7012019833  SOLV      278             0.0000000000
       954       289  TIP3      H2             -5.9981223104      -10.3132997675      -32.5946063224  SOLV      278             0.0000000000
       955       290  TIP3      OH2           -19.6225961978      -12.4223894249      -15.3860966549  SOLV      279             0.0000000000
       956       290  TIP3      H1            -20.3024355543      -12.5858237316      -16.0689942187  SOLV      279             0.0000000000
       957       290  TIP3      H2            -19.2865398631      -13.3172953680      -15.1927704551  SOLV      279             0.0000000000
       958       291  TIP3      OH2           -21.0649258980      -10.3805160299      -19.2963435976  SOLV      280             0.0000000000
       959       291  TIP3      H1            -20.1256841636      -10.5984998818      -19.2052476489  SOLV      280             0.0000000000
       960       291  TIP3      H2            -21.1990998906       -9.7890182143      -18.5435700252  SOLV      280             0.0000000000
       961       292  TIP3      OH2            -2.4418315094       -5.9531715815      -18.4766760760  SOLV      281             0.0000000000
       962       292  TIP3      H1             -2.4479821422       -6.9156103132      -18.3147939565  SOLV      281             0.0000000000
       963       292  TIP3      H2             -3.2792610383       -5.7009385254      -18.0233080222  SOLV      281             0.0000000000
       964       293  TIP3      OH2           -11.3968176152       -8.1425429861      -17.1606961400  SOLV      282             0.0000000000
       965       293  TIP3      H1            -11.4373107063       -7.2158997613      -16.8372283486  SOLV      282             0.0000000000
       966       293  TIP3      H2            -12.0975814277       -8.5587612012      -16.6099387713  SOLV      282             0.0000000000
       967       294  TIP3      OH2           -13.6964430606       -6.9119570807      -27.5280637446  SOLV      283             0.0000000000
       968       294  TIP3      H1            -14.0915521400       -7.0355015393      -28.4106343557  SOLV      283             0.0000000000
       969       294  TIP3      H2            -14.0223298929       -6.0333538479      -27.2695861257  SOLV      283             0.0000000000
       970       295  TIP3      OH2           -19.0771823072       -7.7217300115      -23.6814788838  SOLV      284             0.0000000000
       971       295  TIP3      H1            -18.6218973184       -7.8949475469      -22.8257213258  SOLV      284             0.0000000000
       972       295  TIP3      H2            -19.4121542168       -8.6322302264      -23.8537967897  SOLV      284             0.0000000000
       973       296  TIP3      OH2           -11.6836855549       -7.8377920189      -31.1532428516  SOLV      285             0.0000000000
       974       296  TIP3      H1            -11.1230679390       -8.4162884569      -31.7133170780  SOLV      285             0.0000000000
       975       296  TIP3      H2            -11.1792205490       -7.7993825642      -30.3251261481  SOLV      285             0.0000000000
       976       297  TIP3      OH2           -11.1523856652       -7.3081312265      -28.4446935666  SOLV      286             0.0000000000
       977       297  TIP3      H1            -12.0459417102       -7.2429767167      -28.0439070418  SOLV      286             0.0000000000
       978       297  TIP3      H2            -10.6610890296       -7.7381241192      -27.7268610473  SOLV      286             0.0000000000
       979       298  TIP3      OH2            -3.5451818722      -14.7041601058      -15.7349857511  SOLV      287             0.0000000000
       980       298  TIP3      H1             -4.3981044285      -14.5994258894      -16.1821125275  SOLV      287             0.0000000000
       981       298  TIP3      H2             -3.3962980754      -15.6669888706      -15.8212868790  SOLV      287             0.0000000000
       982       299  TIP3      OH2           -17.5664111077      -10.6034708159      -15.5615170254  SOLV      288             0.0000000000
       983       299  TIP3      H1            -17.0815837392      -10.7539048412      -14.7235356262  SOLV      288             0.0000000000
       984       299  TIP3      H2            -18.3126409419      -11.2326566531      -15.4714677267  SOLV      288             0.0000000000
       985       300  TIP3      OH2           -13.4997911954      -22.2956415518      -17.6022775123  SOLV      289             0.0000000000
       986       300  TIP3      H1            -14.2298756527      -22.8552128777      -17.9093542073  SOLV      289             0.0000000000
       987       300  TIP3      H2            -13.9614433064      -21.6077381051      -17.0732119759  SOLV      289             0.0000000000
       988       301  TIP3      OH2            -8.2226027177      -21.2082120054      -15.6666885415  SOLV      290             0.0000000000
       989       301  TIP3      H1             -7.5511540894      -21.4849507618      -15.0115543591  SOLV      290             0.0000000000
       990       301  TIP3      H2             -9.0688884958      -21.4089668818      -15.2123386897  SOLV      290             0.0000000000
       991       302  TIP3      OH2            -5.8675995848      -16.9201860267      -16.4916593183  SOLV      291             0.0000000000
       992       302  TIP3      H1             -6.3827090715      -16.9519856715      -15.6540262644  SOLV      291             0.0000000000
       993       302  TIP3      H2             -6.1279016667      -16.0576625572      -16.8685283490  SOLV      291             0.0000000000
       994       303  TIP3      OH2            -8.3738999455      -16.3270021055      -30.6628908734  SOLV      292             0.0000000000
       995       303  TIP3      H1             -9.1187444167      -16.3324555073      -31.2802198491  SOLV      292             0.0000000000
       996       303  TIP3      H2             -8.0487492410      -15.4204933638      -30.7817324520  SOLV      292             0.0000000000
       997       304  TIP3      OH2           -14.2035314503      -17.1230551992      -17.4229012797  SOLV      293             0.0000000000
       998       304  TIP3      H1            -14.7263041484      -16.9350234373      -16.6137122423  SOLV      293             0.0000000000
       999       304  TIP3      H2            -14.3878627587      -16.3194548405      -17.9622189049  SOLV      293             0.0000000000
      1000       305  TIP3      OH2           -10.5220740740      -17.2737834222      -24.8970335673  SOLV      294             0.0000000000
      1001       305  TIP3      H1            -10.9765095047      -16.5647301824      -25.4007181019  SOLV      294             0.0000000000
      1002       305  TIP3      H2             -9.8973714512      -17.6106369332      -25.5823301690  SOLV      294             0.0000000000
      1003       306  TIP3      OH2            -8.7960297080      -14.7806852986      -14.2234116308  SOLV      295             0.0000000000
      1004       306  TIP3      H1             -9.0295313639      -15.4959004962      -13.5914969162  SOLV      295             0.0000000000
      1005       306  TIP3      H2             -7.8661343032      -14.6228193522      -13.9757695005  SOLV      295             0.0000000000
      1006       307  TIP3      OH2            -8.9832201564      -17.2187461157      -22.6110154444  SOLV      296             0.0000000000
      1007       307  TIP3      H1             -9.6088372951      -16.9489518770      -23.3188422170  SOLV      296             0.0000000000
      1008       307  TIP3      H2             -8.5631096822      -17.9719749667      -23.0818181597  SOLV      296             0.0000000000
      1009       308  TIP3      OH2           -16.0430041831      -16.9383829516      -15.3955165637  SOLV      297             0.0000000000
      1010       308  TIP3      H1            -15.8950893355      -16.3424733394      -14.6492678211  SOLV      297             0.0000000000
      1011       308  TIP3      H2            -16.2785422085      -17.7743347321      -14.9491880759  SOLV      297             0.0000000000
      1012       309  TIP3      OH2            -8.8599807396      -14.7901755185      -18.4716854698  SOLV      298             0.0000000000
      1013       309  TIP3      H1             -8.5252393768      -15.5078165292      -19.0597886517  SOLV      298             0.0000000000
      1014       309  TIP3      H2             -9.1784996357      -15.3280470561      -17.7165239599  SOLV      298             0.0000000000
      1015       310  TIP3      OH2           -11.7158573790      -19.8595565434      -21.7186413876  SOLV      299             0.0000000000
      1016       310  TIP3      H1            -12.4678649390      -20.0995302831      -21.1647116375  SOLV      299             0.0000000000
      1017       310  TIP3      H2            -10.9634908402      -20.0791656885      -21.1324440791  SOLV      299             0.0000000000
      1018       311  TIP3      OH2            -7.2210123425      -19.4013660097      -19.6973782816  SOLV      300             0.0000000000
      1019       311  TIP3      H1             -7.5054453825      -19.2558680569      -18.7658846905  SOLV      300             0.0000000000
      1020       311  TIP3      H2             -7.9342831045      -19.9948367855      -20.0004064063  SOLV      300             0.0000000000
      1021       312  TIP3      OH2            -5.4800691350       -2.5023334559      -17.4634802181  SOLV      301             0.0000000000
      1022       312  TIP3      H1             -5.5083250489       -2.2440697795      -18.4006042740  SOLV      301             0.0000000000
      1023       312  TIP3      H2             -4.6840366959       -2.0284427372      -17.1512765550  SOLV      301             0.0000000000
      1024       313  TIP3      OH2           -15.9555427157      -11.3947515674      -13.3193239811  SOLV      302             0.0000000000
      1025       313  TIP3      H1            -15.1610000890      -11.1071767206      -12.8309428473  SOLV      302             0.0000000000
      1026       313  TIP3      H2            -16.6047828584      -11.4248629533      -12.5885708872  SOLV      302             0.0000000000
      1027       314  TIP3      OH2           -11.3132806390      -16.7579961159      -20.7290652295  SOLV      303             0.0000000000
      1028       314  TIP3      H1            -10.6318918687      -17.2402222693      -21.2246086294  SOLV      303             0.0000000000
      1029       314  TIP3      H2            -11.2912625860      -17.2047833522      -19.8607385817  SOLV      303             0.0000000000
      1030       315  TIP3      OH2           -11.5827776014      -17.8013073449      -17.9244266203  SOLV      304             0.0000000000
      1031       315  TIP3      H1            -12.4786238303      -17.4674185128      -17.7028830733  SOLV      304             0.0000000000
      1032       315  TIP3      H2            -11.0024142859      -17.2301947772      -17.3829724663  SOLV      304             0.0000000000
      1033       316  TIP3      OH2           -14.4246760567      -14.2049378811      -26.6695491331  SOLV      305             0.0000000000
      1034       316  TIP3      H1            -14.6616011446      -15.1143948280      -26.4390725236  SOLV      305             0.0000000000
      1035       316  TIP3      H2            -14.5152016738      -13.7364777026      -25.8002952193  SOLV      305             0.0000000000
      1036       317  TIP3      OH2            -5.2254486073      -11.6292015396      -20.6534882502  SOLV      306             0.0000000000
      1037       317  TIP3      H1             -4.9910381010      -11.1193467691      -21.4571089217  SOLV      306             0.0000000000
      1038       317  TIP3      H2             -6.0776086181      -12.0441517793      -20.9127966723  SOLV      306             0.0000000000
      1039       318  TIP3      OH2           -10.2472308905      -10.8126900022      -16.9011840815  SOLV      307             0.0000000000
      1040       318  TIP3      H1             -9.8820979241      -10.9467265390      -16.0187745954  SOLV      307             0.0000000000
      1041       318  TIP3      H2            -10.6120951015       -9.9122031019      -16.8493804699  SOLV      307             0.0000000000
      1042       319  TIP3      OH2            -8.9407279551      -18.3184800359      -26.8375176232  SOLV      308             0.0000000000
      1043       319  TIP3      H1             -7.9755215778      -18.4410021326      -26.8806702022  SOLV      308             0.0000000000
      1044       319  TIP3      H2             -9.1306100515      -18.3816689045      -27.7869959746  SOLV      308             0.0000000000
      1045       320  TIP3      OH2           -17.3222241856      -13.7557870796      -20.0993894856  SOLV      309             0.0000000000
      1046       320  TIP3      H1            -16.9086647041      -14.1207770433      -20.9051971653  SOLV      309             0.0000000000
      1047       320  TIP3      H2            -16.9397657905      -14.3151345838      -19.4043328099  SOLV      309             0.0000000000
      1048       321  TIP3      OH2           -12.3825150848      -12.0188704970      -28.1367764650  SOLV      310             0.0000000000
      1049       321  TIP3      H1            -12.9966430006      -11.2623259877      -28.2596182166  SOLV      310             0.0000000000
      1050       321  TIP3      H2            -12.8330418717      -12.6885021133      -28.6680509056  SOLV      310             0.0000000000
      1051       322  TIP3      OH2           -18.4402025251      -14.6349707855      -14.0246059465  SOLV      311             0.0000000000
      1052       322  TIP3      H1            -18.3662599739      -14.8159883206      -13.0691329667  SOLV      311             0.0000000000
      1053       322  TIP3      H2            -19.1767848205      -15.2251999595      -14.2707226031  SOLV      311             0.0000000000
      1054       323  TIP3      OH2           -11.1942720808      -13.3837973647      -13.8067841809  SOLV      312             0.0000000000
      1055       323  TIP3      H1            -11.8300939204      -14.0088583587      -14.1899897914  SOLV      312             0.0000000000
      1056       323  TIP3      H2            -10.3427187804      -13.7563296968      -14.1174446863  SOLV      312             0.0000000000
      1057       324  TIP3      OH2            -8.6383666595       -8.2021171077      -17.9532184173  SOLV      313             0.0000000000
      1058       324  TIP3      H1             -9.6032931629       -8.1983923685      -17.8215123163  SOLV      313             0.0000000000
      1059       324  TIP3      H2             -8.3491638525       -7.6819820537      -17.1715687732  SOLV      313             0.0000000000
      1060       325  TIP3      OH2            -4.4849712395      -17.4760535084      -28.9392937223  SOLV      314             0.0000000000
      1061       325  TIP3      H1             -4.9917750948      -17.9714925570      -29.6232086179  SOLV      314             0.0000000000
      1062       325  TIP3      H2             -4.6094186033      -16.5773145357      -29.3173433841  SOLV      314             0.0000000000
      1063       326  TIP3      OH2            -2.3267178127       -8.8592287064      -18.0862699173  SOLV      315             0.0000000000
      1064       326  TIP3      H1             -3.3041088676       -8.9305562037      -18.1682938296  SOLV      315             0.0000000000
      1065       326  TIP3      H2             -2.0628023080       -9.1630200097      -18.9837388439  SOLV      315             0.0000000000
      1066       327  TIP3      OH2            -7.4140298181       -9.2861960896      -29.8246117699  SOLV      316             0.0000000000
      1067       327  TIP3      H1             -7.8193335157       -9.9059824008      -29.2024888353  SOLV      316             0.0000000000
      1068       327  TIP3      H2             -7.4673610041       -9.7692925915      -30.6683484018  SOLV      316             0.0000000000
      1069       328  TIP3      OH2            -7.5546070810      -12.9828152641      -21.4975889171  SOLV      317             0.0000000000
      1070       328  TIP3      H1             -8.4896496857      -13.2228660802      -21.3473532778  SOLV      317             0.0000000000
      1071       328  TIP3      H2             -7.2281347169      -13.7935140179      -21.9353533646  SOLV      317             0.0000000000
      1072       329  TIP3      OH2           -16.3572405434      -10.6723099097      -23.8824931019  SOLV      318             0.0000000000
      1073       329  TIP3      H1            -16.3181507395       -9.8865900890      -24.4589619526  SOLV      318             0.0000000000
      1074       329  TIP3      H2            -17.2925613949      -10.6744157348      -23.6394678239  SOLV      318             0.0000000000
      1075       330  TIP3      OH2           -14.9548312229      -13.0242821551      -24.2798974379  SOLV      319             0.0000000000
      1076       330  TIP3      H1            -15.3263031528      -12.1223784912      -24.1797900838  SOLV      319             0.0000000000
      1077       330  TIP3      H2            -15.2949655412      -13.4637193030      -23.4821219836  SOLV      319             0.0000000000
      1078       331  TIP3      OH2           -13.5274808623       -7.3011261722      -19.2036299793  SOLV      320             0.0000000000
      1079       331  TIP3      H1            -13.1150492359       -6.5701777458      -19.7070601672  SOLV      320             0.0000000000
      1080       331  TIP3      H2            -12.7607242581       -7.6540442254      -18.7234681269  SOLV      320             0.0000000000
      1081       332  TIP3      OH2           -16.9967850649       -8.2874817873      -25.4092035418  SOLV      321             0.0000000000
      1082       332  TIP3      H1            -17.7962949738       -8.0278071152      -24.9137225202  SOLV      321             0.0000000000
      1083       332  TIP3      H2            -16.5349511337       -7.4171864785      -25.4069078245  SOLV      321             0.0000000000
      1084       333  TIP3      OH2            -9.7308108110      -10.9074369661      -19.5825604331  SOLV      322             0.0000000000
      1085       333  TIP3      H1             -9.8453665494      -10.9296483389      -18.6049613865  SOLV      322             0.0000000000
      1086       333  TIP3      H2             -8.9425372437      -11.4547237149      -19.6922603284  SOLV      322             0.0000000000
      1087       334  TIP3      OH2            -9.7529798397      -11.6967721837      -30.6774311518  SOLV      323             0.0000000000
      1088       334  TIP3      H1             -9.2689614254      -12.0372015452      -29.8930128389  SOLV      323             0.0000000000
      1089       334  TIP3      H2            -10.6329660814      -12.1007902037      -30.5401265212  SOLV      323             0.0000000000
      1090       335  TIP3      OH2            -7.2128021922       -5.6488351169      -19.1116531057  SOLV      324             0.0000000000
      1091       335  TIP3      H1             -8.0135134695       -6.2058511440      -19.1538572929  SOLV      324             0.0000000000
      1092       335  TIP3      H2             -7.3909810595       -5.0064865337      -19.8329127106  SOLV      324             0.0000000000
      1093       336  TIP3      OH2            -6.5600233476       -7.2153644389      -32.6413542951  SOLV      325             0.0000000000
      1094       336  TIP3      H1             -6.0984655694       -6.3760725321      -32.8166650280  SOLV      325             0.0000000000
      1095       336  TIP3      H2             -7.4073766925       -6.8577432953      -32.3021776602  SOLV      325             0.0000000000
      1096       337  TIP3      OH2           -16.3944251053      -19.5337496749      -13.9597917571  SOLV      326             0.0000000000
      1097       337  TIP3      H1            -17.3740775524      -19.5040409002      -13.8770856479  SOLV      326             0.0000000000
      1098       337  TIP3      H2            -16.1664402768      -20.0955167545      -13.2044644252  SOLV      326             0.0000000000
      1099       338  TIP3      OH2            -8.2649001193      -12.7139347151      -28.6035740192  SOLV      327             0.0000000000
      1100       338  TIP3      H1             -8.3977211002      -13.3621740743      -27.8824501675  SOLV      327             0.0000000000
      1101       338  TIP3      H2             -7.2902974500      -12.7223770728      -28.6787830373  SOLV      327             0.0000000000
      1102       339  TIP3      OH2           -19.1842443559       -8.6623227363      -17.6194936607  SOLV      328             0.0000000000
      1103       339  TIP3      H1            -18.6575397419       -9.3916794329      -17.2598508111  SOLV      328             0.0000000000
      1104       339  TIP3      H2            -18.9215137090       -7.9390863434      -17.0350612605  SOLV      328             0.0000000000
      1105       340  TIP3      OH2           -16.7701047991      -12.1235811800      -27.7301334286  SOLV      329             0.0000000000
      1106       340  TIP3      H1            -15.8993937479      -12.2825010559      -27.3495616245  SOLV      329             0.0000000000
      1107       340  TIP3      H2            -16.7570997833      -11.1389620598      -27.7949762199  SOLV      329             0.0000000000
      1108       341  TIP3      OH2            -7.9181554129      -18.8797508430      -17.1045587348  SOLV      330             0.0000000000
      1109       341  TIP3      H1             -7.1449185543      -18.4800382553      -16.6753739360  SOLV      330             0.0000000000
      1110       341  TIP3      H2             -8.0718399405      -19.6829744139      -16.5598057702  SOLV      330             0.0000000000
      1111       342  TIP3      OH2            -9.1285713725      -21.0127560817      -25.5595891355  SOLV      331             0.0000000000
      1112       342  TIP3      H1             -9.6693708225      -20.7323790862      -26.3215223442  SOLV      331             0.0000000000
      1113       342  TIP3      H2             -8.7722584681      -20.1550908517      -25.2424315940  SOLV      331             0.0000000000
      1114       343  TIP3      OH2           -14.2860450137      -10.1241737336      -28.6655364250  SOLV      332             0.0000000000
      1115       343  TIP3      H1            -15.1764092352       -9.8504740140      -28.3690566929  SOLV      332             0.0000000000
      1116       343  TIP3      H2            -13.9880304390       -9.3122852828      -29.0994419256  SOLV      332             0.0000000000
      1117       344  TIP3      OH2           -12.3117295911      -19.2283446116      -24.3414341683  SOLV      333             0.0000000000
      1118       344  TIP3      H1            -11.6988768888      -18.4856243129      -24.5359076544  SOLV      333             0.0000000000
      1119       344  TIP3      H2            -12.1051678973      -19.3696064220      -23.3889580697  SOLV      333             0.0000000000
      1120       345  TIP3      OH2            -9.5866557147      -16.4182512194      -16.3937073937  SOLV      334             0.0000000000
      1121       345  TIP3      H1             -9.3534590452      -15.8830084310      -15.6073146255  SOLV      334             0.0000000000
      1122       345  TIP3      H2             -9.0593109063      -17.2235260965      -16.2624237724  SOLV      334             0.0000000000
      1123       346  TIP3      OH2            -9.4840179483      -22.1669333397      -23.1411371766  SOLV      335             0.0000000000
      1124       346  TIP3      H1            -10.1337165694      -21.5678475226      -22.7422156717  SOLV      335             0.0000000000
      1125       346  TIP3      H2             -9.4076643641      -21.7631253137      -24.0353656004  SOLV      335             0.0000000000
      1126       347  TIP3      OH2           -16.8408584597       -9.3694813267      -27.9176975065  SOLV      336             0.0000000000
      1127       347  TIP3      H1            -17.5212686828       -8.8530915144      -28.3800049374  SOLV      336             0.0000000000
      1128       347  TIP3      H2            -16.8464254690       -8.9381017017      -27.0265160837  SOLV      336             0.0000000000
      1129       348  TIP3      OH2            -3.2272738282      -17.3987100044      -16.5429082302  SOLV      337             0.0000000000
      1130       348  TIP3      H1             -4.2071625727      -17.3767513252      -16.4459417507  SOLV      337             0.0000000000
      1131       348  TIP3      H2             -3.1592338762      -17.8357998935      -17.4010903659  SOLV      337             0.0000000000
      1132       349  TIP3      OH2            -6.6983628585      -15.4550939143      -22.6708913431  SOLV      338             0.0000000000
      1133       349  TIP3      H1             -7.4885652046      -16.0077974129      -22.5323662588  SOLV      338             0.0000000000
      1134       349  TIP3      H2             -6.0145785569      -15.9406311696      -22.1630717449  SOLV      338             0.0000000000
      1135       350  TIP3      OH2            -6.9969469463       -5.8236273237      -23.2074843910  SOLV      339             0.0000000000
      1136       350  TIP3      H1             -7.4248087939       -5.3553598819      -23.9588947841  SOLV      339             0.0000000000
      1137       350  TIP3      H2             -6.0516050915       -5.6442906439      -23.4096009218  SOLV      339             0.0000000000
      1138       351  TIP3      OH2           -19.8329160976      -10.2836060816      -23.8736532535  SOLV      340             0.0000000000
      1139       351  TIP3      H1            -20.5233986866      -10.1602808898      -23.1890967605  SOLV      340             0.0000000000
      1140       351  TIP3      H2            -20.1092007268      -11.0856262919      -24.2861550260  SOLV      340             0.0000000000
      1141       352  TIP3      OH2           -19.2397087119       -5.4857128603      -13.4088997770  SOLV      341             0.0000000000
      1142       352  TIP3      H1            -18.3871079764       -5.4610042976      -12.9191983988  SOLV      341             0.0000000000
      1143       352  TIP3      H2            -19.4321822231       -6.4412322874      -13.3794952523  SOLV      341             0.0000000000
      1144       353  TIP3      OH2           -14.5356993510       -5.9756006215      -12.9572709395  SOLV      342             0.0000000000
      1145       353  TIP3      H1            -13.5847202195       -6.1158710659      -12.8567977854  SOLV      342             0.0000000000
      1146       353  TIP3      H2            -14.7452949947       -6.6200358963      -13.6650122438  SOLV      342             0.0000000000
      1147       354  TIP3      OH2            -8.0668374526       -6.8765159771      -15.6334022647  SOLV      343             0.0000000000
      1148       354  TIP3      H1             -8.1361435675       -7.5670513612      -14.9345170441  SOLV      343             0.0000000000
      1149       354  TIP3      H2             -7.3138881351       -6.3416717240      -15.3153946439  SOLV      343             0.0000000000
      1150       355  TIP3      OH2           -10.0121537659       -9.6329588022      -32.4616360013  SOLV      344             0.0000000000
      1151       355  TIP3      H1             -9.9697136221      -10.3696027992      -31.8151050464  SOLV      344             0.0000000000
      1152       355  TIP3      H2             -9.1329689602       -9.6823741694      -32.8526711150  SOLV      344             0.0000000000
      1153       356  TIP3      OH2           -17.9586257933      -11.4864927070      -11.3861050811  SOLV      345             0.0000000000
      1154       356  TIP3      H1            -17.8028281600      -12.4464649845      -11.3248336068  SOLV      345             0.0000000000
      1155       356  TIP3      H2            -18.8361764214      -11.4563759185      -11.8344092024  SOLV      345             0.0000000000
      1156       357  TIP3      OH2           -11.9019321971      -10.6155088097      -13.6462340944  SOLV      346             0.0000000000
      1157       357  TIP3      H1            -12.3242507189      -10.4111753043      -14.5039273439  SOLV      346             0.0000000000
      1158       357  TIP3      H2            -11.5924806737      -11.5377087685      -13.7707332586  SOLV      346             0.0000000000
      1159       358  TIP3      OH2            -6.9905679286      -10.4913565946      -17.5686362678  SOLV      347             0.0000000000
      1160       358  TIP3      H1             -6.2309704902      -10.0647924292      -18.0086472214  SOLV      347             0.0000000000
      1161       358  TIP3      H2             -7.6847819325       -9.8214937250      -17.7193058490  SOLV      347             0.0000000000
      1162       359  TIP3      OH2           -16.7518031542      -14.0957812990      -11.5263659225  SOLV      348             0.0000000000
      1163       359  TIP3      H1            -16.0103499147      -14.6522385117      -11.7826374705  SOLV      348             0.0000000000
      1164       359  TIP3      H2            -16.4712899298      -13.7924289408      -10.6367873754  SOLV      348             0.0000000000
      1165       360  TIP3      OH2           -13.3791134702      -15.2589051268      -14.8979209019  SOLV      349             0.0000000000
      1166       360  TIP3      H1            -14.1964358254      -14.7179504880      -14.9091936103  SOLV      349             0.0000000000
      1167       360  TIP3      H2            -12.9285331509      -14.9606979511      -15.7201913606  SOLV      349             0.0000000000
      1168       361  TIP3      OH2            -8.2720584672      -11.3025022226      -13.6454643852  SOLV      350             0.0000000000
      1169       361  TIP3      H1             -7.4759125653      -11.6198369425      -14.0813762088  SOLV      350             0.0000000000
      1170       361  TIP3      H2             -8.3482592823      -11.9160895903      -12.8906566196  SOLV      350             0.0000000000
      1171       362  TIP3      OH2            -6.7271042950      -14.6094911934      -32.4109268031  SOLV      351             0.0000000000
      1172       362  TIP3      H1             -7.4624999903      -15.0175148830      -32.8877121393  SOLV      351             0.0000000000
      1173       362  TIP3      H2             -7.0189831939      -13.6924580688      -32.3661207137  SOLV      351             0.0000000000
      1174       363  TIP3      OH2           -12.1679074178      -17.4101209171      -13.7135719310  SOLV      352             0.0000000000
      1175       363  TIP3      H1            -12.2023816171      -18.1916462494      -14.3008129566  SOLV      352             0.0000000000
      1176       363  TIP3      H2            -12.6125095707      -16.7235119860      -14.2600883248  SOLV      352             0.0000000000
      1177       364  TIP3      OH2           -12.2172724979      -19.5442534511      -15.6296348667  SOLV      353             0.0000000000
      1178       364  TIP3      H1            -11.9488002115      -19.1558172336      -16.4821970007  SOLV      353             0.0000000000
      1179       364  TIP3      H2            -13.1449464376      -19.8054656845      -15.8051031871  SOLV      353             0.0000000000
      1180       365  TIP3      OH2           -11.9432525932      -14.2410848726      -16.9426779212  SOLV      354             0.0000000000
      1181       365  TIP3      H1            -11.0732774029      -14.0426523994      -17.2986804510  SOLV      354             0.0000000000
      1182       365  TIP3      H2            -12.5054325436      -13.5637316578      -17.3792211640  SOLV      354             0.0000000000
      1183       366  TIP3      OH2            -6.1298069521      -14.5512625993      -13.1204312329  SOLV      355             0.0000000000
      1184       366  TIP3      H1             -5.6460239816      -15.3765878761      -12.9705217621  SOLV      355             0.0000000000
      1185       366  TIP3      H2             -5.4350605766      -13.9675210605      -13.4590963718  SOLV      355             0.0000000000
      1186       367  TIP3      OH2            -5.6961223366      -12.0240846700      -15.7577094816  SOLV      356             0.0000000000
      1187       367  TIP3      H1             -6.2756266026      -11.4526558650      -16.3172352738  SOLV      356             0.0000000000
      1188       367  TIP3      H2             -4.8190643634      -11.8011062727      -16.1428372885  SOLV      356             0.0000000000
      1189       368  TIP3      OH2           -13.3933369005      -16.3893351923      -11.3631167498  SOLV      357             0.0000000000
      1190       368  TIP3      H1            -14.0789184882      -17.0705624003      -11.1986471640  SOLV      357             0.0000000000
      1191       368  TIP3      H2            -13.0780625364      -16.6408372408      -12.2518508629  SOLV      357             0.0000000000
      1192       369  TIP3      OH2           -10.8156964774      -21.8641186126      -14.8668504616  SOLV      358             0.0000000000
      1193       369  TIP3      H1            -11.3317882809      -21.0730125414      -15.1262259040  SOLV      358             0.0000000000
      1194       369  TIP3      H2            -11.4883052778      -22.5719604195      -14.9668891397  SOLV      358             0.0000000000
      1195       370  TIP3      OH2            -9.5903482222      -16.9450410187      -12.7711333213  SOLV      359             0.0000000000
      1196       370  TIP3      H1             -9.7697485981      -17.0796997680      -11.8211686101  SOLV      359             0.0000000000
      1197       370  TIP3      H2            -10.4799366192      -17.1610984429      -13.1268891013  SOLV      359             0.0000000000
      1198       371  TIP3      OH2            -7.2167050618      -17.4339697968      -14.2223183789  SOLV      360             0.0000000000
      1199       371  TIP3      H1             -7.9770751010      -17.4119288079      -13.6072045452  SOLV      360             0.0000000000
      1200       371  TIP3      H2             -6.4847395882      -17.7205165711      -13.6418085163  SOLV      360             0.0000000000
      1201       372  TIP3      OH2            -4.8586898456      -17.9587305345      -12.7311377128  SOLV      361             0.0000000000
      1202       372  TIP3      H1             -4.7598026715      -18.9221050218      -12.5764016692  SOLV      361             0.0000000000
      1203       372  TIP3      H2             -4.9519761126      -17.6062968660      -11.8205094713  SOLV      361             0.0000000000
      1204       373  TIP3      OH2           -15.0168295504      -18.5700664800      -10.8015396022  SOLV      362             0.0000000000
      1205       373  TIP3      H1            -15.0023385477      -19.4842034101      -11.1447255356  SOLV      362             0.0000000000
      1206       373  TIP3      H2            -14.6506058128      -18.7069221400       -9.9029071968  SOLV      362             0.0000000000
      1207       374  TIP3      OH2            -9.9379101275      -21.8597451717      -12.2794518883  SOLV      363             0.0000000000
      1208       374  TIP3      H1             -9.2770842603      -22.5737751457      -12.3745010409  SOLV      363             0.0000000000
      1209       374  TIP3      H2            -10.3164370395      -21.8531306376      -13.1832366138  SOLV      363             0.0000000000
      1210       375  TIP3      OH2            -9.2538337229      -19.7047892626      -10.7434170571  SOLV      364             0.0000000000
      1211       375  TIP3      H1             -9.4826680120      -20.4222474908      -11.3757708704  SOLV      364             0.0000000000
      1212       375  TIP3      H2            -10.0359392490      -19.1167294448      -10.8105158988  SOLV      364             0.0000000000
      1213       376  TIP3      OH2           -16.8078293025       -7.0004267223      -30.7551821350  SOLV      365             0.0000000000
      1214       376  TIP3      H1            -15.9710262106       -7.1182395724      -30.2850668196  SOLV      365             0.0000000000
      1215       376  TIP3      H2            -17.3312694672       -6.4939352342      -30.1225876011  SOLV      365             0.0000000000
      1216       377  TIP3      OH2           -22.9535224790       -7.5662980688      -23.5970429893  SOLV      366             0.0000000000
      1217       377  TIP3      H1            -23.6818354064       -8.0998763943      -23.9447789853  SOLV      366             0.0000000000
      1218       377  TIP3      H2            -22.5770712056       -8.1626083325      -22.9081127645  SOLV      366             0.0000000000
      1219       378  TIP3      OH2           -21.6850788502       -9.0373339882      -21.6557716971  SOLV      367             0.0000000000
      1220       378  TIP3      H1            -21.7888094778       -9.6939107484      -20.9352161106  SOLV      367             0.0000000000
      1221       378  TIP3      H2            -21.2015292169       -8.3550778484      -21.1562499628  SOLV      367             0.0000000000
      1222       379  TIP3      OH2            -4.4171692424       -4.9968755398      -23.5641092728  SOLV      368             0.0000000000
      1223       379  TIP3      H1             -4.1902112071       -4.6954080222      -22.6648730603  SOLV      368             0.0000000000
      1224       379  TIP3      H2             -3.7628275506       -4.5360860234      -24.1089632072  SOLV      368             0.0000000000
      1225       380  TIP3      OH2            -4.1557392677       -4.7790101044      -20.7514522400  SOLV      369             0.0000000000
      1226       380  TIP3      H1             -4.6250025826       -5.6410129780      -20.7842039746  SOLV      369             0.0000000000
      1227       380  TIP3      H2             -3.4358812667       -5.0135498346      -20.1439316362  SOLV      369             0.0000000000
      1228       381  TIP3      OH2            -3.6961843789       -7.9998641222      -15.0286361829  SOLV      370             0.0000000000
      1229       381  TIP3      H1             -4.4149783123       -7.8989913433      -14.3722594378  SOLV      370             0.0000000000
      1230       381  TIP3      H2             -3.2717741647       -7.1182371877      -14.9870887207  SOLV      370             0.0000000000
      1231       382  TIP3      OH2            -5.4821303732      -12.9149969781      -28.8784126244  SOLV      371             0.0000000000
      1232       382  TIP3      H1             -4.8435158473      -12.2211507484      -29.1374081865  SOLV      371             0.0000000000
      1233       382  TIP3      H2             -5.0457747000      -13.2851603988      -28.0790643671  SOLV      371             0.0000000000
      1234       383  TIP3      OH2            -4.2349230512      -14.2163870270      -26.8012964168  SOLV      372             0.0000000000
      1235       383  TIP3      H1             -4.9116335673      -14.6350917770      -26.2232596573  SOLV      372             0.0000000000
      1236       383  TIP3      H2             -3.6071721930      -13.8388075260      -26.1519106811  SOLV      372             0.0000000000
      1237       384  TIP3      OH2            -3.6677552927      -10.2325377976      -22.4867061283  SOLV      373             0.0000000000
      1238       384  TIP3      H1             -3.1474325618      -10.9138952842      -22.9523679085  SOLV      373             0.0000000000
      1239       384  TIP3      H2             -3.7343149986       -9.5251143306      -23.1567547761  SOLV      373             0.0000000000
      1240       385  TIP3      OH2            -5.4328690123       -7.2618951645      -20.5602615103  SOLV      374             0.0000000000
      1241       385  TIP3      H1             -6.1440880261       -6.8467879759      -20.0340531828  SOLV      374             0.0000000000
      1242       385  TIP3      H2             -5.9396458073       -7.7202444900      -21.2649306692  SOLV      374             0.0000000000
      1243       386  TIP3      OH2            -4.9196321762      -15.1386816706      -30.3795571154  SOLV      375             0.0000000000
      1244       386  TIP3      H1             -5.5423702652      -15.0363771476      -31.1304050906  SOLV      375             0.0000000000
      1245       386  TIP3      H2             -5.1849954512      -14.3791130235      -29.8180549672  SOLV      375             0.0000000000
      1246       387  TIP3      OH2            -6.0211450070      -18.2503531510      -31.0740335252  SOLV      376             0.0000000000
      1247       387  TIP3      H1             -6.6497021105      -17.5296895501      -31.2500404214  SOLV      376             0.0000000000
      1248       387  TIP3      H2             -6.2982393241      -18.9098055220      -31.7252359848  SOLV      376             0.0000000000
      1249       388  TIP3      OH2            -6.1067778182      -15.6373964916      -25.3702396825  SOLV      377             0.0000000000
      1250       388  TIP3      H1             -6.0592328695      -16.6049834853      -25.4616771106  SOLV      377             0.0000000000
      1251       388  TIP3      H2             -6.2695680263      -15.5219632258      -24.4083060302  SOLV      377             0.0000000000
      1252       389  TIP3      OH2           -19.8431806396      -15.0161437841      -17.8791098558  SOLV      378             0.0000000000
      1253       389  TIP3      H1            -19.7938712402      -15.2711786012      -18.8080983699  SOLV      378             0.0000000000
      1254       389  TIP3      H2            -18.8805915152      -14.9745200313      -17.6599034738  SOLV      378             0.0000000000
      1255       390  TIP3      OH2            -3.2265003868      -11.3617705074      -16.7723688833  SOLV      379             0.0000000000
      1256       390  TIP3      H1             -2.5231748534      -12.0342886158      -16.9092449147  SOLV      379             0.0000000000
      1257       390  TIP3      H2             -2.9839076297      -10.6708036333      -17.4076095637  SOLV      379             0.0000000000
      1258       391  TIP3      OH2            -1.4135556635      -13.3805669964      -16.7626714848  SOLV      380             0.0000000000
      1259       391  TIP3      H1             -2.1645977574      -13.8477708662      -16.3348609661  SOLV      380             0.0000000000
      1260       391  TIP3      H2             -0.6887662783      -14.0080517979      -16.5599518871  SOLV      380             0.0000000000
      1261       392  TIP3      OH2            -6.0494480188      -18.4464918159      -26.3456611832  SOLV      381             0.0000000000
      1262       392  TIP3      H1             -5.6603645413      -19.3442223657      -26.2475404770  SOLV      381             0.0000000000
      1263       392  TIP3      H2             -5.6173489507      -18.1551206023      -27.1654598965  SOLV      381             0.0000000000
      1264       393  TIP3      OH2            -4.5731852297      -16.7898085599      -21.4371792919  SOLV      382             0.0000000000
      1265       393  TIP3      H1             -3.7258290923      -16.5337336542      -21.8674334390  SOLV      382             0.0000000000
      1266       393  TIP3      H2             -4.4329841638      -16.3799468056      -20.5618778553  SOLV      382             0.0000000000
      1267       394  TIP3      OH2            -3.8390375445      -15.2778289741      -19.1724399743  SOLV      383             0.0000000000
      1268       394  TIP3      H1             -4.6052134840      -14.9540971056      -18.6606655623  SOLV      383             0.0000000000
      1269       394  TIP3      H2             -3.5281142425      -14.4525196492      -19.6039450331  SOLV      383             0.0000000000
      1270       395  TIP3      OH2           -17.6782538652      -17.9978317373      -11.0845104023  SOLV      384             0.0000000000
      1271       395  TIP3      H1            -16.7009717572      -18.0809950523      -11.0443238060  SOLV      384             0.0000000000
      1272       395  TIP3      H2            -17.9386756492      -18.8725813929      -10.7321641723  SOLV      384             0.0000000000
      1273       396  TIP3      OH2             0.6965840404      -19.3010181001      -13.6017999449  SOLV      385             0.0000000000
      1274       396  TIP3      H1              1.2654532693      -19.9546580730      -14.0560976830  SOLV      385             0.0000000000
      1275       396  TIP3      H2              0.3421649740      -18.7862963136      -14.3610915922  SOLV      385             0.0000000000
      1276       397  TIP3      OH2            -5.1103005790      -21.0611548341      -26.0863293090  SOLV      386             0.0000000000
      1277       397  TIP3      H1             -4.6191784708      -21.1900598691      -25.2448983153  SOLV      386             0.0000000000
      1278       397  TIP3      H2             -5.7992460847      -21.7492596751      -25.9983239293  SOLV      386             0.0000000000
      1279       398  TIP3      OH2           -19.4895964557      -18.1062055557      -16.9379731358  SOLV      387             0.0000000000
      1280       398  TIP3      H1            -19.9584548438      -18.4604707973      -17.7075295669  SOLV      387             0.0000000000
      1281       398  TIP3      H2            -19.9009303408      -17.2442289930      -16.8241353479  SOLV      387             0.0000000000
      1282       399  TIP3      OH2            -0.6740234322      -18.0040975306      -15.5390630440  SOLV      388             0.0000000000
      1283       399  TIP3      H1             -1.5163293859      -17.5606656326      -15.3106701191  SOLV      388             0.0000000000
      1284       399  TIP3      H2             -1.0155803984      -18.7077417183      -16.1240397638  SOLV      388             0.0000000000
      1285       400  TIP3      OH2            -3.9960448181      -20.8562387235      -30.6796704580  SOLV      389             0.0000000000
      1286       400  TIP3      H1             -3.7600032673      -21.7011066291      -30.2878068698  SOLV      389             0.0000000000
      1287       400  TIP3      H2             -3.3802202335      -20.2432089423      -30.2388987299  SOLV      389             0.0000000000
      1288       401  TIP3      OH2            -8.5777478684       -6.3110940453      -27.0063398107  SOLV      390             0.0000000000
      1289       401  TIP3      H1             -8.0540276858       -6.4058754837      -27.8252146183  SOLV      390             0.0000000000
      1290       401  TIP3      H2             -8.0829148989       -5.6334183223      -26.5177592530  SOLV      390             0.0000000000
      1291       402  TIP3      OH2           -17.9598065382      -22.3485191872      -14.0493688436  SOLV      391             0.0000000000
      1292       402  TIP3      H1            -18.3912697642      -22.5297361480      -13.1958935050  SOLV      391             0.0000000000
      1293       402  TIP3      H2            -18.6221360404      -21.7866133662      -14.4714476139  SOLV      391             0.0000000000
      1294       403  TIP3      OH2           -17.6227416179       -8.2233512872      -13.2139225888  SOLV      392             0.0000000000
      1295       403  TIP3      H1            -18.5666959596       -8.4463546214      -13.3320910505  SOLV      392             0.0000000000
      1296       403  TIP3      H2            -17.4878025088       -8.4250461282      -12.2811544114  SOLV      392             0.0000000000
      1297       404  TIP3      OH2           -15.7987966506       -7.8863994923      -17.7133820654  SOLV      393             0.0000000000
      1298       404  TIP3      H1            -16.2824919561       -7.1242175884      -18.0906488151  SOLV      393             0.0000000000
      1299       404  TIP3      H2            -14.9435953220       -7.7513540709      -18.1705650278  SOLV      393             0.0000000000
      1300       405  TIP3      OH2           -11.4521256873       -5.4808854486      -16.3737876612  SOLV      394             0.0000000000
      1301       405  TIP3      H1            -11.0359198028       -5.5156908830      -15.4836385079  SOLV      394             0.0000000000
      1302       405  TIP3      H2            -10.7874698145       -4.9517233732      -16.8629468598  SOLV      394             0.0000000000
      1303       406  TIP3      OH2            -9.6328064364       -3.9202363237      -17.7177459447  SOLV      395             0.0000000000
      1304       406  TIP3      H1             -8.9248382533       -4.4478712461      -18.1127014642  SOLV      395             0.0000000000
      1305       406  TIP3      H2             -9.1151831999       -3.3531424768      -17.1035796921  SOLV      395             0.0000000000
      1306       407  TIP3      OH2            -1.6611327672      -20.3653879706      -16.7601405937  SOLV      396             0.0000000000
      1307       407  TIP3      H1             -2.5690360440      -20.4533548800      -17.1022641265  SOLV      396             0.0000000000
      1308       407  TIP3      H2             -1.3363293993      -21.2886763331      -16.8600970166  SOLV      396             0.0000000000
      1309       408  TIP3      OH2           -19.0769486032       -5.2976684283      -17.4786754742  SOLV      397             0.0000000000
      1310       408  TIP3      H1            -19.9911238715       -4.9850754479      -17.6578521245  SOLV      397             0.0000000000
      1311       408  TIP3      H2            -18.9178896829       -4.8924496853      -16.6199160889  SOLV      397             0.0000000000
      1312       409  TIP3      OH2           -16.7126192562       -5.5457821879      -18.8658659955  SOLV      398             0.0000000000
      1313       409  TIP3      H1            -17.5910073238       -5.4375250957      -18.4365187507  SOLV      398             0.0000000000
      1314       409  TIP3      H2            -16.9083323151       -5.2624004022      -19.7798967339  SOLV      398             0.0000000000
      1315       410  TIP3      OH2           -12.4547639561       -5.3098786039      -20.8887233820  SOLV      399             0.0000000000
      1316       410  TIP3      H1            -13.1669782769       -5.1274621999      -21.5308166991  SOLV      399             0.0000000000
      1317       410  TIP3      H2            -12.3372334741       -4.4305090040      -20.4729283967  SOLV      399             0.0000000000
      1318       411  TIP3      OH2            -9.7677848799       -5.9158352846      -20.3709798775  SOLV      400             0.0000000000
      1319       411  TIP3      H1            -10.7116956835       -5.7482039643      -20.5623770952  SOLV      400             0.0000000000
      1320       411  TIP3      H2             -9.3410935776       -5.1755487991      -20.8298839582  SOLV      400             0.0000000000
      1321       412  TIP3      OH2            -7.7107724566       -3.9973788476      -21.2618705520  SOLV      401             0.0000000000
      1322       412  TIP3      H1             -7.8560098549       -3.1533224796      -21.7386623980  SOLV      401             0.0000000000
      1323       412  TIP3      H2             -7.4558713710       -4.5992551816      -21.9955227877  SOLV      401             0.0000000000
      1324       413  TIP3      OH2           -19.9675155042       -7.4132192634      -20.0164463099  SOLV      402             0.0000000000
      1325       413  TIP3      H1            -19.6907397227       -7.7435490630      -19.1314271101  SOLV      402             0.0000000000
      1326       413  TIP3      H2            -19.2386171017       -7.8168182275      -20.5450833822  SOLV      402             0.0000000000
      1327       414  TIP3      OH2           -17.9384173239       -8.5990521176      -21.3542804385  SOLV      403             0.0000000000
      1328       414  TIP3      H1            -17.8526446926       -9.4812058763      -20.9237223652  SOLV      403             0.0000000000
      1329       414  TIP3      H2            -17.0035204683       -8.3044038848      -21.3560161964  SOLV      403             0.0000000000
      1330       415  TIP3      OH2           -15.2799078605       -7.7911642407      -21.3475845427  SOLV      404             0.0000000000
      1331       415  TIP3      H1            -14.9976881847       -8.7241256583      -21.4304579386  SOLV      404             0.0000000000
      1332       415  TIP3      H2            -14.7822175965       -7.5449146272      -20.5446400289  SOLV      404             0.0000000000
      1333       416  TIP3      OH2            -9.5725963777      -21.0277533996      -20.3752464646  SOLV      405             0.0000000000
      1334       416  TIP3      H1             -9.9780473005      -21.6012161501      -19.6876123046  SOLV      405             0.0000000000
      1335       416  TIP3      H2             -9.1043126858      -21.6860468167      -20.9105443321  SOLV      405             0.0000000000
      1336       417  TIP3      OH2            -4.3488586436      -22.5086663788      -21.6089612687  SOLV      406             0.0000000000
      1337       417  TIP3      H1             -4.0173917006      -21.9313041816      -22.3299619104  SOLV      406             0.0000000000
      1338       417  TIP3      H2             -5.3095863794      -22.2898584088      -21.6228001654  SOLV      406             0.0000000000
      1339       418  TIP3      OH2            -3.4387866920      -21.4311654868      -23.9441059779  SOLV      407             0.0000000000
      1340       418  TIP3      H1             -2.6680622954      -21.9301060969      -24.2858553952  SOLV      407             0.0000000000
      1341       418  TIP3      H2             -3.1069386822      -20.5095987200      -24.0562037969  SOLV      407             0.0000000000
      1342       419  TIP3      OH2            -7.0616533005      -22.2861967650      -21.7471345288  SOLV      408             0.0000000000
      1343       419  TIP3      H1             -7.8096031513      -22.2985184352      -22.3633667567  SOLV      408             0.0000000000
      1344       419  TIP3      H2             -7.2519185670      -23.0848488527      -21.1950599322  SOLV      408             0.0000000000
      1345       420  TIP3      OH2           -14.1891902756       -7.7731761743      -30.2045482228  SOLV      409             0.0000000000
      1346       420  TIP3      H1            -13.2503587308       -7.6122901024      -30.4815060604  SOLV      409             0.0000000000
      1347       420  TIP3      H2            -14.4879456164       -8.2149012126      -31.0180060151  SOLV      409             0.0000000000
      1348       421  TIP3      OH2            -7.0915440441       -6.6154189593      -29.3560817908  SOLV      410             0.0000000000
      1349       421  TIP3      H1             -7.1615942947       -7.5935938616      -29.4749708658  SOLV      410             0.0000000000
      1350       421  TIP3      H2             -7.6001816662       -6.3045942919      -30.1328287699  SOLV      410             0.0000000000
      1351       422  TIP3      OH2           -15.0499128414      -21.3050758541      -11.4535554600  SOLV      411             0.0000000000
      1352       422  TIP3      H1            -15.3968304303      -22.0153705377      -10.8839750690  SOLV      411             0.0000000000
      1353       422  TIP3      H2            -14.1079755339      -21.3007942039      -11.1787428297  SOLV      411             0.0000000000
      1354       423  TIP3      OH2           -12.5325644894      -21.3442704196      -10.2853949713  SOLV      412             0.0000000000
      1355       423  TIP3      H1            -11.6835777453      -21.5920428846      -10.6897939943  SOLV      412             0.0000000000
      1356       423  TIP3      H2            -12.6515415778      -22.0574037488       -9.6259836752  SOLV      412             0.0000000000
      1357       424  TIP3      OH2            -4.2733700596      -20.6806666164      -12.4284703131  SOLV      413             0.0000000000
      1358       424  TIP3      H1             -4.1028672549      -20.9740112127      -11.5068777885  SOLV      413             0.0000000000
      1359       424  TIP3      H2             -3.3799719891      -20.7449099970      -12.8230823012  SOLV      413             0.0000000000
      1360       425  TIP3      OH2            -4.9251104000       -5.2052396483      -17.5230597357  SOLV      414             0.0000000000
      1361       425  TIP3      H1             -5.7286110372       -5.5051044897      -17.9958201506  SOLV      414             0.0000000000
      1362       425  TIP3      H2             -5.1287352205       -4.2538402899      -17.4190160289  SOLV      414             0.0000000000
      1363       426  TIP3      OH2             7.7300757941      -11.4719178204      -29.7970420164  SOLV      415             0.0000000000
      1364       426  TIP3      H1              7.4365498244      -10.5597926732      -30.0257168098  SOLV      415             0.0000000000
      1365       426  TIP3      H2              6.9706305730      -11.9758416925      -30.1356052488  SOLV      415             0.0000000000
      1366       427  TIP3      OH2             7.7928339358      -11.4409672864      -25.9610649531  SOLV      416             0.0000000000
      1367       427  TIP3      H1              8.1307748418      -11.6964167752      -25.0825083826  SOLV      416             0.0000000000
      1368       427  TIP3      H2              7.3499768489      -12.2524103083      -26.2518482692  SOLV      416             0.0000000000
      1369       428  TIP3      OH2             0.7190742459      -12.5633382433      -22.3729294004  SOLV      417             0.0000000000
      1370       428  TIP3      H1              1.0184034230      -13.2423880966      -21.7414001534  SOLV      417             0.0000000000
      1371       428  TIP3      H2              1.4951415789      -11.9886028383      -22.4082994929  SOLV      417             0.0000000000
      1372       429  TIP3      OH2            10.2691286786       -8.4813302331      -29.1331350677  SOLV      418             0.0000000000
      1373       429  TIP3      H1             10.0608012516       -9.1222035486      -28.4390907999  SOLV      418             0.0000000000
      1374       429  TIP3      H2             10.5263651230       -7.6972205838      -28.6209958349  SOLV      418             0.0000000000
      1375       430  TIP3      OH2             0.4901591978       -8.3996004338      -25.1619662984  SOLV      419             0.0000000000
      1376       430  TIP3      H1              0.3955415286       -9.3763763494      -25.1521006193  SOLV      419             0.0000000000
      1377       430  TIP3      H2              1.4585195398       -8.3203950877      -25.2325106813  SOLV      419             0.0000000000
      1378       431  TIP3      OH2            -2.4803136392      -16.3932347817      -27.3333488026  SOLV      420             0.0000000000
      1379       431  TIP3      H1             -2.9646026877      -15.5750909437      -27.1205506883  SOLV      420             0.0000000000
      1380       431  TIP3      H2             -3.1959791938      -16.9019641783      -27.7539173969  SOLV      420             0.0000000000
      1381       432  TIP3      OH2            -1.8985338777      -13.5150193157      -25.4791285813  SOLV      421             0.0000000000
      1382       432  TIP3      H1             -1.3824390548      -14.2865033731      -25.1557621548  SOLV      421             0.0000000000
      1383       432  TIP3      H2             -1.3096110150      -13.1432259129      -26.1472055154  SOLV      421             0.0000000000
      1384       433  TIP3      OH2             6.6904004176       -3.8609095442      -28.9327414948  SOLV      422             0.0000000000
      1385       433  TIP3      H1              7.0770349162       -4.5711807753      -29.4868486905  SOLV      422             0.0000000000
      1386       433  TIP3      H2              6.6108331022       -4.2997175213      -28.0811838949  SOLV      422             0.0000000000
      1387       434  TIP3      OH2             5.7098585955       -9.1890017404      -25.5477187972  SOLV      423             0.0000000000
      1388       434  TIP3      H1              6.1242728687       -9.9352947103      -26.0114821184  SOLV      423             0.0000000000
      1389       434  TIP3      H2              6.5267623443       -8.7171533132      -25.2768749513  SOLV      423             0.0000000000
      1390       435  TIP3      OH2            15.8835339760      -15.9611740474      -25.5483675930  SOLV      424             0.0000000000
      1391       435  TIP3      H1             16.1719289264      -15.1479293691      -25.0837852539  SOLV      424             0.0000000000
      1392       435  TIP3      H2             16.0062502597      -15.6957214625      -26.4764279490  SOLV      424             0.0000000000
      1393       436  TIP3      OH2             9.8757845268      -14.2202446454      -25.2359317441  SOLV      425             0.0000000000
      1394       436  TIP3      H1             10.2642317271      -15.0946810450      -25.0465727082  SOLV      425             0.0000000000
      1395       436  TIP3      H2              9.5127100465      -14.3702725230      -26.1306235755  SOLV      425             0.0000000000
      1396       437  TIP3      OH2             3.3130031667      -17.6076149590      -25.6070228897  SOLV      426             0.0000000000
      1397       437  TIP3      H1              3.0789964947      -16.8735438796      -26.2145724721  SOLV      426             0.0000000000
      1398       437  TIP3      H2              2.8033025048      -18.3367470235      -26.0260905116  SOLV      426             0.0000000000
      1399       438  TIP3      OH2            10.2810899646      -16.5708863062      -29.2551594672  SOLV      427             0.0000000000
      1400       438  TIP3      H1             11.0219548869      -16.8730907006      -28.6879595485  SOLV      427             0.0000000000
      1401       438  TIP3      H2             10.7713491176      -16.2051793556      -30.0102138864  SOLV      427             0.0000000000
      1402       439  TIP3      OH2            -0.4142241783      -15.5898244969      -24.4807913650  SOLV      428             0.0000000000
      1403       439  TIP3      H1              0.4198589484      -15.7824200122      -24.0133501899  SOLV      428             0.0000000000
      1404       439  TIP3      H2             -0.2883025387      -16.1342673711      -25.2861081649  SOLV      428             0.0000000000
      1405       440  TIP3      OH2             3.9663204937      -13.5960789692      -26.5305949056  SOLV      429             0.0000000000
      1406       440  TIP3      H1              4.9075813596      -13.8413363482      -26.4108891517  SOLV      429             0.0000000000
      1407       440  TIP3      H2              3.5781443258      -14.4365832155      -26.8558773706  SOLV      429             0.0000000000
      1408       441  TIP3      OH2            16.6094351126      -13.9043824371      -23.8443575129  SOLV      430             0.0000000000
      1409       441  TIP3      H1             15.7509253621      -13.4554036207      -23.9994632922  SOLV      430             0.0000000000
      1410       441  TIP3      H2             16.8434053708      -13.5525485812      -22.9700060929  SOLV      430             0.0000000000
      1411       442  TIP3      OH2             3.2079676249      -17.7671597752      -21.2133007408  SOLV      431             0.0000000000
      1412       442  TIP3      H1              2.6327313339      -17.3936021294      -21.9082468402  SOLV      431             0.0000000000
      1413       442  TIP3      H2              2.6611966241      -17.5811036365      -20.4200747989  SOLV      431             0.0000000000
      1414       443  TIP3      OH2             6.6100712687       -9.2754150949      -30.9280839741  SOLV      432             0.0000000000
      1415       443  TIP3      H1              6.3384332193       -9.4240964372      -31.8478813297  SOLV      432             0.0000000000
      1416       443  TIP3      H2              6.1665928850       -8.4236219096      -30.7407703541  SOLV      432             0.0000000000
      1417       444  TIP3      OH2             4.2653966474      -10.0020173059      -23.3287128908  SOLV      433             0.0000000000
      1418       444  TIP3      H1              3.6696593373       -9.3047513265      -22.9732854002  SOLV      433             0.0000000000
      1419       444  TIP3      H2              4.7129927446       -9.5296749699      -24.0598943327  SOLV      433             0.0000000000
      1420       445  TIP3      OH2            12.3922047224      -16.7684749602      -27.4353791371  SOLV      434             0.0000000000
      1421       445  TIP3      H1             11.9137553632      -16.9642895117      -26.6170736741  SOLV      434             0.0000000000
      1422       445  TIP3      H2             12.8125796512      -15.9104612209      -27.2169767364  SOLV      434             0.0000000000
      1423       446  TIP3      OH2             1.9597410849      -16.6230718461      -23.4094719133  SOLV      435             0.0000000000
      1424       446  TIP3      H1              2.5590659769      -15.8784886206      -23.1778773490  SOLV      435             0.0000000000
      1425       446  TIP3      H2              2.4620628732      -17.0199040329      -24.1568096146  SOLV      435             0.0000000000
      1426       447  TIP3      OH2             2.5897048287       -8.0195606392      -22.3213526740  SOLV      436             0.0000000000
      1427       447  TIP3      H1              2.3348736970       -7.1403941451      -22.6702562201  SOLV      436             0.0000000000
      1428       447  TIP3      H2              1.7982324446       -8.2029136402      -21.7704364664  SOLV      436             0.0000000000
      1429       448  TIP3      OH2            -3.5107200676      -11.1283515115      -29.9094959873  SOLV      437             0.0000000000
      1430       448  TIP3      H1             -3.9224771957      -10.8971039281      -30.7646360367  SOLV      437             0.0000000000
      1431       448  TIP3      H2             -3.2224293444      -10.2529560809      -29.5832742053  SOLV      437             0.0000000000
      1432       449  TIP3      OH2            10.8784516232       -5.9726054496      -27.5686655744  SOLV      438             0.0000000000
      1433       449  TIP3      H1              9.9835966843       -6.0711454106      -27.1689306884  SOLV      438             0.0000000000
      1434       449  TIP3      H2             10.7799026477       -5.1081449409      -28.0181330733  SOLV      438             0.0000000000
      1435       450  TIP3      OH2            13.8099197007      -16.9838223037      -23.9040232321  SOLV      439             0.0000000000
      1436       450  TIP3      H1             12.9445783824      -16.7141371777      -24.2479153223  SOLV      439             0.0000000000
      1437       450  TIP3      H2             14.4182155305      -16.6682112804      -24.6044407735  SOLV      439             0.0000000000
      1438       451  TIP3      OH2             6.7398443145      -20.6207909372      -24.0139943361  SOLV      440             0.0000000000
      1439       451  TIP3      H1              6.5401035478      -21.5637503970      -23.8546894105  SOLV      440             0.0000000000
      1440       451  TIP3      H2              5.9654086684      -20.2041874846      -23.5751262294  SOLV      440             0.0000000000
      1441       452  TIP3      OH2             7.8137075180       -5.5380697554      -30.8042047998  SOLV      441             0.0000000000
      1442       452  TIP3      H1              8.3653254020       -6.3261730869      -31.0384647634  SOLV      441             0.0000000000
      1443       452  TIP3      H2              8.3298862075       -4.8265748622      -31.2267251715  SOLV      441             0.0000000000
      1444       453  TIP3      OH2             9.3181134854       -7.6528690238      -31.6282717932  SOLV      442             0.0000000000
      1445       453  TIP3      H1              9.2692196142       -8.4170751462      -32.2297789958  SOLV      442             0.0000000000
      1446       453  TIP3      H2              9.6398568933       -8.0685173510      -30.8002206550  SOLV      442             0.0000000000
      1447       454  TIP3      OH2            13.1317898739       -6.8981338540      -24.1084645764  SOLV      443             0.0000000000
      1448       454  TIP3      H1             13.0049172806       -7.6659158893      -24.7063907403  SOLV      443             0.0000000000
      1449       454  TIP3      H2             12.9490265373       -6.1450142594      -24.7102228552  SOLV      443             0.0000000000
      1450       455  TIP3      OH2             6.0354989613      -12.9582915484      -31.4461387853  SOLV      444             0.0000000000
      1451       455  TIP3      H1              5.2071546443      -12.4583016568      -31.6051464549  SOLV      444             0.0000000000
      1452       455  TIP3      H2              6.4298534836      -12.9728667678      -32.3333193374  SOLV      444             0.0000000000
      1453       456  TIP3      OH2             5.6628705240      -15.3791170701      -34.2698132856  SOLV      445             0.0000000000
      1454       456  TIP3      H1              6.4277860254      -14.8272670260      -34.0072876729  SOLV      445             0.0000000000
      1455       456  TIP3      H2              5.9326531821      -16.2618577883      -33.9979969242  SOLV      445             0.0000000000
      1456       457  TIP3      OH2            15.0798361682      -10.5052912902      -25.6239819352  SOLV      446             0.0000000000
      1457       457  TIP3      H1             14.2435331866       -9.9897397081      -25.5890698040  SOLV      446             0.0000000000
      1458       457  TIP3      H2             15.3874467965      -10.2668563942      -26.5256915458  SOLV      446             0.0000000000
      1459       458  TIP3      OH2             9.4251587792      -12.2493380441      -31.7392511284  SOLV      447             0.0000000000
      1460       458  TIP3      H1              8.9046368591      -11.9375755098      -30.9599065071  SOLV      447             0.0000000000
      1461       458  TIP3      H2             10.2899520143      -12.4357495986      -31.3123424792  SOLV      447             0.0000000000
      1462       459  TIP3      OH2            11.8752755205      -11.7583814035      -22.6157421999  SOLV      448             0.0000000000
      1463       459  TIP3      H1             11.8613017711      -10.9192089551      -22.1158449998  SOLV      448             0.0000000000
      1464       459  TIP3      H2             11.0153523056      -11.7027720386      -23.0796155072  SOLV      448             0.0000000000
      1465       460  TIP3      OH2             1.8325274055      -12.1902890564      -27.6243963524  SOLV      449             0.0000000000
      1466       460  TIP3      H1              1.4546217708      -12.7703310413      -28.3185673350  SOLV      449             0.0000000000
      1467       460  TIP3      H2              2.6138155663      -12.7037775574      -27.3293509962  SOLV      449             0.0000000000
      1468       461  TIP3      OH2             3.1495537054       -7.9945084168      -26.2023253696  SOLV      450             0.0000000000
      1469       461  TIP3      H1              2.9548633148       -8.3315211762      -27.0897618805  SOLV      450             0.0000000000
      1470       461  TIP3      H2              4.0332124520       -8.3762295325      -26.0227481892  SOLV      450             0.0000000000
      1471       462  TIP3      OH2             3.2232845860      -12.4415925543      -24.0895495505  SOLV      451             0.0000000000
      1472       462  TIP3      H1              3.5460134578      -12.6736794519      -24.9847382240  SOLV      451             0.0000000000
      1473       462  TIP3      H2              3.6458977505      -11.5719595886      -23.9252524812  SOLV      451             0.0000000000
      1474       463  TIP3      OH2             8.4943896934       -6.0545826585      -26.3117509462  SOLV      452             0.0000000000
      1475       463  TIP3      H1              8.3454507856       -5.2546400966      -25.7760583974  SOLV      452             0.0000000000
      1476       463  TIP3      H2              8.3248512761       -6.7814769770      -25.6797329705  SOLV      452             0.0000000000
      1477       464  TIP3      OH2             4.6143370879       -6.8813756043      -20.8393521537  SOLV      453             0.0000000000
      1478       464  TIP3      H1              4.0010386188       -6.2655574326      -20.3827838741  SOLV      453             0.0000000000
      1479       464  TIP3      H2              3.9691910943       -7.4077341513      -21.3565053805  SOLV      453             0.0000000000
      1480       465  TIP3      OH2             7.9124421486      -13.6248225834      -33.5120742284  SOLV      454             0.0000000000
      1481       465  TIP3      H1              8.4876419041      -13.1034414734      -32.9020156744  SOLV      454             0.0000000000
      1482       465  TIP3      H2              7.9280490323      -13.0072413949      -34.2781763894  SOLV      454             0.0000000000
      1483       466  TIP3      OH2             2.1654693347      -11.3611390534      -19.7757865246  SOLV      455             0.0000000000
      1484       466  TIP3      H1              2.2179242461      -10.4625962726      -19.3914428784  SOLV      455             0.0000000000
      1485       466  TIP3      H2              1.2101381815      -11.5410753426      -19.6518077630  SOLV      455             0.0000000000
      1486       467  TIP3      OH2             5.3798987561       -6.7866219764      -30.7731395632  SOLV      456             0.0000000000
      1487       467  TIP3      H1              6.2201691531       -6.2975867659      -30.7072360127  SOLV      456             0.0000000000
      1488       467  TIP3      H2              4.8116077813       -6.1656422305      -31.2460730588  SOLV      456             0.0000000000
      1489       468  TIP3      OH2             2.5448326607       -5.2437486817      -19.9725272483  SOLV      457             0.0000000000
      1490       468  TIP3      H1              2.1954732584       -5.2073817120      -20.8806387170  SOLV      457             0.0000000000
      1491       468  TIP3      H2              1.7361375143       -5.4462678988      -19.4468741077  SOLV      457             0.0000000000
      1492       469  TIP3      OH2             0.5494572762      -13.7472592799      -29.6518021708  SOLV      458             0.0000000000
      1493       469  TIP3      H1             -0.1470915135      -13.2639635153      -30.1476200349  SOLV      458             0.0000000000
      1494       469  TIP3      H2              0.0952288159      -14.5712955824      -29.4479995015  SOLV      458             0.0000000000
      1495       470  TIP3      OH2            -1.6678658420       -9.8663677412      -20.5134805128  SOLV      459             0.0000000000
      1496       470  TIP3      H1             -2.3586682397      -10.0553895952      -21.1832688483  SOLV      459             0.0000000000
      1497       470  TIP3      H2             -1.3018374487      -10.7522074242      -20.3237927201  SOLV      459             0.0000000000
      1498       471  TIP3      OH2            -3.1142873669       -7.9428410836      -24.2256880375  SOLV      460             0.0000000000
      1499       471  TIP3      H1             -2.1499249912       -7.9782809528      -24.2826372565  SOLV      460             0.0000000000
      1500       471  TIP3      H2             -3.2478583011       -7.1703359316      -23.6558438673  SOLV      460             0.0000000000
      1501       472  TIP3      OH2            15.5274190564       -3.3966241083      -23.5741149276  SOLV      461             0.0000000000
      1502       472  TIP3      H1             15.5005298041       -4.3583626542      -23.4162369941  SOLV      461             0.0000000000
      1503       472  TIP3      H2             14.6831923680       -3.1278575278      -23.1462753415  SOLV      461             0.0000000000
      1504       473  TIP3      OH2             6.5701658606       -5.5843704163      -22.2821174051  SOLV      462             0.0000000000
      1505       473  TIP3      H1              6.5267028042       -4.6549092458      -21.9674766956  SOLV      462             0.0000000000
      1506       473  TIP3      H2              5.8621851096       -5.9950191523      -21.7369077137  SOLV      462             0.0000000000
      1507       474  TIP3      OH2             4.1240253446       -4.2587189702      -32.8373020948  SOLV      463             0.0000000000
      1508       474  TIP3      H1              3.5053103094       -4.3134920087      -33.5745605523  SOLV      463             0.0000000000
      1509       474  TIP3      H2              3.9416501318       -3.3675210707      -32.4821670135  SOLV      463             0.0000000000
      1510       475  TIP3      OH2            -1.4112388001       -5.8072790684      -28.9215635575  SOLV      464             0.0000000000
      1511       475  TIP3      H1             -0.9651773241       -5.8973512422      -28.0474691307  SOLV      464             0.0000000000
      1512       475  TIP3      H2             -1.8994300552       -6.6463828437      -28.9616639773  SOLV      464             0.0000000000
      1513       476  TIP3      OH2             6.6282623090       -4.9186655098      -33.8764275294  SOLV      465             0.0000000000
      1514       476  TIP3      H1              5.7825702060       -4.7283858325      -33.4268124404  SOLV      465             0.0000000000
      1515       476  TIP3      H2              7.1220923874       -5.3923568717      -33.1963873214  SOLV      465             0.0000000000
      1516       477  TIP3      OH2            14.4119091233      -12.1315626140      -20.8547898048  SOLV      466             0.0000000000
      1517       477  TIP3      H1             13.5686881537      -12.0296699007      -21.3195617296  SOLV      466             0.0000000000
      1518       477  TIP3      H2             14.5678865318      -13.0947939085      -20.9401551280  SOLV      466             0.0000000000
      1519       478  TIP3      OH2             0.3890721829       -8.0499373752      -20.7047817869  SOLV      467             0.0000000000
      1520       478  TIP3      H1              0.8624258452       -8.1933911479      -19.8614231247  SOLV      467             0.0000000000
      1521       478  TIP3      H2             -0.3655391960       -8.6696126346      -20.6161413959  SOLV      467             0.0000000000
      1522       479  TIP3      OH2             4.3674223156      -19.8130886931      -22.7484266100  SOLV      468             0.0000000000
      1523       479  TIP3      H1              3.4823801853      -20.1152884300      -23.0455188179  SOLV      468             0.0000000000
      1524       479  TIP3      H2              4.0995384170      -19.0055504327      -22.2657892377  SOLV      468             0.0000000000
      1525       480  TIP3      OH2             9.7288350700      -18.7221386859      -20.8374959739  SOLV      469             0.0000000000
      1526       480  TIP3      H1             10.4161566181      -18.9382390238      -20.1749628202  SOLV      469             0.0000000000
      1527       480  TIP3      H2              8.8950620112      -18.8787228329      -20.3495438640  SOLV      469             0.0000000000
      1528       481  TIP3      OH2            12.0470955516      -14.3781531800      -21.6579481753  SOLV      470             0.0000000000
      1529       481  TIP3      H1             11.5567167800      -14.3968994107      -20.8054643429  SOLV      470             0.0000000000
      1530       481  TIP3      H2             11.8267372009      -13.4941169607      -22.0108891691  SOLV      470             0.0000000000
      1531       482  TIP3      OH2             5.6109344256      -18.5722619860      -32.9774190410  SOLV      471             0.0000000000
      1532       482  TIP3      H1              5.2802997784      -18.8947913313      -32.1216861264  SOLV      471             0.0000000000
      1533       482  TIP3      H2              5.4671614199      -19.3537565407      -33.5267647590  SOLV      471             0.0000000000
      1534       483  TIP3      OH2             3.7054040944      -14.6578517182      -22.5963320286  SOLV      472             0.0000000000
      1535       483  TIP3      H1              3.1883292845      -14.4720739792      -21.7840530991  SOLV      472             0.0000000000
      1536       483  TIP3      H2              3.5368873109      -13.8376065408      -23.1156765416  SOLV      472             0.0000000000
      1537       484  TIP3      OH2             2.5269854495      -15.7807272674      -27.4380150549  SOLV      473             0.0000000000
      1538       484  TIP3      H1              1.5974911875      -16.0409235907      -27.2608920960  SOLV      473             0.0000000000
      1539       484  TIP3      H2              2.6429740324      -16.1704992228      -28.3348852778  SOLV      473             0.0000000000
      1540       485  TIP3      OH2             7.3982027013      -14.9193703288      -30.0800112296  SOLV      474             0.0000000000
      1541       485  TIP3      H1              6.8989485602      -14.2043091952      -30.5343879892  SOLV      474             0.0000000000
      1542       485  TIP3      H2              7.9630085032      -15.2548099767      -30.8027353169  SOLV      474             0.0000000000
      1543       486  TIP3      OH2             9.1727568413      -12.2127837772      -19.3555079650  SOLV      475             0.0000000000
      1544       486  TIP3      H1              8.9416626872      -12.9275762801      -18.7226629725  SOLV      475             0.0000000000
      1545       486  TIP3      H2             10.1038610604      -12.0540394998      -19.1121273605  SOLV      475             0.0000000000
      1546       487  TIP3      OH2             8.9663366610      -14.6621943973      -27.7669809275  SOLV      476             0.0000000000
      1547       487  TIP3      H1              8.3336711801      -14.3951535810      -28.4666197005  SOLV      476             0.0000000000
      1548       487  TIP3      H2              9.3589247564      -15.4375815765      -28.2260505299  SOLV      476             0.0000000000
      1549       488  TIP3      OH2             1.9048681218      -14.3805729464      -20.5230566435  SOLV      477             0.0000000000
      1550       488  TIP3      H1              2.1135937526      -13.7202187154      -19.8452492998  SOLV      477             0.0000000000
      1551       488  TIP3      H2              1.7539485740      -15.1856361226      -19.9916822437  SOLV      477             0.0000000000
      1552       489  TIP3      OH2             2.1419408042      -19.5536081463      -33.2467325410  SOLV      478             0.0000000000
      1553       489  TIP3      H1              2.1720603541      -19.4331517677      -32.2833513619  SOLV      478             0.0000000000
      1554       489  TIP3      H2              1.5829973313      -18.8252265493      -33.5195166546  SOLV      478             0.0000000000
      1555       490  TIP3      OH2            -2.1437657014      -19.1993391109      -24.6986911360  SOLV      479             0.0000000000
      1556       490  TIP3      H1             -1.4451707269      -18.8416259731      -24.1115208359  SOLV      479             0.0000000000
      1557       490  TIP3      H2             -1.6647901782      -19.4145870751      -25.5050361934  SOLV      479             0.0000000000
      1558       491  TIP3      OH2            -2.2598349806      -19.0551250116      -29.3977650804  SOLV      480             0.0000000000
      1559       491  TIP3      H1             -1.8607293180      -18.6921064193      -30.2177708436  SOLV      480             0.0000000000
      1560       491  TIP3      H2             -2.9263660250      -18.3646654323      -29.2110653241  SOLV      480             0.0000000000
      1561       492  TIP3      OH2             9.1101240369      -12.2294253131      -23.5946441861  SOLV      481             0.0000000000
      1562       492  TIP3      H1              9.4409869753      -12.9442842224      -24.1873785994  SOLV      481             0.0000000000
      1563       492  TIP3      H2              8.7881736716      -12.7669872066      -22.8413620443  SOLV      481             0.0000000000
      1564       493  TIP3      OH2             5.8721613330      -17.5677306441      -26.8260649294  SOLV      482             0.0000000000
      1565       493  TIP3      H1              5.0315343456      -17.5805898372      -26.3223646390  SOLV      482             0.0000000000
      1566       493  TIP3      H2              6.5285793058      -17.5277824988      -26.1131750120  SOLV      482             0.0000000000
      1567       494  TIP3      OH2             0.1384998361      -16.9884712514      -26.8034032806  SOLV      483             0.0000000000
      1568       494  TIP3      H1             -0.8040286217      -16.9078806545      -27.0860900607  SOLV      483             0.0000000000
      1569       494  TIP3      H2              0.3644103288      -17.9022727593      -27.0535766868  SOLV      483             0.0000000000
      1570       495  TIP3      OH2             2.7992547873      -17.0230921028      -29.8373691663  SOLV      484             0.0000000000
      1571       495  TIP3      H1              3.7470106637      -16.8946148989      -30.0386815165  SOLV      484             0.0000000000
      1572       495  TIP3      H2              2.3599606373      -16.8492405251      -30.7015232781  SOLV      484             0.0000000000
      1573       496  TIP3      OH2            10.7137868500      -16.8536536036      -24.9128324656  SOLV      485             0.0000000000
      1574       496  TIP3      H1             10.4754461651      -16.7166949218      -23.9653652630  SOLV      485             0.0000000000
      1575       496  TIP3      H2              9.9768587833      -17.4389858785      -25.1801348884  SOLV      485             0.0000000000
      1576       497  TIP3      OH2             1.3058529333      -16.8297669421      -32.1067887261  SOLV      486             0.0000000000
      1577       497  TIP3      H1              0.3609296522      -16.7935368037      -32.2772792961  SOLV      486             0.0000000000
      1578       497  TIP3      H2              1.7061560226      -16.3791706391      -32.8830335501  SOLV      486             0.0000000000
      1579       498  TIP3      OH2            12.4812377380        0.0609257021      -22.5841314646  SOLV      487             0.0000000000
      1580       498  TIP3      H1             12.4554183071        0.3103104428      -23.5253165295  SOLV      487             0.0000000000
      1581       498  TIP3      H2             13.2877929877        0.5267022966      -22.2829503899  SOLV      487             0.0000000000
      1582       499  TIP3      OH2             2.0044277635       -8.8460695814      -18.4479442466  SOLV      488             0.0000000000
      1583       499  TIP3      H1              2.7921394766       -8.5366044470      -17.9597487196  SOLV      488             0.0000000000
      1584       499  TIP3      H2              1.3429746967       -8.8446144209      -17.7273414552  SOLV      488             0.0000000000
      1585       500  TIP3      OH2             6.6174515092      -14.2768736225      -25.8705281518  SOLV      489             0.0000000000
      1586       500  TIP3      H1              7.3640101263      -14.6580248471      -26.3554626585  SOLV      489             0.0000000000
      1587       500  TIP3      H2              6.6789267820      -14.7141138902      -25.0007269086  SOLV      489             0.0000000000
      1588       501  TIP3      OH2             1.8141109653      -19.4265556401      -27.0418284683  SOLV      490             0.0000000000
      1589       501  TIP3      H1              1.4596011925      -20.1981710857      -26.5461692102  SOLV      490             0.0000000000
      1590       501  TIP3      H2              2.1577014707      -19.8465119880      -27.8398788673  SOLV      490             0.0000000000
      1591       502  TIP3      OH2             6.3852640454      -15.2745058282      -22.9929636292  SOLV      491             0.0000000000
      1592       502  TIP3      H1              5.4800075739      -14.9316191133      -22.8400110711  SOLV      491             0.0000000000
      1593       502  TIP3      H2              6.9448081040      -14.6523895224      -22.4876802682  SOLV      491             0.0000000000
      1594       503  TIP3      OH2             3.7384699136      -11.4974344375      -31.9650114755  SOLV      492             0.0000000000
      1595       503  TIP3      H1              2.9944336810      -12.1214021483      -32.1225081189  SOLV      492             0.0000000000
      1596       503  TIP3      H2              3.4909323035      -11.1332439145      -31.0781285598  SOLV      492             0.0000000000
      1597       504  TIP3      OH2            12.7353865453       -9.0707119602      -25.7799216764  SOLV      493             0.0000000000
      1598       504  TIP3      H1             12.9844698637       -8.5626999548      -26.5818255297  SOLV      493             0.0000000000
      1599       504  TIP3      H2             11.8789067958       -9.4703262823      -26.0462558470  SOLV      493             0.0000000000
      1600       505  TIP3      OH2             8.2167045005      -17.9999425886      -33.5791964881  SOLV      494             0.0000000000
      1601       505  TIP3      H1              7.2947235436      -18.2400475368      -33.3196980225  SOLV      494             0.0000000000
      1602       505  TIP3      H2              8.3539713017      -17.1561082457      -33.1031905317  SOLV      494             0.0000000000
      1603       506  TIP3      OH2             7.7141591427       -8.2475681147      -22.0329702771  SOLV      495             0.0000000000
      1604       506  TIP3      H1              8.0769464842       -8.3630204734      -21.1471899449  SOLV      495             0.0000000000
      1605       506  TIP3      H2              7.3491251234       -7.3457495104      -22.0003884164  SOLV      495             0.0000000000
      1606       507  TIP3      OH2             8.9871121044      -15.7821998335      -32.2012347262  SOLV      496             0.0000000000
      1607       507  TIP3      H1              9.9365433380      -15.6261290083      -32.0271995383  SOLV      496             0.0000000000
      1608       507  TIP3      H2              8.7469190942      -15.0125074081      -32.7585920719  SOLV      496             0.0000000000
      1609       508  TIP3      OH2             0.7029519540      -11.1628301701      -25.2941435772  SOLV      497             0.0000000000
      1610       508  TIP3      H1              1.0848593519      -11.4662954680      -26.1429838179  SOLV      497             0.0000000000
      1611       508  TIP3      H2              1.1249155755      -11.7617630039      -24.6607548548  SOLV      497             0.0000000000
      1612       509  TIP3      OH2             5.3863781868       -9.8774370554      -33.3589542864  SOLV      498             0.0000000000
      1613       509  TIP3      H1              4.7965873159       -9.0865472809      -33.3974691207  SOLV      498             0.0000000000
      1614       509  TIP3      H2              4.8143518011      -10.4820787117      -32.8318826810  SOLV      498             0.0000000000
      1615       510  TIP3      OH2            -0.4679546452      -12.0396724360      -19.1531354320  SOLV      499             0.0000000000
      1616       510  TIP3      H1             -0.3470276385      -12.1796712980      -18.1939891644  SOLV      499             0.0000000000
      1617       510  TIP3      H2             -1.1997025848      -12.6542920061      -19.3415797572  SOLV      499             0.0000000000
      1618       511  TIP3      OH2             6.7759231839      -10.8178949465      -18.9376908394  SOLV      500             0.0000000000
      1619       511  TIP3      H1              6.1478093375      -11.4166984982      -19.3700655086  SOLV      500             0.0000000000
      1620       511  TIP3      H2              7.6323831568      -11.1799388603      -19.2464747059  SOLV      500             0.0000000000
      1621       512  TIP3      OH2             9.3252771525       -5.6462838017      -23.0651812888  SOLV      501             0.0000000000
      1622       512  TIP3      H1              8.3591004400       -5.6362586960      -22.9444019789  SOLV      501             0.0000000000
      1623       512  TIP3      H2              9.6083506850       -5.1120351128      -22.2917259335  SOLV      501             0.0000000000
      1624       513  TIP3      OH2            15.6250454174       -6.3163583793      -23.1976786590  SOLV      502             0.0000000000
      1625       513  TIP3      H1             14.6480986428       -6.3728926648      -23.2933440755  SOLV      502             0.0000000000
      1626       513  TIP3      H2             15.8945783517       -6.6040148238      -24.0990475451  SOLV      502             0.0000000000
      1627       514  TIP3      OH2            10.3910391002      -10.3985475391      -26.6303529300  SOLV      503             0.0000000000
      1628       514  TIP3      H1              9.4583874956      -10.6517961861      -26.4782663078  SOLV      503             0.0000000000
      1629       514  TIP3      H2             10.7309871826      -11.2156038789      -27.0466265804  SOLV      503             0.0000000000
      1630       515  TIP3      OH2             1.7370548163       -8.1326380109      -28.9608889858  SOLV      504             0.0000000000
      1631       515  TIP3      H1              1.7206509173       -7.3550818856      -29.5446258181  SOLV      504             0.0000000000
      1632       515  TIP3      H2              0.8058510159       -8.3797478303      -28.9391038040  SOLV      504             0.0000000000
      1633       516  TIP3      OH2            -2.5608117382      -15.1487878083      -31.8211289586  SOLV      505             0.0000000000
      1634       516  TIP3      H1             -2.1646462315      -14.2637351030      -31.7007950862  SOLV      505             0.0000000000
      1635       516  TIP3      H2             -3.3740810923      -15.0771447010      -31.2813468879  SOLV      505             0.0000000000
      1636       517  TIP3      OH2             2.9884186854      -10.5279228693      -29.5601237589  SOLV      506             0.0000000000
      1637       517  TIP3      H1              2.6883544037       -9.6159344267      -29.3768447661  SOLV      506             0.0000000000
      1638       517  TIP3      H2              2.6154679311      -11.0112690581      -28.8005578882  SOLV      506             0.0000000000
      1639       518  TIP3      OH2             4.4250634283       -4.7398304380      -24.3445583081  SOLV      507             0.0000000000
      1640       518  TIP3      H1              4.8374430587       -4.0080390505      -24.8473199869  SOLV      507             0.0000000000
      1641       518  TIP3      H2              5.1931591470       -5.0982307966      -23.8714696181  SOLV      507             0.0000000000
      1642       519  TIP3      OH2             0.8383521014       -5.7290739450      -30.5623326568  SOLV      508             0.0000000000
      1643       519  TIP3      H1              0.0007852119       -5.7013317752      -30.0552906738  SOLV      508             0.0000000000
      1644       519  TIP3      H2              1.1419015600       -4.8008083859      -30.4734008247  SOLV      508             0.0000000000
      1645       520  TIP3      OH2             8.2285048012       -8.3564295250      -24.7174138597  SOLV      509             0.0000000000
      1646       520  TIP3      H1              8.1226588097       -8.3764263949      -23.7391334120  SOLV      509             0.0000000000
      1647       520  TIP3      H2              9.0236348648       -8.8924802236      -24.8338891309  SOLV      509             0.0000000000
      1648       521  TIP3      OH2            10.7471043838       -3.1091791385      -24.2084223245  SOLV      510             0.0000000000
      1649       521  TIP3      H1              9.9473588389       -3.6658959818      -24.2594938878  SOLV      510             0.0000000000
      1650       521  TIP3      H2             10.5834954944       -2.4746818057      -24.9415257133  SOLV      510             0.0000000000
      1651       522  TIP3      OH2             1.5655928907      -16.9460397009      -19.1056262194  SOLV      511             0.0000000000
      1652       522  TIP3      H1              0.5974765123      -16.8818489208      -18.9894873980  SOLV      511             0.0000000000
      1653       522  TIP3      H2              1.8203274693      -17.4822083350      -18.3386880954  SOLV      511             0.0000000000
      1654       523  TIP3      OH2             9.6194512857      -10.0065249373      -33.3143373563  SOLV      512             0.0000000000
      1655       523  TIP3      H1              9.5777385685      -10.7883818802      -32.7263272464  SOLV      512             0.0000000000
      1656       523  TIP3      H2             10.4714509054      -10.1369256494      -33.7461504880  SOLV      512             0.0000000000
      1657       524  TIP3      OH2            -1.2111127411       -6.1057372032      -22.7746040706  SOLV      513             0.0000000000
      1658       524  TIP3      H1             -0.6719328307       -6.8154658137      -22.3906146643  SOLV      513             0.0000000000
      1659       524  TIP3      H2             -1.0011524203       -5.3702746008      -22.1863548469  SOLV      513             0.0000000000
      1660       525  TIP3      OH2             0.9055387037       -9.4856839345      -32.7797992702  SOLV      514             0.0000000000
      1661       525  TIP3      H1              1.7936295188       -9.8352660792      -32.7028004388  SOLV      514             0.0000000000
      1662       525  TIP3      H2              1.0721656526       -8.5345818654      -32.9446053505  SOLV      514             0.0000000000
      1663       526  TIP3      OH2            -1.5286047395      -12.6576922438      -31.1095316456  SOLV      515             0.0000000000
      1664       526  TIP3      H1             -2.1880378596      -12.1529233586      -30.5875729963  SOLV      515             0.0000000000
      1665       526  TIP3      H2             -1.3412522137      -12.0210704136      -31.8246849723  SOLV      515             0.0000000000
      1666       527  TIP3      OH2            10.0922596943      -16.3820667144      -22.3017226448  SOLV      516             0.0000000000
      1667       527  TIP3      H1             10.8227723021      -15.9155478785      -21.8612854351  SOLV      516             0.0000000000
      1668       527  TIP3      H2              9.9405501514      -17.1548431176      -21.7190149540  SOLV      516             0.0000000000
      1669       528  TIP3      OH2             8.5741031501      -18.5820259820      -30.3599336570  SOLV      517             0.0000000000
      1670       528  TIP3      H1              8.4901325569      -18.5717840518      -31.3215997161  SOLV      517             0.0000000000
      1671       528  TIP3      H2              9.1167121613      -17.7938324443      -30.1686414469  SOLV      517             0.0000000000
      1672       529  TIP3      OH2             3.7450601882       -7.7840362857      -33.6470279475  SOLV      518             0.0000000000
      1673       529  TIP3      H1              2.9213905455       -7.3083883341      -33.4192412127  SOLV      518             0.0000000000
      1674       529  TIP3      H2              3.9661939271       -7.4214770574      -34.5182782647  SOLV      518             0.0000000000
      1675       530  TIP3      OH2             5.5964925365      -16.9245357039      -29.5173585964  SOLV      519             0.0000000000
      1676       530  TIP3      H1              6.2486800005      -16.2174041902      -29.7155931279  SOLV      519             0.0000000000
      1677       530  TIP3      H2              5.6785376344      -16.9835614695      -28.5438601287  SOLV      519             0.0000000000
      1678       531  TIP3      OH2             8.3749617189      -13.8441430261      -21.5065788860  SOLV      520             0.0000000000
      1679       531  TIP3      H1              8.5993810050      -13.2797618519      -20.7372571447  SOLV      520             0.0000000000
      1680       531  TIP3      H2              8.9035527984      -14.6386491368      -21.3375737542  SOLV      520             0.0000000000
      1681       532  TIP3      OH2             7.0012092526      -19.6284388280      -28.4107807883  SOLV      521             0.0000000000
      1682       532  TIP3      H1              6.7451653402      -18.8244856874      -27.9125047369  SOLV      521             0.0000000000
      1683       532  TIP3      H2              7.6107531251      -19.2310928600      -29.0832743101  SOLV      521             0.0000000000
      1684       533  TIP3      OH2             1.2979740584       -6.7024112406      -33.0810826558  SOLV      522             0.0000000000
      1685       533  TIP3      H1              1.0919973009       -5.8973211516      -33.5682020472  SOLV      522             0.0000000000
      1686       533  TIP3      H2              1.1355865053       -6.4204186146      -32.1527196279  SOLV      522             0.0000000000
      1687       534  TIP3      OH2             2.1975887126      -19.6839843725      -30.4290235276  SOLV      523             0.0000000000
      1688       534  TIP3      H1              2.1816012872      -18.7596821185      -30.1113852030  SOLV      523             0.0000000000
      1689       534  TIP3      H2              3.1693015305      -19.8273507501      -30.4536245588  SOLV      523             0.0000000000
      1690       535  TIP3      OH2            14.7048537068      -14.8075401659      -21.6482569439  SOLV      524             0.0000000000
      1691       535  TIP3      H1             13.7222539123      -14.8077032009      -21.5957547588  SOLV      524             0.0000000000
      1692       535  TIP3      H2             14.8279747532      -15.2719721988      -22.4855067012  SOLV      524             0.0000000000
      1693       536  TIP3      OH2            11.2469805649      -12.8813227274      -27.7270788420  SOLV      525             0.0000000000
      1694       536  TIP3      H1             10.4618499298      -13.4431267897      -27.5998353274  SOLV      525             0.0000000000
      1695       536  TIP3      H2             11.9383416570      -13.3730511429      -27.2357792248  SOLV      525             0.0000000000
      1696       537  TIP3      OH2            -1.6247681896      -10.5216280732      -33.0480575284  SOLV      526             0.0000000000
      1697       537  TIP3      H1             -0.8012800695      -10.0061201675      -32.8996283569  SOLV      526             0.0000000000
      1698       537  TIP3      H2             -1.2758461789      -11.1608237741      -33.7087486201  SOLV      526             0.0000000000
      1699       538  TIP3      OH2            -1.9689579889      -17.7811252211      -31.8255136193  SOLV      527             0.0000000000
      1700       538  TIP3      H1             -2.1488518486      -16.8126948777      -31.8695139309  SOLV      527             0.0000000000
      1701       538  TIP3      H2             -2.7169220404      -18.1336571485      -32.3182708703  SOLV      527             0.0000000000
      1702       539  TIP3      OH2            10.8475967958       -3.3027183756      -28.3831721502  SOLV      528             0.0000000000
      1703       539  TIP3      H1             10.4191003656       -2.7545026411      -29.0741858564  SOLV      528             0.0000000000
      1704       539  TIP3      H2             11.7794549460       -3.0009392145      -28.5043754509  SOLV      528             0.0000000000
      1705       540  TIP3      OH2             1.7472573044      -20.6216647515      -23.0842982391  SOLV      529             0.0000000000
      1706       540  TIP3      H1              1.4248335889      -20.9464187876      -23.9518499576  SOLV      529             0.0000000000
      1707       540  TIP3      H2              1.6154972253      -21.4063087777      -22.5126936243  SOLV      529             0.0000000000
      1708       541  TIP3      OH2            -2.8996696908       -8.3837735888      -29.2370059686  SOLV      530             0.0000000000
      1709       541  TIP3      H1             -3.5554831153       -8.1149932272      -28.5825056619  SOLV      530             0.0000000000
      1710       541  TIP3      H2             -3.2585605519       -7.9860916530      -30.0585800827  SOLV      530             0.0000000000
      1711       542  TIP3      OH2            -1.2763337847       -2.9094572305      -18.5516617896  SOLV      531             0.0000000000
      1712       542  TIP3      H1             -0.4276627208       -2.8942838102      -18.0539919902  SOLV      531             0.0000000000
      1713       542  TIP3      H2             -1.4828856084       -3.8585247738      -18.5310986716  SOLV      531             0.0000000000
      1714       543  TIP3      OH2             3.4479891083       -3.4255185971      -18.0754753358  SOLV      532             0.0000000000
      1715       543  TIP3      H1              4.3991085391       -3.5857772815      -18.0142845544  SOLV      532             0.0000000000
      1716       543  TIP3      H2              3.2007287076       -4.0501889298      -18.7879322221  SOLV      532             0.0000000000
      1717       544  TIP3      OH2             9.8664318063       -4.2944827718      -20.7409051434  SOLV      533             0.0000000000
      1718       544  TIP3      H1              9.8198995945       -4.9953725423      -20.0504933383  SOLV      533             0.0000000000
      1719       544  TIP3      H2             10.6375488308       -3.7709755178      -20.4464083268  SOLV      533             0.0000000000
      1720       545  TIP3      OH2            -0.0161514613       -8.9205776492      -16.5362971517  SOLV      534             0.0000000000
      1721       545  TIP3      H1              0.1309124086       -9.8812798622      -16.4600021610  SOLV      534             0.0000000000
      1722       545  TIP3      H2             -0.8970742122       -8.8887698654      -16.9699346727  SOLV      534             0.0000000000
      1723       546  TIP3      OH2            -0.2258900473      -12.4164229692      -34.3752731690  SOLV      535             0.0000000000
      1724       546  TIP3      H1              0.5942503059      -12.6520948348      -33.9132884388  SOLV      535             0.0000000000
      1725       546  TIP3      H2              0.0595148949      -11.7798625251      -35.0541840918  SOLV      535             0.0000000000
      1726       547  TIP3      OH2             6.0626230770       -8.0473730510      -18.7806014695  SOLV      536             0.0000000000
      1727       547  TIP3      H1              5.6335535948       -7.8378198742      -19.6345522742  SOLV      536             0.0000000000
      1728       547  TIP3      H2              6.3708257316       -8.9684860644      -18.9122290228  SOLV      536             0.0000000000
      1729       548  TIP3      OH2            10.9736387650       -7.9261901093      -22.6958047264  SOLV      537             0.0000000000
      1730       548  TIP3      H1             11.7322528801       -7.5026867687      -23.1419960791  SOLV      537             0.0000000000
      1731       548  TIP3      H2             10.2808912896       -7.2544803927      -22.8470522803  SOLV      537             0.0000000000
      1732       549  TIP3      OH2             1.1836809238      -11.5530550536      -16.6503522114  SOLV      538             0.0000000000
      1733       549  TIP3      H1              1.9635781631      -12.0353472344      -16.9444286303  SOLV      538             0.0000000000
      1734       549  TIP3      H2              1.4697978495      -11.2360589497      -15.7676224674  SOLV      538             0.0000000000
      1735       550  TIP3      OH2             1.8366232339      -13.4136142302      -32.4069827398  SOLV      539             0.0000000000
      1736       550  TIP3      H1              1.5122592039      -13.7830117359      -31.5687889657  SOLV      539             0.0000000000
      1737       550  TIP3      H2              2.1618529839      -14.1999816679      -32.8878723640  SOLV      539             0.0000000000
      1738       551  TIP3      OH2             4.5644145883      -12.7410998263      -20.0527364082  SOLV      540             0.0000000000
      1739       551  TIP3      H1              3.7656748997      -12.1712221228      -20.0238579415  SOLV      540             0.0000000000
      1740       551  TIP3      H2              5.0198408907      -12.4076034422      -20.8581303331  SOLV      540             0.0000000000
      1741       552  TIP3      OH2             2.8432005666      -15.5175993286      -34.0054477604  SOLV      541             0.0000000000
      1742       552  TIP3      H1              2.7111516902      -15.7101834123      -34.9434394851  SOLV      541             0.0000000000
      1743       552  TIP3      H2              3.8193182128      -15.4230714022      -33.9848094531  SOLV      541             0.0000000000
      1744       553  TIP3      OH2             9.6907880959       -8.7401315376      -18.7700032276  SOLV      542             0.0000000000
      1745       553  TIP3      H1             10.4788994963       -9.0498151024      -19.2264564403  SOLV      542             0.0000000000
      1746       553  TIP3      H2              9.6292534642       -9.3625683114      -18.0215684971  SOLV      542             0.0000000000
      1747       554  TIP3      OH2             5.7927380728      -14.8524183131      -18.8447455402  SOLV      543             0.0000000000
      1748       554  TIP3      H1              5.7773962384      -15.6253276283      -19.4427273823  SOLV      543             0.0000000000
      1749       554  TIP3      H2              5.3508538411      -14.1623344030      -19.3911099404  SOLV      543             0.0000000000
      1750       555  TIP3      OH2             5.8079636099      -17.0009499633      -20.7581614399  SOLV      544             0.0000000000
      1751       555  TIP3      H1              6.0721423483      -16.5702325070      -21.5947134750  SOLV      544             0.0000000000
      1752       555  TIP3      H2              4.8680740637      -17.2208280415      -20.9359006935  SOLV      544             0.0000000000
      1753       556  TIP3      OH2             6.0259722379      -11.6537769499      -22.0413793800  SOLV      545             0.0000000000
      1754       556  TIP3      H1              6.8843773955      -11.4502627222      -22.4221544292  SOLV      545             0.0000000000
      1755       556  TIP3      H2              5.4455153590      -10.9984085381      -22.4901818440  SOLV      545             0.0000000000
      1756       557  TIP3      OH2            11.8424593056      -11.9914863615      -18.2540055019  SOLV      546             0.0000000000
      1757       557  TIP3      H1             12.3432336607      -12.8062759838      -18.1014795715  SOLV      546             0.0000000000
      1758       557  TIP3      H2             12.5257984137      -11.3995196931      -18.6028144318  SOLV      546             0.0000000000
      1759       558  TIP3      OH2            12.2618770364       -9.4581609795      -20.8841854386  SOLV      547             0.0000000000
      1760       558  TIP3      H1             11.6871904080       -8.8859218119      -21.4481312555  SOLV      547             0.0000000000
      1761       558  TIP3      H2             13.1412782810       -9.2371727110      -21.2663116244  SOLV      547             0.0000000000
      1762       559  TIP3      OH2             4.5739630092      -13.8280812623      -16.4885282325  SOLV      548             0.0000000000
      1763       559  TIP3      H1              3.8728185853      -14.4941378130      -16.3325589210  SOLV      548             0.0000000000
      1764       559  TIP3      H2              4.8779060586      -14.0683290000      -17.3841968676  SOLV      548             0.0000000000
      1765       560  TIP3      OH2             7.0960537118      -19.3783082470      -20.0173383934  SOLV      549             0.0000000000
      1766       560  TIP3      H1              6.6240164592      -18.5557687016      -20.2730785020  SOLV      549             0.0000000000
      1767       560  TIP3      H2              6.3937131902      -20.0491915974      -20.1403327836  SOLV      549             0.0000000000
      1768       561  TIP3      OH2             8.3723011946      -14.3790795231      -17.9027745895  SOLV      550             0.0000000000
      1769       561  TIP3      H1              8.1980384482      -14.5025638304      -16.9508754604  SOLV      550             0.0000000000
      1770       561  TIP3      H2              7.4798397274      -14.5904075856      -18.2536103294  SOLV      550             0.0000000000
      1771       562  TIP3      OH2            10.7233025010      -14.8908738621      -19.3719521959  SOLV      551             0.0000000000
      1772       562  TIP3      H1              9.9786143846      -14.8452697373      -18.7399097258  SOLV      551             0.0000000000
      1773       562  TIP3      H2             11.4708207039      -15.1507091553      -18.7947688855  SOLV      551             0.0000000000
      1774       563  TIP3      OH2            13.0350072576      -15.4077066906      -17.8607733480  SOLV      552             0.0000000000
      1775       563  TIP3      H1             13.1768468538      -16.3648104565      -17.7032181464  SOLV      552             0.0000000000
      1776       563  TIP3      H2             12.9863268390      -15.0474044559      -16.9502549075  SOLV      552             0.0000000000
      1777       564  TIP3      OH2             2.9307826111      -16.0159059647      -15.9331164506  SOLV      553             0.0000000000
      1778       564  TIP3      H1              2.9719834898      -16.9315002248      -16.2644879200  SOLV      553             0.0000000000
      1779       564  TIP3      H2              3.2953892219      -16.1279827663      -15.0304840202  SOLV      553             0.0000000000
      1780       565  TIP3      OH2             7.9914724604      -19.3144178496      -17.4212257042  SOLV      554             0.0000000000
      1781       565  TIP3      H1              8.6833530097      -19.9969117659      -17.5281913422  SOLV      554             0.0000000000
      1782       565  TIP3      H2              7.6017323106      -19.3212843161      -18.3197588497  SOLV      554             0.0000000000
      1783       566  TIP3      OH2             8.6943632309      -17.1436411865      -15.8829457479  SOLV      555             0.0000000000
      1784       566  TIP3      H1              8.4566161518      -17.8460021062      -16.5267614916  SOLV      555             0.0000000000
      1785       566  TIP3      H2              7.9232685079      -16.5390418101      -15.9429388718  SOLV      555             0.0000000000
      1786       567  TIP3      OH2            -4.2621221395      -10.9426886947      -32.6084456098  SOLV      556             0.0000000000
      1787       567  TIP3      H1             -3.3499627663      -10.6181381675      -32.8021705678  SOLV      556             0.0000000000
      1788       567  TIP3      H2             -4.2377796361      -11.7946405182      -33.0583371288  SOLV      556             0.0000000000
      1789       568  TIP3      OH2            -5.0844683136       -4.8980845465      -28.5790862689  SOLV      557             0.0000000000
      1790       568  TIP3      H1             -5.7622975685       -5.5085352827      -28.9468442079  SOLV      557             0.0000000000
      1791       568  TIP3      H2             -4.6533838604       -5.4893736153      -27.9236870887  SOLV      557             0.0000000000
      1792       569  TIP3      OH2            -3.7817664155       -6.4366525069      -26.7035315953  SOLV      558             0.0000000000
      1793       569  TIP3      H1             -3.9130883277       -7.1403924288      -26.0451081616  SOLV      558             0.0000000000
      1794       569  TIP3      H2             -3.2587678474       -5.8085857295      -26.1732667147  SOLV      558             0.0000000000
      1795       570  TIP3      OH2            13.2398747095       -2.1152445029      -28.5845603851  SOLV      559             0.0000000000
      1796       570  TIP3      H1             13.5884271606       -1.9335345792      -27.6921205364  SOLV      559             0.0000000000
      1797       570  TIP3      H2             14.0689475352       -2.2045500850      -29.0924191644  SOLV      559             0.0000000000
      1798       571  TIP3      OH2            13.7921004706       -2.2074993092      -25.8367235939  SOLV      560             0.0000000000
      1799       571  TIP3      H1             13.3627730802       -3.0900703617      -25.8618342033  SOLV      560             0.0000000000
      1800       571  TIP3      H2             14.6066613857       -2.4333061333      -25.3625915822  SOLV      560             0.0000000000
      1801       572  TIP3      OH2            14.2692682156       -5.4289672174      -20.1555154765  SOLV      561             0.0000000000
      1802       572  TIP3      H1             13.5517107630       -5.3241596985      -19.4988228551  SOLV      561             0.0000000000
      1803       572  TIP3      H2             14.6961408885       -4.5483903918      -20.1185615831  SOLV      561             0.0000000000
      1804       573  TIP3      OH2            13.9140766020      -12.0129384861      -31.7206642214  SOLV      562             0.0000000000
      1805       573  TIP3      H1             13.0619735247      -12.2187896415      -31.2784629406  SOLV      562             0.0000000000
      1806       573  TIP3      H2             13.9534176448      -11.0602569797      -31.6618058541  SOLV      562             0.0000000000
      1807       574  TIP3      OH2            14.2886404784       -7.7044374559      -27.6203504714  SOLV      563             0.0000000000
      1808       574  TIP3      H1             14.8441251125       -8.3782311751      -28.0572527235  SOLV      563             0.0000000000
      1809       574  TIP3      H2             14.2786435772       -6.9891918650      -28.2844121522  SOLV      563             0.0000000000
      1810       575  TIP3      OH2            12.5208570284       -4.7063403004      -25.6861018478  SOLV      564             0.0000000000
      1811       575  TIP3      H1             11.8135387956       -4.2877523685      -25.1584338863  SOLV      564             0.0000000000
      1812       575  TIP3      H2             12.0125697892       -5.1549078469      -26.3959895625  SOLV      564             0.0000000000
      1813       576  TIP3      OH2            11.6944319689      -12.9677611132      -30.4342488675  SOLV      565             0.0000000000
      1814       576  TIP3      H1             11.7435390554      -13.9342476825      -30.5554432604  SOLV      565             0.0000000000
      1815       576  TIP3      H2             11.5873061500      -12.8735535760      -29.4630584580  SOLV      565             0.0000000000
      1816       577  TIP3      OH2            -1.9293290184      -12.3390826223      -22.9854184901  SOLV      566             0.0000000000
      1817       577  TIP3      H1             -1.9732357278      -12.6810590772      -23.9039820882  SOLV      566             0.0000000000
      1818       577  TIP3      H2             -0.9527440651      -12.3244837938      -22.8473674146  SOLV      566             0.0000000000
      1819       578  TIP3      OH2            14.7322120597       -8.7991348281      -21.8981478759  SOLV      567             0.0000000000
      1820       578  TIP3      H1             15.4362919348       -9.4696425302      -22.0415964352  SOLV      567             0.0000000000
      1821       578  TIP3      H2             14.9826964654       -8.0953743053      -22.5178219467  SOLV      567             0.0000000000
      1822       579  TIP3      OH2            16.5428509432      -10.8190072035      -21.9005453117  SOLV      568             0.0000000000
      1823       579  TIP3      H1             15.8005296101      -11.2879758877      -21.4613658812  SOLV      568             0.0000000000
      1824       579  TIP3      H2             17.2756856718      -11.4405139377      -21.7049974440  SOLV      568             0.0000000000
      1825       580  TIP3      OH2            11.7123961815      -15.5762106823      -31.4968759039  SOLV      569             0.0000000000
      1826       580  TIP3      H1             12.0255766420      -16.5070070229      -31.3442263539  SOLV      569             0.0000000000
      1827       580  TIP3      H2             12.2859712970      -15.3259985765      -32.2325352937  SOLV      569             0.0000000000
      1828       581  TIP3      OH2            13.3721686935      -14.2613000523      -26.5676809964  SOLV      570             0.0000000000
      1829       581  TIP3      H1             14.2143610275      -13.9877443645      -26.9991801521  SOLV      570             0.0000000000
      1830       581  TIP3      H2             13.5123901431      -13.8465404639      -25.6939240504  SOLV      570             0.0000000000
      1831       582  TIP3      OH2            14.0948728476      -12.7217360520      -24.3150665108  SOLV      571             0.0000000000
      1832       582  TIP3      H1             13.3388769012      -12.3840596327      -23.7980723995  SOLV      571             0.0000000000
      1833       582  TIP3      H2             14.4180337190      -11.9007490056      -24.7479301330  SOLV      571             0.0000000000
      1834       583  TIP3      OH2             0.2573616581      -15.4973988089      -16.3024900200  SOLV      572             0.0000000000
      1835       583  TIP3      H1              1.2339824937      -15.5284564851      -16.2158367287  SOLV      572             0.0000000000
      1836       583  TIP3      H2              0.0172328279      -16.3513304157      -15.8923135033  SOLV      572             0.0000000000
      1837       584  TIP3      OH2            18.5943997026      -16.7590337200      -18.7309747302  SOLV      573             0.0000000000
      1838       584  TIP3      H1             19.1953330517      -17.3976552267      -19.1690431413  SOLV      573             0.0000000000
      1839       584  TIP3      H2             18.2904801107      -16.2226322844      -19.4956910403  SOLV      573             0.0000000000
      1840       585  TIP3      OH2            12.3152965966      -18.1245317458      -31.1318398020  SOLV      574             0.0000000000
      1841       585  TIP3      H1             12.7794449285      -18.8791365458      -30.7550019603  SOLV      574             0.0000000000
      1842       585  TIP3      H2             11.7320142703      -18.5774407005      -31.7863156579  SOLV      574             0.0000000000
      1843       586  TIP3      OH2            -0.0977354192      -18.5278480918      -22.9764255353  SOLV      575             0.0000000000
      1844       586  TIP3      H1              0.5296393507      -19.2718615158      -22.8911143095  SOLV      575             0.0000000000
      1845       586  TIP3      H2              0.5141898012      -17.7763200284      -23.0558386886  SOLV      575             0.0000000000
      1846       587  TIP3      OH2            -2.1258114610      -15.8308945987      -22.2382297082  SOLV      576             0.0000000000
      1847       587  TIP3      H1             -1.6266286129      -15.8361147350      -23.0777972935  SOLV      576             0.0000000000
      1848       587  TIP3      H2             -1.8904724058      -14.9700643996      -21.8769386557  SOLV      576             0.0000000000
      1849       588  TIP3      OH2            17.2872596825      -15.4015344517      -20.6840246269  SOLV      577             0.0000000000
      1850       588  TIP3      H1             16.4317156415      -14.9792031762      -20.4704934958  SOLV      577             0.0000000000
      1851       588  TIP3      H2             16.9693981820      -16.1394004604      -21.2421668922  SOLV      577             0.0000000000
      1852       589  TIP3      OH2            -2.2796943868      -20.8255133432      -27.3290429759  SOLV      578             0.0000000000
      1853       589  TIP3      H1             -3.1901368900      -20.7866407630      -26.9911803451  SOLV      578             0.0000000000
      1854       589  TIP3      H2             -2.2669414836      -20.1101461555      -28.0001838402  SOLV      578             0.0000000000
      1855       590  TIP3      OH2             8.9807465953       -3.4068389085      -32.1161672667  SOLV      579             0.0000000000
      1856       590  TIP3      H1              9.2669467816       -3.9860728242      -32.8685689497  SOLV      579             0.0000000000
      1857       590  TIP3      H2              9.8303834698       -3.2159134980      -31.6993842211  SOLV      579             0.0000000000
      1858       591  TIP3      OH2            -0.0636581585      -20.0447121438      -19.1161752368  SOLV      580             0.0000000000
      1859       591  TIP3      H1             -0.5624108796      -20.0330450607      -18.2828736404  SOLV      580             0.0000000000
      1860       591  TIP3      H2             -0.7003663484      -19.5973112770      -19.7109709772  SOLV      580             0.0000000000
      1861       592  TIP3      OH2             0.3371782489       -5.6871087659      -18.3399580929  SOLV      581             0.0000000000
      1862       592  TIP3      H1             -0.6088995927       -5.8870329604      -18.4776089980  SOLV      581             0.0000000000
      1863       592  TIP3      H2              0.4338783151       -5.8414569357      -17.3926999090  SOLV      581             0.0000000000
      1864       593  TIP3      OH2             2.1683198157       -5.3171191519      -22.8375484979  SOLV      582             0.0000000000
      1865       593  TIP3      H1              1.6732715185       -4.5596922351      -23.2108657185  SOLV      582             0.0000000000
      1866       593  TIP3      H2              3.0168712513       -5.1761876375      -23.3070577471  SOLV      582             0.0000000000
      1867       594  TIP3      OH2             6.5190061404       -2.9203826568      -21.4984991489  SOLV      583             0.0000000000
      1868       594  TIP3      H1              6.9333527092       -2.9422545377      -20.6079537087  SOLV      583             0.0000000000
      1869       594  TIP3      H2              7.1809906809       -2.3916277184      -21.9926993043  SOLV      583             0.0000000000
      1870       595  TIP3      OH2             8.3304370909       -1.3567316831      -22.8467092629  SOLV      584             0.0000000000
      1871       595  TIP3      H1              9.0370543420       -1.8775002267      -23.2539871988  SOLV      584             0.0000000000
      1872       595  TIP3      H2              8.8531263436       -0.7847120276      -22.2416063495  SOLV      584             0.0000000000
      1873       596  TIP3      OH2            16.2657365343      -17.7074540838      -21.8560017045  SOLV      585             0.0000000000
      1874       596  TIP3      H1             15.3650720204      -17.8651903911      -22.1853927784  SOLV      585             0.0000000000
      1875       596  TIP3      H2             16.6320174268      -18.6287450586      -21.8898945399  SOLV      585             0.0000000000
      1876       597  TIP3      OH2            -1.1056924841       -2.7614544158      -22.5912142746  SOLV      586             0.0000000000
      1877       597  TIP3      H1             -2.0235599486       -2.4724971258      -22.7996159680  SOLV      586             0.0000000000
      1878       597  TIP3      H2             -0.9610834526       -2.2891175109      -21.7636166754  SOLV      586             0.0000000000
      1879       598  TIP3      OH2             1.2480213794       -2.9779326582      -23.9971972862  SOLV      587             0.0000000000
      1880       598  TIP3      H1              0.3756352371       -2.8731892249      -23.5533358302  SOLV      587             0.0000000000
      1881       598  TIP3      H2              1.0410060021       -2.6729953203      -24.9016186500  SOLV      587             0.0000000000
      1882       599  TIP3      OH2             5.4968230567       -2.7446864004      -26.0212880994  SOLV      588             0.0000000000
      1883       599  TIP3      H1              4.8097308338       -2.5579840937      -26.6847199402  SOLV      588             0.0000000000
      1884       599  TIP3      H2              5.6107807415       -1.8683119881      -25.5978819768  SOLV      588             0.0000000000
      1885       600  TIP3      OH2             8.1838756974       -3.3728610327      -25.4823692871  SOLV      589             0.0000000000
      1886       600  TIP3      H1              7.2491200880       -3.1815949985      -25.6921900623  SOLV      589             0.0000000000
      1887       600  TIP3      H2              8.6420484713       -2.6498407421      -25.9406411636  SOLV      589             0.0000000000
      1888       601  TIP3      OH2            10.2394027835       -1.4971737108      -26.3511454921  SOLV      590             0.0000000000
      1889       601  TIP3      H1             10.0161557563       -0.6386195674      -26.7782449381  SOLV      590             0.0000000000
      1890       601  TIP3      H2             10.4877982076       -2.0451713766      -27.1254541691  SOLV      590             0.0000000000
      1891       602  TIP3      OH2            -1.9911256139       -4.8509173158      -25.1634980552  SOLV      591             0.0000000000
      1892       602  TIP3      H1             -1.7350100129       -5.1581001022      -24.2659793195  SOLV      591             0.0000000000
      1893       602  TIP3      H2             -1.2651090591       -5.2692939869      -25.6791996062  SOLV      591             0.0000000000
      1894       603  TIP3      OH2            -0.0323915051       -6.1040490213      -26.5627529867  SOLV      592             0.0000000000
      1895       603  TIP3      H1              0.0930258252       -6.9565762567      -26.0814643712  SOLV      592             0.0000000000
      1896       603  TIP3      H2              0.8866604736       -5.7652760193      -26.5737583555  SOLV      592             0.0000000000
      1897       604  TIP3      OH2             2.6569579942       -5.2019941926      -26.5104245843  SOLV      593             0.0000000000
      1898       604  TIP3      H1              2.9207195215       -6.1396256028      -26.6007717364  SOLV      593             0.0000000000
      1899       604  TIP3      H2              3.1408703581       -4.9822534008      -25.6913570288  SOLV      593             0.0000000000
      1900       605  TIP3      OH2             8.4843893269      -18.5952422216      -25.5499799709  SOLV      594             0.0000000000
      1901       605  TIP3      H1              7.9639701676      -19.3008618713      -25.1311453435  SOLV      594             0.0000000000
      1902       605  TIP3      H2              9.0736933233      -19.0903635148      -26.1490859836  SOLV      594             0.0000000000
      1903       606  TIP3      OH2            13.4874816524      -19.7578739454      -26.6174934029  SOLV      595             0.0000000000
      1904       606  TIP3      H1             13.8039089015      -19.0349047529      -27.1661241797  SOLV      595             0.0000000000
      1905       606  TIP3      H2             12.5208503486      -19.6922239471      -26.7452159656  SOLV      595             0.0000000000
      1906       607  TIP3      OH2             0.8450105844      -21.5364033383      -25.5487536002  SOLV      596             0.0000000000
      1907       607  TIP3      H1             -0.0725345573      -21.8764984122      -25.4883246694  SOLV      596             0.0000000000
      1908       607  TIP3      H2              1.3384812326      -22.3874697538      -25.5643972540  SOLV      596             0.0000000000
      1909       608  TIP3      OH2            -1.3143192705      -22.8351442799      -28.9532917781  SOLV      597             0.0000000000
      1910       608  TIP3      H1             -0.8118909600      -22.2987590954      -29.6120445454  SOLV      597             0.0000000000
      1911       608  TIP3      H2             -1.5350146459      -22.1434545337      -28.2863816464  SOLV      597             0.0000000000
      1912       609  TIP3      OH2             5.3582856101      -21.3170789364      -26.7632654610  SOLV      598             0.0000000000
      1913       609  TIP3      H1              5.8760342483      -20.7703112784      -27.3795311129  SOLV      598             0.0000000000
      1914       609  TIP3      H2              5.5301421180      -20.8775496202      -25.9223963790  SOLV      598             0.0000000000
      1915       610  TIP3      OH2            10.6789198019      -19.9159560529      -27.0150742716  SOLV      599             0.0000000000
      1916       610  TIP3      H1             10.6315272319      -20.1382156825      -27.9584936244  SOLV      599             0.0000000000
      1917       610  TIP3      H2             10.6286430725      -20.7956761267      -26.5867643579  SOLV      599             0.0000000000
      1918       611  TIP3      OH2            -4.1296115671       -7.1666462721      -31.3089329130  SOLV      600             0.0000000000
      1919       611  TIP3      H1             -4.9897392333       -7.5222169514      -31.6013786907  SOLV      600             0.0000000000
      1920       611  TIP3      H2             -4.2783338315       -6.2191276403      -31.4872085199  SOLV      600             0.0000000000
      1921       612  TIP3      OH2             0.1189962451      -21.5054332386      -30.8885763784  SOLV      601             0.0000000000
      1922       612  TIP3      H1              0.2450455184      -21.5780565875      -31.8364046897  SOLV      601             0.0000000000
      1923       612  TIP3      H2              0.7777735379      -20.8109362706      -30.6652619681  SOLV      601             0.0000000000
      1924       613  TIP3      OH2             4.9267906517      -19.4213888014      -30.4048564577  SOLV      602             0.0000000000
      1925       613  TIP3      H1              5.5825566668      -19.9603088828      -29.9375907067  SOLV      602             0.0000000000
      1926       613  TIP3      H2              5.1857588194      -18.5262784020      -30.0920314815  SOLV      602             0.0000000000
      1927       614  TIP3      OH2             2.8977448350      -18.7732421524      -16.6335654972  SOLV      603             0.0000000000
      1928       614  TIP3      H1              2.5453641918      -19.4701392860      -16.0510434149  SOLV      603             0.0000000000
      1929       614  TIP3      H2              3.8359535300      -18.7577130398      -16.3471501219  SOLV      603             0.0000000000
      1930       615  TIP3      OH2             5.3989099314      -18.7693200698      -15.4360613453  SOLV      604             0.0000000000
      1931       615  TIP3      H1              6.2589818892      -18.9913229647      -15.8306442036  SOLV      604             0.0000000000
      1932       615  TIP3      H2              5.2795839037      -19.4877213759      -14.7831336553  SOLV      604             0.0000000000
      1933       616  TIP3      OH2            -3.2695738017       -6.7225733995      -34.3825278025  SOLV      605             0.0000000000
      1934       616  TIP3      H1             -3.7796010925       -6.1919156504      -33.7534547516  SOLV      605             0.0000000000
      1935       616  TIP3      H2             -3.1052069435       -7.5193840015      -33.8768961013  SOLV      605             0.0000000000
      1936       617  TIP3      OH2            13.6874806069      -18.1150487330      -17.5623164864  SOLV      606             0.0000000000
      1937       617  TIP3      H1             13.8717825243      -18.4110598491      -16.6445934861  SOLV      606             0.0000000000
      1938       617  TIP3      H2             14.5803514508      -18.1609400511      -17.9650531218  SOLV      606             0.0000000000
      1939       618  TIP3      OH2            13.0257662309       -2.6450119386      -22.6194135613  SOLV      607             0.0000000000
      1940       618  TIP3      H1             12.2336019661       -2.9391581144      -23.1147365872  SOLV      607             0.0000000000
      1941       618  TIP3      H2             12.8420010987       -1.6863642968      -22.5489295987  SOLV      607             0.0000000000
      1942       619  TIP3      OH2            18.7477640676      -10.0233724386      -27.5604403442  SOLV      608             0.0000000000
      1943       619  TIP3      H1             19.0259024124      -10.6978762327      -26.9134562523  SOLV      608             0.0000000000
      1944       619  TIP3      H2             19.3345302658       -9.2908458297      -27.3320308498  SOLV      608             0.0000000000
      1945       620  TIP3      OH2            17.7746979612       -6.0597885796      -29.5527919634  SOLV      609             0.0000000000
      1946       620  TIP3      H1             18.2840560320       -6.8611724538      -29.7377959095  SOLV      609             0.0000000000
      1947       620  TIP3      H2             18.2423081325       -5.3872027666      -30.0666514934  SOLV      609             0.0000000000
      1948       621  TIP3      OH2            15.5719953959      -13.9982372711      -32.5253575178  SOLV      610             0.0000000000
      1949       621  TIP3      H1             15.0061442024      -13.2399329348      -32.2426269539  SOLV      610             0.0000000000
      1950       621  TIP3      H2             14.9920539372      -14.4597297302      -33.1451816003  SOLV      610             0.0000000000
      1951       622  TIP3      OH2            16.4368086518      -10.6805570464      -30.5948768091  SOLV      611             0.0000000000
      1952       622  TIP3      H1             16.7248085633      -11.5887480416      -30.3616940174  SOLV      611             0.0000000000
      1953       622  TIP3      H2             16.3849671719      -10.7177129007      -31.5515237270  SOLV      611             0.0000000000
      1954       623  TIP3      OH2            17.4431688323      -13.0668655132      -29.6022658055  SOLV      612             0.0000000000
      1955       623  TIP3      H1             18.2868895720      -13.1993471184      -29.1360786584  SOLV      612             0.0000000000
      1956       623  TIP3      H2             17.5869734667      -13.6524163029      -30.3756129056  SOLV      612             0.0000000000
      1957       624  TIP3      OH2            20.9822060265      -15.1834542780      -26.3376917477  SOLV      613             0.0000000000
      1958       624  TIP3      H1             20.4297313263      -14.7488570470      -27.0108224416  SOLV      613             0.0000000000
      1959       624  TIP3      H2             20.4837127791      -14.9718318706      -25.5180649025  SOLV      613             0.0000000000
      1960       625  TIP3      OH2            22.3299236592       -7.4037278257      -28.4401717835  SOLV      614             0.0000000000
      1961       625  TIP3      H1             21.5468703972       -6.9553916101      -28.0429625457  SOLV      614             0.0000000000
      1962       625  TIP3      H2             22.8983171959       -6.6366054758      -28.5637654881  SOLV      614             0.0000000000
      1963       626  TIP3      OH2            19.8579296770      -14.1028998506      -28.6775193816  SOLV      615             0.0000000000
      1964       626  TIP3      H1             20.4607810641      -13.3752429068      -28.3857527729  SOLV      615             0.0000000000
      1965       626  TIP3      H2             20.1874024141      -14.2688293265      -29.5732568880  SOLV      615             0.0000000000
      1966       627  TIP3      OH2            20.5381831627       -5.6636355457      -27.3595659778  SOLV      616             0.0000000000
      1967       627  TIP3      H1             20.3661708742       -4.7520670540      -27.6835963112  SOLV      616             0.0000000000
      1968       627  TIP3      H2             19.7114584084       -5.7873396963      -26.8435320506  SOLV      616             0.0000000000
      1969       628  TIP3      OH2            21.7141575357      -10.0157501000      -29.2370074722  SOLV      617             0.0000000000
      1970       628  TIP3      H1             21.5876503951       -9.9580752440      -30.1885715160  SOLV      617             0.0000000000
      1971       628  TIP3      H2             21.8650093953       -9.0734396999      -29.0028764233  SOLV      617             0.0000000000
      1972       629  TIP3      OH2            22.5689879808       -4.3796082873      -25.9314547503  SOLV      618             0.0000000000
      1973       629  TIP3      H1             22.0041479485       -3.7156388838      -25.4798480107  SOLV      618             0.0000000000
      1974       629  TIP3      H2             21.8831109902       -4.9043508264      -26.3902164772  SOLV      618             0.0000000000
      1975       630  TIP3      OH2            20.0963838590       -8.7573135858      -24.9942999713  SOLV      619             0.0000000000
      1976       630  TIP3      H1             20.1721333176       -7.8795510411      -24.5633111115  SOLV      619             0.0000000000
      1977       630  TIP3      H2             19.1654322162       -8.9692625862      -24.7756056247  SOLV      619             0.0000000000
      1978       631  TIP3      OH2            20.5407875660       -2.6945667617      -25.0592930424  SOLV      620             0.0000000000
      1979       631  TIP3      H1             20.2411844766       -2.6980474836      -25.9883964575  SOLV      620             0.0000000000
      1980       631  TIP3      H2             19.7079215176       -2.8826713579      -24.5697590964  SOLV      620             0.0000000000
      1981       632  TIP3      OH2            16.2850674443       -7.3149412345      -25.6233733075  SOLV      621             0.0000000000
      1982       632  TIP3      H1             15.6133742202       -7.4864526980      -26.3153525630  SOLV      621             0.0000000000
      1983       632  TIP3      H2             16.6438989649       -8.2041899686      -25.4405777528  SOLV      621             0.0000000000
      1984       633  TIP3      OH2            15.0523483380       -5.5972397522      -29.4314616628  SOLV      622             0.0000000000
      1985       633  TIP3      H1             16.0197628906       -5.7979106946      -29.4334180417  SOLV      622             0.0000000000
      1986       633  TIP3      H2             15.0639231995       -4.7825039125      -28.9019031251  SOLV      622             0.0000000000
      1987       634  TIP3      OH2            24.4056937524       -2.9789464083      -27.4629237329  SOLV      623             0.0000000000
      1988       634  TIP3      H1             24.3415648628       -2.0972442052      -27.0316049810  SOLV      623             0.0000000000
      1989       634  TIP3      H2             23.8187125130       -3.5063048578      -26.8780096456  SOLV      623             0.0000000000
      1990       635  TIP3      OH2            18.3299141971       -5.5046467948      -25.7976624220  SOLV      624             0.0000000000
      1991       635  TIP3      H1             18.8078709780       -5.6355973813      -24.9552755426  SOLV      624             0.0000000000
      1992       635  TIP3      H2             17.5770972074       -6.1265562098      -25.7058621276  SOLV      624             0.0000000000
      1993       636  TIP3      OH2            22.3696249958      -17.0901786039      -27.7333575475  SOLV      625             0.0000000000
      1994       636  TIP3      H1             21.6755277688      -17.4256100396      -28.3148138319  SOLV      625             0.0000000000
      1995       636  TIP3      H2             21.8847100977      -16.4384108989      -27.1861445273  SOLV      625             0.0000000000
      1996       637  TIP3      OH2            21.5725163481      -12.2232125043      -27.7343034233  SOLV      626             0.0000000000
      1997       637  TIP3      H1             21.0637460945      -11.9628348962      -26.9391568174  SOLV      626             0.0000000000
      1998       637  TIP3      H2             21.5885576168      -11.3742077523      -28.2457104163  SOLV      626             0.0000000000
      1999       638  TIP3      OH2            19.8680208819      -11.8300075913      -25.6115427383  SOLV      627             0.0000000000
      2000       638  TIP3      H1             20.1049508866      -11.1757565408      -24.9375288053  SOLV      627             0.0000000000
      2001       638  TIP3      H2             19.7227758257      -12.6317248708      -25.0714795301  SOLV      627             0.0000000000
      2002       639  TIP3      OH2            18.0876011192      -14.6382489068      -31.7979772998  SOLV      628             0.0000000000
      2003       639  TIP3      H1             17.1693359371      -14.4166274420      -32.0859973117  SOLV      628             0.0000000000
      2004       639  TIP3      H2             18.3579117964      -15.2485352088      -32.4906939271  SOLV      628             0.0000000000
      2005       640  TIP3      OH2            19.9821538686       -6.3088626545      -23.5682560629  SOLV      629             0.0000000000
      2006       640  TIP3      H1             20.7734026197       -5.9804412602      -23.0968520937  SOLV      629             0.0000000000
      2007       640  TIP3      H2             19.3259907153       -6.2775617925      -22.8442458023  SOLV      629             0.0000000000
      2008       641  TIP3      OH2            25.0778141899      -12.4285482093      -30.6668710213  SOLV      630             0.0000000000
      2009       641  TIP3      H1             24.3563928193      -11.9352128938      -31.1094778747  SOLV      630             0.0000000000
      2010       641  TIP3      H2             24.7688161865      -12.5513152952      -29.7996946386  SOLV      630             0.0000000000
      2011       642  TIP3      OH2            24.2665072607      -12.6085251858      -27.8513143542  SOLV      631             0.0000000000
      2012       642  TIP3      H1             23.3146616894      -12.4053633083      -27.7869789261  SOLV      631             0.0000000000
      2013       642  TIP3      H2             24.6641395773      -11.8679004740      -27.3885596354  SOLV      631             0.0000000000
      2014       643  TIP3      OH2            25.5063372105       -5.9320725997      -27.0875597799  SOLV      632             0.0000000000
      2015       643  TIP3      H1             25.6803692331       -5.7542772890      -26.1566274363  SOLV      632             0.0000000000
      2016       643  TIP3      H2             25.6285424847       -5.0568243073      -27.4801177465  SOLV      632             0.0000000000
      2017       644  TIP3      OH2            19.2437353281       -8.5196361124      -30.2194508531  SOLV      633             0.0000000000
      2018       644  TIP3      H1             18.5723559746       -8.5265848431      -30.9139382422  SOLV      633             0.0000000000
      2019       644  TIP3      H2             19.0049013347       -9.3151094671      -29.7025979278  SOLV      633             0.0000000000
      2020       645  TIP3      OH2            17.5117297414       -9.4889703827      -24.2852609711  SOLV      634             0.0000000000
      2021       645  TIP3      H1             17.6565823810       -9.6014517619      -23.3247901632  SOLV      634             0.0000000000
      2022       645  TIP3      H2             16.7797971968      -10.1129637328      -24.4361160078  SOLV      634             0.0000000000
      2023       646  TIP3      OH2            24.6792723893       -8.4516806390      -24.0591595674  SOLV      635             0.0000000000
      2024       646  TIP3      H1             23.9338493392       -8.9404472835      -24.4446151302  SOLV      635             0.0000000000
      2025       646  TIP3      H2             25.3609870625       -9.1501617406      -24.0552162711  SOLV      635             0.0000000000
      2026       647  TIP3      OH2            27.1030227528       -3.4498803031      -28.1182177937  SOLV      636             0.0000000000
      2027       647  TIP3      H1             26.2092540633       -3.0943249633      -27.9491897909  SOLV      636             0.0000000000
      2028       647  TIP3      H2             27.6712797353       -2.7797536800      -27.7096483398  SOLV      636             0.0000000000
      2029       648  TIP3      OH2            22.4413384752       -2.4054477685      -29.4206507413  SOLV      637             0.0000000000
      2030       648  TIP3      H1             22.6830304972       -1.5351273598      -29.7591712251  SOLV      637             0.0000000000
      2031       648  TIP3      H2             23.2157107847       -2.6209141012      -28.8630317724  SOLV      637             0.0000000000
      2032       649  TIP3      OH2            19.5206284332      -14.3581645838      -24.1612745006  SOLV      638             0.0000000000
      2033       649  TIP3      H1             18.5598316022      -14.3339589777      -24.0006227147  SOLV      638             0.0000000000
      2034       649  TIP3      H2             19.8373945334      -14.8916519337      -23.4114010389  SOLV      638             0.0000000000
      2035       650  TIP3      OH2            16.9144885671       -3.6626008759      -27.5741668692  SOLV      639             0.0000000000
      2036       650  TIP3      H1             17.4195210134       -4.4088397315      -27.2022449439  SOLV      639             0.0000000000
      2037       650  TIP3      H2             17.2193259201       -2.9338921104      -27.0263925954  SOLV      639             0.0000000000
      2038       651  TIP3      OH2            16.6762671477       -0.3487265906      -23.6435519687  SOLV      640             0.0000000000
      2039       651  TIP3      H1             17.5382198431       -0.3176604411      -23.1670264144  SOLV      640             0.0000000000
      2040       651  TIP3      H2             16.5098841396       -1.3045607718      -23.6619371830  SOLV      640             0.0000000000
      2041       652  TIP3      OH2            21.4094989550       -0.8817665437      -23.1715585354  SOLV      641             0.0000000000
      2042       652  TIP3      H1             22.3649748120       -1.0291871373      -23.1165424322  SOLV      641             0.0000000000
      2043       652  TIP3      H2             21.1729327454       -1.5009980284      -23.8917174183  SOLV      641             0.0000000000
      2044       653  TIP3      OH2            27.6173145019       -1.6370463122      -25.6605236439  SOLV      642             0.0000000000
      2045       653  TIP3      H1             27.4243268401       -2.4005926618      -25.0723188146  SOLV      642             0.0000000000
      2046       653  TIP3      H2             28.5246295777       -1.8117986452      -25.9342657400  SOLV      642             0.0000000000
      2047       654  TIP3      OH2            17.9456593431       -6.3541067456      -21.6633034078  SOLV      643             0.0000000000
      2048       654  TIP3      H1             18.0881752019       -7.3137004026      -21.5829810036  SOLV      643             0.0000000000
      2049       654  TIP3      H2             17.0664510890       -6.3185528348      -22.0995525068  SOLV      643             0.0000000000
      2050       655  TIP3      OH2            24.0305703104       -5.5848549184      -23.9322757586  SOLV      644             0.0000000000
      2051       655  TIP3      H1             23.5936808602       -5.2950549281      -24.7580852378  SOLV      644             0.0000000000
      2052       655  TIP3      H2             24.2938976055       -6.5057346658      -24.1220051908  SOLV      644             0.0000000000
      2053       656  TIP3      OH2            19.1660334341       -9.0214175643      -21.8024867674  SOLV      645             0.0000000000
      2054       656  TIP3      H1             19.9662856502       -9.4918747593      -22.0607166757  SOLV      645             0.0000000000
      2055       656  TIP3      H2             19.4237489588       -8.6804542816      -20.9194877203  SOLV      645             0.0000000000
      2056       657  TIP3      OH2            22.5004202344      -10.1328977914      -25.2023438747  SOLV      646             0.0000000000
      2057       657  TIP3      H1             21.6995567179       -9.5703377444      -25.2039672584  SOLV      646             0.0000000000
      2058       657  TIP3      H2             22.9630334203       -9.8465621939      -26.0230351581  SOLV      646             0.0000000000
      2059       658  TIP3      OH2            23.5698341410      -12.2722994370      -23.8789405515  SOLV      647             0.0000000000
      2060       658  TIP3      H1             23.5974841033      -13.0880835183      -24.4241648917  SOLV      647             0.0000000000
      2061       658  TIP3      H2             23.1512641099      -11.6279150810      -24.4899970408  SOLV      647             0.0000000000
      2062       659  TIP3      OH2            23.5605465622      -14.3777766134      -25.6932434210  SOLV      648             0.0000000000
      2063       659  TIP3      H1             23.8998031111      -14.0243836902      -26.5367477461  SOLV      648             0.0000000000
      2064       659  TIP3      H2             22.6787312303      -14.7143487036      -25.9524220687  SOLV      648             0.0000000000
      2065       660  TIP3      OH2            24.0255839179       -9.3091918430      -27.2780171807  SOLV      649             0.0000000000
      2066       660  TIP3      H1             24.8694705714       -9.1725423638      -27.7307435400  SOLV      649             0.0000000000
      2067       660  TIP3      H2             23.4777363443       -8.6021361616      -27.6701215961  SOLV      649             0.0000000000
      2068       661  TIP3      OH2            22.4958172058      -11.2253018666      -21.5918643615  SOLV      650             0.0000000000
      2069       661  TIP3      H1             21.8250756989      -11.9120784048      -21.4002728284  SOLV      650             0.0000000000
      2070       661  TIP3      H2             22.8333666458      -11.5340163408      -22.4582310126  SOLV      650             0.0000000000
      2071       662  TIP3      OH2            24.9834419691      -16.6437039163      -24.9021723410  SOLV      651             0.0000000000
      2072       662  TIP3      H1             24.4918800632      -15.8056076555      -25.0078657036  SOLV      651             0.0000000000
      2073       662  TIP3      H2             24.2513662937      -17.2975871447      -24.8755435661  SOLV      651             0.0000000000
      2074       663  TIP3      OH2            25.9644847735      -10.8963000047      -23.4453409113  SOLV      652             0.0000000000
      2075       663  TIP3      H1             26.5752766581      -11.4626688909      -22.9535647548  SOLV      652             0.0000000000
      2076       663  TIP3      H2             25.1433633905      -11.4335424656      -23.4174854304  SOLV      652             0.0000000000
      2077       664  TIP3      OH2            20.8865603599      -13.4228690192      -21.0335185237  SOLV      653             0.0000000000
      2078       664  TIP3      H1             20.9402198461      -14.3348810363      -21.3793974105  SOLV      653             0.0000000000
      2079       664  TIP3      H2             21.2732010134      -13.5492868137      -20.1415569020  SOLV      653             0.0000000000
      2080       665  TIP3      OH2            26.2873633261      -14.9225900140      -21.5279722999  SOLV      654             0.0000000000
      2081       665  TIP3      H1             25.7918686316      -15.6645360443      -21.8882924229  SOLV      654             0.0000000000
      2082       665  TIP3      H2             25.5891411220      -14.3115112055      -21.2026811750  SOLV      654             0.0000000000
      2083       666  TIP3      OH2            13.8969095801       -4.0006771090      -31.4546750660  SOLV      655             0.0000000000
      2084       666  TIP3      H1             13.9738728989       -4.6108550254      -30.7083298994  SOLV      655             0.0000000000
      2085       666  TIP3      H2             14.5224861607       -3.3149842322      -31.1606082436  SOLV      655             0.0000000000
      2086       667  TIP3      OH2            16.0733460449       -9.7688701375      -28.0860597033  SOLV      656             0.0000000000
      2087       667  TIP3      H1             16.0635562922      -10.0475791772      -29.0336909367  SOLV      656             0.0000000000
      2088       667  TIP3      H2             17.0448535486       -9.7887919600      -27.9349055287  SOLV      656             0.0000000000
      2089       668  TIP3      OH2            18.2229941169      -12.9308455960      -21.4695161597  SOLV      657             0.0000000000
      2090       668  TIP3      H1             19.1993518757      -12.9542814564      -21.3632547238  SOLV      657             0.0000000000
      2091       668  TIP3      H2             17.9867850461      -13.7839201716      -21.0523211346  SOLV      657             0.0000000000
      2092       669  TIP3      OH2            17.8649737083      -16.1580217170      -28.1447975269  SOLV      658             0.0000000000
      2093       669  TIP3      H1             18.5004930215      -16.7561922168      -27.7411017436  SOLV      658             0.0000000000
      2094       669  TIP3      H2             18.4065659334      -15.3903389382      -28.3718053965  SOLV      658             0.0000000000
      2095       670  TIP3      OH2            15.8184112681      -13.3048041146      -27.3390829557  SOLV      659             0.0000000000
      2096       670  TIP3      H1             16.2822533758      -13.2601051139      -28.2009167942  SOLV      659             0.0000000000
      2097       670  TIP3      H2             16.0228806590      -12.4405988921      -26.9666382906  SOLV      659             0.0000000000
      2098       671  TIP3      OH2            17.8058701719      -17.4642486536      -24.2636183355  SOLV      660             0.0000000000
      2099       671  TIP3      H1             17.3421688628      -17.4755669764      -23.4095408221  SOLV      660             0.0000000000
      2100       671  TIP3      H2             17.1556923971      -16.9840972142      -24.8169065542  SOLV      660             0.0000000000
      2101       672  TIP3      OH2            18.2929170409       -3.1493174151      -23.4947422058  SOLV      661             0.0000000000
      2102       672  TIP3      H1             17.3393874508       -3.3328395295      -23.6042069450  SOLV      661             0.0000000000
      2103       672  TIP3      H2             18.4040244243       -3.2403255723      -22.5412605342  SOLV      661             0.0000000000
      2104       673  TIP3      OH2            20.2553678712       -3.0172066219      -27.8550239590  SOLV      662             0.0000000000
      2105       673  TIP3      H1             19.6486157462       -2.3296082205      -28.2194458163  SOLV      662             0.0000000000
      2106       673  TIP3      H2             21.0473285953       -2.8165455336      -28.3987266575  SOLV      662             0.0000000000
      2107       674  TIP3      OH2            24.2727650734       -0.4529788500      -26.4395640993  SOLV      663             0.0000000000
      2108       674  TIP3      H1             24.6779807286       -0.4320344111      -25.5460700427  SOLV      663             0.0000000000
      2109       674  TIP3      H2             24.9660888042        0.0262751775      -26.9492183090  SOLV      663             0.0000000000
      2110       675  TIP3      OH2            26.3426051080        0.8925069079      -27.6380902618  SOLV      664             0.0000000000
      2111       675  TIP3      H1             27.1836908349        0.9568199892      -28.1154173232  SOLV      664             0.0000000000
      2112       675  TIP3      H2             26.5596516875        1.4908566735      -26.9038680216  SOLV      664             0.0000000000
      2113       676  TIP3      OH2            16.6628073072       -0.0813132499      -27.5906985064  SOLV      665             0.0000000000
      2114       676  TIP3      H1             15.7471896422        0.2055758391      -27.8116454747  SOLV      665             0.0000000000
      2115       676  TIP3      H2             16.8661332955        0.5105909738      -26.8574803981  SOLV      665             0.0000000000
      2116       677  TIP3      OH2            18.8961930012       -0.9501361678      -28.9006565924  SOLV      666             0.0000000000
      2117       677  TIP3      H1             18.0535189154       -0.6092391540      -28.5218901904  SOLV      666             0.0000000000
      2118       677  TIP3      H2             18.8917812658       -0.5872011660      -29.8031311215  SOLV      666             0.0000000000
      2119       678  TIP3      OH2            15.6163612355       -2.6395136790      -29.7454377711  SOLV      667             0.0000000000
      2120       678  TIP3      H1             16.2322379248       -2.9164059546      -29.0297400364  SOLV      667             0.0000000000
      2121       678  TIP3      H2             16.2167819472       -2.1239885550      -30.3348476964  SOLV      667             0.0000000000
      2122       679  TIP3      OH2            20.8494861232      -16.1358248390      -21.7707054140  SOLV      668             0.0000000000
      2123       679  TIP3      H1             20.5044698830      -16.8817252445      -21.2495124491  SOLV      668             0.0000000000
      2124       679  TIP3      H2             21.7984594111      -16.1766642751      -21.5237841707  SOLV      668             0.0000000000
      2125       680  TIP3      OH2            23.3361473154      -16.2893943422      -20.5423315416  SOLV      669             0.0000000000
      2126       680  TIP3      H1             24.1249201880      -16.7185253794      -20.9163274041  SOLV      669             0.0000000000
      2127       680  TIP3      H2             23.0887379364      -16.9245793239      -19.8418639763  SOLV      669             0.0000000000
      2128       681  TIP3      OH2           -31.5869321473        1.4025136931      -19.3952219298  SOLV      670             0.0000000000
      2129       681  TIP3      H1            -31.3673205068        1.3236567489      -18.4500921952  SOLV      670             0.0000000000
      2130       681  TIP3      H2            -32.1682010291        0.6294741652      -19.5043395798  SOLV      670             0.0000000000
      2131       682  TIP3      OH2           -29.0994363467        4.4460116336      -22.4052979483  SOLV      671             0.0000000000
      2132       682  TIP3      H1            -29.4130099909        3.8923087546      -21.6829547629  SOLV      671             0.0000000000
      2133       682  TIP3      H2            -28.9478170005        5.3005352994      -21.9715070292  SOLV      671             0.0000000000
      2134       683  TIP3      OH2           -33.6447262465        3.6795539735      -18.2659384811  SOLV      672             0.0000000000
      2135       683  TIP3      H1            -33.8172997833        3.3787301108      -19.1701690205  SOLV      672             0.0000000000
      2136       683  TIP3      H2            -32.6914663050        3.9056104876      -18.3061544599  SOLV      672             0.0000000000
      2137       684  TIP3      OH2           -23.6837392433       -3.0291378110      -18.9766004371  SOLV      673             0.0000000000
      2138       684  TIP3      H1            -23.3732547706       -2.1856080088      -18.6065294095  SOLV      673             0.0000000000
      2139       684  TIP3      H2            -23.2645682538       -3.0411326949      -19.8562912386  SOLV      673             0.0000000000
      2140       685  TIP3      OH2           -29.5472741973       -1.1896711420      -18.5285977855  SOLV      674             0.0000000000
      2141       685  TIP3      H1            -29.2286834925       -2.1055168295      -18.4284924008  SOLV      674             0.0000000000
      2142       685  TIP3      H2            -30.0651822533       -1.2503345501      -19.3549990096  SOLV      674             0.0000000000
      2143       686  TIP3      OH2           -29.1724868870       -3.1072298152      -22.2883707243  SOLV      675             0.0000000000
      2144       686  TIP3      H1            -28.3527867671       -3.5148498943      -21.9295771712  SOLV      675             0.0000000000
      2145       686  TIP3      H2            -29.5905812643       -3.8466873552      -22.7543084211  SOLV      675             0.0000000000
      2146       687  TIP3      OH2           -23.0136939452       -0.5479793129      -17.3189292518  SOLV      676             0.0000000000
      2147       687  TIP3      H1            -23.9795821785       -0.3933434118      -17.3224575801  SOLV      676             0.0000000000
      2148       687  TIP3      H2            -22.8591100634       -0.6396506291      -16.4074628761  SOLV      676             0.0000000000
      2149       688  TIP3      OH2           -36.2682708240       -4.8874567296      -14.6200782475  SOLV      677             0.0000000000
      2150       688  TIP3      H1            -37.0820438010       -4.8361681617      -15.1371155665  SOLV      677             0.0000000000
      2151       688  TIP3      H2            -36.5903985558       -4.5676853123      -13.7461889358  SOLV      677             0.0000000000
      2152       689  TIP3      OH2           -35.5838796863        3.3072266970      -16.4550448663  SOLV      678             0.0000000000
      2153       689  TIP3      H1            -35.6685343547        4.2179005131      -16.1691247482  SOLV      678             0.0000000000
      2154       689  TIP3      H2            -34.9503551645        3.4172375859      -17.2067089389  SOLV      678             0.0000000000
      2155       690  TIP3      OH2           -27.0764148197       -3.9031730193      -20.6434016767  SOLV      679             0.0000000000
      2156       690  TIP3      H1            -27.5369603253       -3.8748010504      -19.7904907709  SOLV      679             0.0000000000
      2157       690  TIP3      H2            -26.5737573821       -3.0691303194      -20.6238918601  SOLV      679             0.0000000000
      2158       691  TIP3      OH2           -28.6119006673        6.8897473649      -20.8308616850  SOLV      680             0.0000000000
      2159       691  TIP3      H1            -29.5188472244        6.8166445258      -20.4549321632  SOLV      680             0.0000000000
      2160       691  TIP3      H2            -28.6273334612        7.7986906500      -21.1726628316  SOLV      680             0.0000000000
      2161       692  TIP3      OH2           -25.7252613194       -3.8873242294      -17.1988554427  SOLV      681             0.0000000000
      2162       692  TIP3      H1            -26.6209264427       -3.7173547407      -17.5372405532  SOLV      681             0.0000000000
      2163       692  TIP3      H2            -25.1628810486       -3.6613593156      -17.9736934001  SOLV      681             0.0000000000
      2164       693  TIP3      OH2           -26.4088853020        6.0355737264      -17.4211425229  SOLV      682             0.0000000000
      2165       693  TIP3      H1            -26.5404743520        5.2949260038      -18.0508700730  SOLV      682             0.0000000000
      2166       693  TIP3      H2            -26.5845046901        6.8174249021      -17.9904537161  SOLV      682             0.0000000000
      2167       694  TIP3      OH2           -24.4911144223        2.5196956238      -19.0451988083  SOLV      683             0.0000000000
      2168       694  TIP3      H1            -25.3219956781        3.0458214988      -19.0256781937  SOLV      683             0.0000000000
      2169       694  TIP3      H2            -24.1099645131        2.8165024128      -19.8924234704  SOLV      683             0.0000000000
      2170       695  TIP3      OH2           -30.3818179069        0.6587547574      -24.1058498285  SOLV      684             0.0000000000
      2171       695  TIP3      H1            -30.5834937851        1.5588652453      -23.8557206062  SOLV      684             0.0000000000
      2172       695  TIP3      H2            -29.4272075582        0.5955553555      -23.9877532687  SOLV      684             0.0000000000
      2173       696  TIP3      OH2           -27.6630166197        1.2656650118      -15.9989534645  SOLV      685             0.0000000000
      2174       696  TIP3      H1            -27.7017042570        2.0995454411      -15.4921241250  SOLV      685             0.0000000000
      2175       696  TIP3      H2            -28.5412420731        1.2827627641      -16.4385231883  SOLV      685             0.0000000000
      2176       697  TIP3      OH2           -35.0439506976        0.5880518788      -17.0601865416  SOLV      686             0.0000000000
      2177       697  TIP3      H1            -35.5689493410        0.3940797283      -17.8514348418  SOLV      686             0.0000000000
      2178       697  TIP3      H2            -35.3202661568        1.5044790434      -16.8864231815  SOLV      686             0.0000000000
      2179       698  TIP3      OH2           -31.0261811546        6.9297326545      -19.6113922396  SOLV      687             0.0000000000
      2180       698  TIP3      H1            -31.1193614987        7.7333700018      -19.0764172301  SOLV      687             0.0000000000
      2181       698  TIP3      H2            -31.0809472224        6.2049429483      -18.9546026795  SOLV      687             0.0000000000
      2182       699  TIP3      OH2           -24.0432971111        9.6134463006      -16.9198313635  SOLV      688             0.0000000000
      2183       699  TIP3      H1            -24.0455441119        8.6538939164      -16.7523348048  SOLV      688             0.0000000000
      2184       699  TIP3      H2            -24.8652004004        9.8757524361      -16.4465565566  SOLV      688             0.0000000000
      2185       700  TIP3      OH2           -32.9120275835        7.4202422713      -15.5572509288  SOLV      689             0.0000000000
      2186       700  TIP3      H1            -32.7479219183        8.3516221383      -15.2988562433  SOLV      689             0.0000000000
      2187       700  TIP3      H2            -33.8775389198        7.4641047391      -15.6147438542  SOLV      689             0.0000000000
      2188       701  TIP3      OH2           -25.1466436556        0.8572894661      -14.2332053788  SOLV      690             0.0000000000
      2189       701  TIP3      H1            -26.0176433344        0.9668793309      -14.6424483998  SOLV      690             0.0000000000
      2190       701  TIP3      H2            -25.0021381843       -0.1016938067      -14.3249907419  SOLV      690             0.0000000000
      2191       702  TIP3      OH2           -29.7742709661       -5.3685258575      -13.9976975043  SOLV      691             0.0000000000
      2192       702  TIP3      H1            -29.0663239964       -5.7631979871      -13.4490335718  SOLV      691             0.0000000000
      2193       702  TIP3      H2            -30.5813448639       -5.7499281629      -13.6020537112  SOLV      691             0.0000000000
      2194       703  TIP3      OH2           -27.4147058858       -1.3093356140      -14.9616217447  SOLV      692             0.0000000000
      2195       703  TIP3      H1            -27.9212337963       -1.3644127684      -14.1181299569  SOLV      692             0.0000000000
      2196       703  TIP3      H2            -27.7168027591       -0.4606554705      -15.3376924206  SOLV      692             0.0000000000
      2197       704  TIP3      OH2           -35.8011714908       -1.8403533665      -15.9993372049  SOLV      693             0.0000000000
      2198       704  TIP3      H1            -36.1201913916       -1.4818867868      -15.1540022728  SOLV      693             0.0000000000
      2199       704  TIP3      H2            -35.6314153367       -0.9876536468      -16.4735931072  SOLV      693             0.0000000000
      2200       705  TIP3      OH2           -30.3209446511        0.8115686951      -12.6724616600  SOLV      694             0.0000000000
      2201       705  TIP3      H1            -30.5624583219        0.0731628655      -12.0685981576  SOLV      694             0.0000000000
      2202       705  TIP3      H2            -29.3812529264        0.9322437200      -12.4350327342  SOLV      694             0.0000000000
      2203       706  TIP3      OH2           -30.6764595642       -1.3241073692      -21.0240900646  SOLV      695             0.0000000000
      2204       706  TIP3      H1            -31.0398666024       -0.8185548900      -21.7625137077  SOLV      695             0.0000000000
      2205       706  TIP3      H2            -30.1971703457       -2.0451041313      -21.5115467245  SOLV      695             0.0000000000
      2206       707  TIP3      OH2           -30.3123482090        0.8319899506      -16.9234143757  SOLV      696             0.0000000000
      2207       707  TIP3      H1            -30.0197820539        0.1152639129      -17.5336966342  SOLV      696             0.0000000000
      2208       707  TIP3      H2            -30.6896449933        0.2946590934      -16.1971330791  SOLV      696             0.0000000000
      2209       708  TIP3      OH2           -28.7251651477       -3.8735956876      -18.1972833570  SOLV      697             0.0000000000
      2210       708  TIP3      H1            -29.0679083647       -3.6934182375      -17.2911668764  SOLV      697             0.0000000000
      2211       708  TIP3      H2            -29.3944251022       -4.5297891636      -18.5002521500  SOLV      697             0.0000000000
      2212       709  TIP3      OH2           -27.0929464318       13.0684117481      -15.9168470778  SOLV      698             0.0000000000
      2213       709  TIP3      H1            -27.1069026962       13.3364505158      -16.8525366596  SOLV      698             0.0000000000
      2214       709  TIP3      H2            -26.2911140377       13.5321149384      -15.5969940038  SOLV      698             0.0000000000
      2215       710  TIP3      OH2           -32.8224990688       -1.1178342211      -19.0916793148  SOLV      699             0.0000000000
      2216       710  TIP3      H1            -32.2723636871       -1.6200687599      -19.7103658991  SOLV      699             0.0000000000
      2217       710  TIP3      H2            -32.8485783401       -1.6937337395      -18.3071891874  SOLV      699             0.0000000000
      2218       711  TIP3      OH2           -33.0790562673       -2.2721540008      -16.3715608932  SOLV      700             0.0000000000
      2219       711  TIP3      H1            -33.9831764672       -1.9588803566      -16.1728914319  SOLV      700             0.0000000000
      2220       711  TIP3      H2            -32.5163788827       -1.6375554855      -15.8878313551  SOLV      700             0.0000000000
      2221       712  TIP3      OH2           -26.8243869047        3.9435326352      -19.1868141149  SOLV      701             0.0000000000
      2222       712  TIP3      H1            -26.6356154000        4.4686603134      -19.9887634064  SOLV      701             0.0000000000
      2223       712  TIP3      H2            -27.6858111966        3.5276628486      -19.4150547736  SOLV      701             0.0000000000
      2224       713  TIP3      OH2           -31.7833125787        4.8501542930      -15.3813959690  SOLV      702             0.0000000000
      2225       713  TIP3      H1            -31.5008240097        4.6534120749      -14.4783745840  SOLV      702             0.0000000000
      2226       713  TIP3      H2            -32.1997268849        5.7281155195      -15.2828428614  SOLV      702             0.0000000000
      2227       714  TIP3      OH2           -32.6665309583        2.1649709541      -12.3070069453  SOLV      703             0.0000000000
      2228       714  TIP3      H1            -33.0496857495        1.9835313169      -13.1905491917  SOLV      703             0.0000000000
      2229       714  TIP3      H2            -31.7709302570        1.7895736562      -12.4495440573  SOLV      703             0.0000000000
      2230       715  TIP3      OH2           -30.2017425776        7.5016574701      -16.4934666458  SOLV      704             0.0000000000
      2231       715  TIP3      H1            -31.1363745441        7.3441584702      -16.2714002284  SOLV      704             0.0000000000
      2232       715  TIP3      H2            -29.9066927268        7.9703073818      -15.6808867754  SOLV      704             0.0000000000
      2233       716  TIP3      OH2           -25.9273043490       -2.1982292895      -27.1245359203  SOLV      705             0.0000000000
      2234       716  TIP3      H1            -26.3956393849       -2.8521466723      -27.6823918823  SOLV      705             0.0000000000
      2235       716  TIP3      H2            -26.2402296891       -1.3520461707      -27.5236845602  SOLV      705             0.0000000000
      2236       717  TIP3      OH2           -23.9164510310        6.6528932664      -16.5491945186  SOLV      706             0.0000000000
      2237       717  TIP3      H1            -24.8936612191        6.6083947423      -16.6462311600  SOLV      706             0.0000000000
      2238       717  TIP3      H2            -23.6452674409        6.3587417409      -17.4470490681  SOLV      706             0.0000000000
      2239       718  TIP3      OH2           -29.1309062535        2.5889965710      -19.9697333503  SOLV      707             0.0000000000
      2240       718  TIP3      H1            -30.0430744035        2.2736793474      -19.7903161859  SOLV      707             0.0000000000
      2241       718  TIP3      H2            -28.7575719681        1.7864247020      -20.3881700511  SOLV      707             0.0000000000
      2242       719  TIP3      OH2           -31.0611929059        4.6261204608      -18.0227874354  SOLV      708             0.0000000000
      2243       719  TIP3      H1            -31.2237725170        4.6441817287      -17.0508778807  SOLV      708             0.0000000000
      2244       719  TIP3      H2            -30.2690191730        4.0753410480      -18.0780291158  SOLV      708             0.0000000000
      2245       720  TIP3      OH2           -28.8048313076        9.9823538078      -17.6401068395  SOLV      709             0.0000000000
      2246       720  TIP3      H1            -29.5255864712        9.3228775602      -17.6488797571  SOLV      709             0.0000000000
      2247       720  TIP3      H2            -29.0680599911       10.5756393554      -18.3653079501  SOLV      709             0.0000000000
      2248       721  TIP3      OH2           -29.4727172525       -3.2107032486      -15.6214442067  SOLV      710             0.0000000000
      2249       721  TIP3      H1            -28.6803711128       -2.7979799815      -15.2408787886  SOLV      710             0.0000000000
      2250       721  TIP3      H2            -29.6299656577       -3.9564884276      -14.9972650041  SOLV      710             0.0000000000
      2251       722  TIP3      OH2           -31.2144864918       -0.7382610362      -14.8652809333  SOLV      711             0.0000000000
      2252       722  TIP3      H1            -30.9289981328       -0.2382027152      -14.0713988164  SOLV      711             0.0000000000
      2253       722  TIP3      H2            -30.6953854930       -1.5569705239      -14.7790476610  SOLV      711             0.0000000000
      2254       723  TIP3      OH2           -24.8164989415       -1.8487204950      -15.3374791900  SOLV      712             0.0000000000
      2255       723  TIP3      H1            -25.7786776359       -1.7126469680      -15.1471629168  SOLV      712             0.0000000000
      2256       723  TIP3      H2            -24.8958386722       -2.6190903574      -15.9145207977  SOLV      712             0.0000000000
      2257       724  TIP3      OH2           -28.2582972984        0.1609173674      -21.0772718724  SOLV      713             0.0000000000
      2258       724  TIP3      H1            -29.0595084724       -0.3678857579      -20.9092141868  SOLV      713             0.0000000000
      2259       724  TIP3      H2            -27.5751237351       -0.3756139425      -20.6210671951  SOLV      713             0.0000000000
      2260       725  TIP3      OH2           -28.2815059304        9.6760908764      -21.1820431273  SOLV      714             0.0000000000
      2261       725  TIP3      H1            -28.8367110200        9.7179361589      -21.9878820374  SOLV      714             0.0000000000
      2262       725  TIP3      H2            -27.3781654581        9.8615679422      -21.5396476667  SOLV      714             0.0000000000
      2263       726  TIP3      OH2           -29.6705290122        8.7416440168      -14.1142255550  SOLV      715             0.0000000000
      2264       726  TIP3      H1            -29.7132624521        8.0287764975      -13.4347072180  SOLV      715             0.0000000000
      2265       726  TIP3      H2            -28.8977929516        9.2588049416      -13.8077538398  SOLV      715             0.0000000000
      2266       727  TIP3      OH2           -33.3009296535        4.9093875420      -12.4275260198  SOLV      716             0.0000000000
      2267       727  TIP3      H1            -33.9406347391        4.6320265632      -13.0859785443  SOLV      716             0.0000000000
      2268       727  TIP3      H2            -32.9406022573        4.0493434223      -12.1376199004  SOLV      716             0.0000000000
      2269       728  TIP3      OH2           -28.5942889647        5.0860962881      -16.0580871861  SOLV      717             0.0000000000
      2270       728  TIP3      H1            -27.8069807998        5.4857908874      -16.4786784025  SOLV      717             0.0000000000
      2271       728  TIP3      H2            -29.2621933642        5.7723780253      -16.2284520015  SOLV      717             0.0000000000
      2272       729  TIP3      OH2           -35.2638314938        0.0348468109      -13.6893604470  SOLV      718             0.0000000000
      2273       729  TIP3      H1            -35.4679483238        0.6765459979      -12.9979309945  SOLV      718             0.0000000000
      2274       729  TIP3      H2            -34.6508064916        0.5468831457      -14.2564069442  SOLV      718             0.0000000000
      2275       730  TIP3      OH2           -29.8677350960        4.2490051891      -12.1294153271  SOLV      719             0.0000000000
      2276       730  TIP3      H1            -29.0723673440        3.9639680706      -12.5899764371  SOLV      719             0.0000000000
      2277       730  TIP3      H2            -29.8917652620        3.6351719995      -11.3706777978  SOLV      719             0.0000000000
      2278       731  TIP3      OH2           -33.7411761170       -1.8240996278      -12.3004081805  SOLV      720             0.0000000000
      2279       731  TIP3      H1            -33.7215282759       -2.6725334192      -12.7898815726  SOLV      720             0.0000000000
      2280       731  TIP3      H2            -34.3069200836       -1.2884921593      -12.8938946663  SOLV      720             0.0000000000
      2281       732  TIP3      OH2           -33.7095844968       -3.9428104264      -14.1829688740  SOLV      721             0.0000000000
      2282       732  TIP3      H1            -33.3868712446       -3.5510819764      -15.0157385414  SOLV      721             0.0000000000
      2283       732  TIP3      H2            -34.5872580130       -4.2903213464      -14.4592558002  SOLV      721             0.0000000000
      2284       733  TIP3      OH2           -33.4062152196        1.6933643172      -14.9024974087  SOLV      722             0.0000000000
      2285       733  TIP3      H1            -32.7330855895        1.2444529321      -15.4294287468  SOLV      722             0.0000000000
      2286       733  TIP3      H2            -33.8379194673        2.2372316575      -15.5818944166  SOLV      722             0.0000000000
      2287       734  TIP3      OH2           -27.7011691056        1.0165642264      -11.6025346790  SOLV      723             0.0000000000
      2288       734  TIP3      H1            -27.2411660088        0.1766096962      -11.4520444515  SOLV      723             0.0000000000
      2289       734  TIP3      H2            -26.9878049684        1.5827665794      -11.9307370391  SOLV      723             0.0000000000
      2290       735  TIP3      OH2           -27.2962487945        3.5507019735      -14.2495422018  SOLV      724             0.0000000000
      2291       735  TIP3      H1            -27.8760364030        4.1226477056      -14.8071826476  SOLV      724             0.0000000000
      2292       735  TIP3      H2            -26.4182876049        3.7758756109      -14.6324499884  SOLV      724             0.0000000000
      2293       736  TIP3      OH2           -34.7100661209       -0.4880570742      -10.0160607254  SOLV      725             0.0000000000
      2294       736  TIP3      H1            -35.3194284364       -1.2016019168       -9.7057093925  SOLV      725             0.0000000000
      2295       736  TIP3      H2            -34.3703648951       -0.8915105788      -10.8420793349  SOLV      725             0.0000000000
      2296       737  TIP3      OH2           -32.4407320677       -6.2270432215      -13.3110213300  SOLV      726             0.0000000000
      2297       737  TIP3      H1            -32.9005489016       -5.3911485974      -13.5560110869  SOLV      726             0.0000000000
      2298       737  TIP3      H2            -32.9081198683       -6.8625165137      -13.8678458545  SOLV      726             0.0000000000
      2299       738  TIP3      OH2           -31.1825808600       -1.3582086760      -11.2816378997  SOLV      727             0.0000000000
      2300       738  TIP3      H1            -31.3589568699       -1.5410042153      -10.3388148079  SOLV      727             0.0000000000
      2301       738  TIP3      H2            -32.0623239171       -1.5731072300      -11.6593275504  SOLV      727             0.0000000000
      2302       739  TIP3      OH2           -28.7937750339       -1.8120504879      -12.7145774630  SOLV      728             0.0000000000
      2303       739  TIP3      H1            -29.5565397169       -1.8391273232      -12.1041387439  SOLV      728             0.0000000000
      2304       739  TIP3      H2            -28.0643650821       -2.1406723960      -12.1500343847  SOLV      728             0.0000000000
      2305       740  TIP3      OH2           -26.4879271372       -2.3873604642      -11.2300126382  SOLV      729             0.0000000000
      2306       740  TIP3      H1            -26.3548190192       -3.3499615535      -11.0863173887  SOLV      729             0.0000000000
      2307       740  TIP3      H2            -26.5492113823       -2.0465384331      -10.3130649063  SOLV      729             0.0000000000
      2308       741  TIP3      OH2           -31.5859456521       -6.3176514772      -10.7138967642  SOLV      730             0.0000000000
      2309       741  TIP3      H1            -30.8788128594       -6.9844711282      -10.8312273034  SOLV      730             0.0000000000
      2310       741  TIP3      H2            -31.9536073196       -6.2990661296      -11.6246328564  SOLV      730             0.0000000000
      2311       742  TIP3      OH2           -30.7881703097       -4.1435718206       -9.2521261577  SOLV      731             0.0000000000
      2312       742  TIP3      H1            -31.0300537763       -4.8769714284       -9.8594775672  SOLV      731             0.0000000000
      2313       742  TIP3      H2            -31.5801528809       -3.5685609858       -9.3042589383  SOLV      731             0.0000000000
      2314       743  TIP3      OH2           -25.8201840399       10.3799042301      -21.9989618413  SOLV      732             0.0000000000
      2315       743  TIP3      H1            -25.3795896522       10.9305512855      -21.3347894974  SOLV      732             0.0000000000
      2316       743  TIP3      H2            -25.5786477624       10.8357335184      -22.8301347402  SOLV      732             0.0000000000
      2317       744  TIP3      OH2           -25.6836537277       10.8063384924      -19.0376144355  SOLV      733             0.0000000000
      2318       744  TIP3      H1            -26.0948456780        9.9370969617      -19.2065753094  SOLV      733             0.0000000000
      2319       744  TIP3      H2            -24.9567147581       10.5309310818      -18.4520126364  SOLV      733             0.0000000000
      2320       745  TIP3      OH2           -25.2942611981        7.5888725721      -13.5411267986  SOLV      734             0.0000000000
      2321       745  TIP3      H1            -25.9995110192        7.6951357489      -12.8709442354  SOLV      734             0.0000000000
      2322       745  TIP3      H2            -24.8488757741        8.4603653714      -13.4905782956  SOLV      734             0.0000000000
      2323       746  TIP3      OH2           -26.7320882872        2.8447440914      -27.4089658809  SOLV      735             0.0000000000
      2324       746  TIP3      H1            -25.9269911544        3.3012233351      -27.7322955320  SOLV      735             0.0000000000
      2325       746  TIP3      H2            -26.4233893575        2.4411146105      -26.5663091522  SOLV      735             0.0000000000
      2326       747  TIP3      OH2           -25.7871278279        1.4380469262      -25.3043016944  SOLV      736             0.0000000000
      2327       747  TIP3      H1            -26.4800663830        1.0275207571      -24.7365859384  SOLV      736             0.0000000000
      2328       747  TIP3      H2            -25.1274411652        1.7381381654      -24.6462624028  SOLV      736             0.0000000000
      2329       748  TIP3      OH2           -25.1810427080        5.3620500682      -21.0029030437  SOLV      737             0.0000000000
      2330       748  TIP3      H1            -24.8972313685        4.7737838802      -21.7095134720  SOLV      737             0.0000000000
      2331       748  TIP3      H2            -25.3030405357        6.2008328071      -21.4955591248  SOLV      737             0.0000000000
      2332       749  TIP3      OH2           -26.9520598685        8.2491468358      -18.9098845866  SOLV      738             0.0000000000
      2333       749  TIP3      H1            -27.6475127254        8.7743556269      -18.4720912382  SOLV      738             0.0000000000
      2334       749  TIP3      H2            -27.4357204980        7.8575265010      -19.6613580669  SOLV      738             0.0000000000
      2335       750  TIP3      OH2           -26.8374419850        0.1439923307      -28.1202747327  SOLV      739             0.0000000000
      2336       750  TIP3      H1            -27.8074919156        0.0315242688      -28.1389431571  SOLV      739             0.0000000000
      2337       750  TIP3      H2            -26.7938076496        1.0789124909      -27.8207643572  SOLV      739             0.0000000000
      2338       751  TIP3      OH2           -27.6009244937        0.0664321834      -23.7705420882  SOLV      740             0.0000000000
      2339       751  TIP3      H1            -27.4303322219       -0.8872912323      -23.9647747861  SOLV      740             0.0000000000
      2340       751  TIP3      H2            -27.7547805435        0.0549507034      -22.8112191051  SOLV      740             0.0000000000
      2341       752  TIP3      OH2           -24.8251037877        4.2151187055      -15.2473195497  SOLV      741             0.0000000000
      2342       752  TIP3      H1            -24.1193853779        3.5467265710      -15.3914798253  SOLV      741             0.0000000000
      2343       752  TIP3      H2            -24.5509222796        4.9463616943      -15.8265714652  SOLV      741             0.0000000000
      2344       753  TIP3      OH2           -23.0592187916        2.1598415104      -15.3337442190  SOLV      742             0.0000000000
      2345       753  TIP3      H1            -23.7816294128        1.6939649003      -14.8615444692  SOLV      742             0.0000000000
      2346       753  TIP3      H2            -22.3033014878        1.5750196578      -15.1180559317  SOLV      742             0.0000000000
      2347       754  TIP3      OH2           -26.9279662660       -2.5147885541      -24.5725973581  SOLV      743             0.0000000000
      2348       754  TIP3      H1            -26.5745455925       -3.3104078546      -24.1713560427  SOLV      743             0.0000000000
      2349       754  TIP3      H2            -26.4534634736       -2.4783746934      -25.4218192389  SOLV      743             0.0000000000
      2350       755  TIP3      OH2           -26.1372957536       -1.2144212792      -19.9654061311  SOLV      744             0.0000000000
      2351       755  TIP3      H1            -25.2709199860       -1.0307405166      -20.3469713594  SOLV      744             0.0000000000
      2352       755  TIP3      H2            -26.0589640297       -0.7816430321      -19.0877861151  SOLV      744             0.0000000000
      2353       756  TIP3      OH2           -25.5844720572        0.3280708485      -17.7148293437  SOLV      745             0.0000000000
      2354       756  TIP3      H1            -26.3201435199        0.6220878655      -17.1389385924  SOLV      745             0.0000000000
      2355       756  TIP3      H2            -25.2902718244        1.1807662304      -18.1038289828  SOLV      745             0.0000000000
      2356       757  TIP3      OH2           -20.9669671167       -3.7609013789      -12.1290049670  SOLV      746             0.0000000000
      2357       757  TIP3      H1            -20.3401418298       -4.4114182385      -12.5094601109  SOLV      746             0.0000000000
      2358       757  TIP3      H2            -21.2171846839       -3.2373065724      -12.9185570412  SOLV      746             0.0000000000
      2359       758  TIP3      OH2           -22.2533480289       -2.3972332598      -14.1212725747  SOLV      747             0.0000000000
      2360       758  TIP3      H1            -23.0601509079       -1.9997792086      -13.7468977738  SOLV      747             0.0000000000
      2361       758  TIP3      H2            -22.6338376746       -3.1355187223      -14.6313875359  SOLV      747             0.0000000000
      2362       759  TIP3      OH2           -32.7132532256       10.0975189560      -14.9179027485  SOLV      748             0.0000000000
      2363       759  TIP3      H1            -32.1975444025       10.0406765600      -14.0865428118  SOLV      748             0.0000000000
      2364       759  TIP3      H2            -32.1129331992       10.6359101571      -15.4775756939  SOLV      748             0.0000000000
      2365       760  TIP3      OH2           -30.9228593522       11.5959241769      -16.3474312144  SOLV      749             0.0000000000
      2366       760  TIP3      H1            -30.1528809522       11.0562373077      -16.5861874605  SOLV      749             0.0000000000
      2367       760  TIP3      H2            -30.5054342272       12.2131792020      -15.7042919592  SOLV      749             0.0000000000
      2368       761  TIP3      OH2           -23.2790035522       -4.8199419652      -15.2177839933  SOLV      750             0.0000000000
      2369       761  TIP3      H1            -24.1692952528       -5.0682252849      -15.4964527591  SOLV      750             0.0000000000
      2370       761  TIP3      H2            -22.8188162368       -5.6945042117      -15.3061425203  SOLV      750             0.0000000000
      2371       762  TIP3      OH2           -31.3327944698        9.7528300296      -19.0054816791  SOLV      751             0.0000000000
      2372       762  TIP3      H1            -32.2664318562        9.8512400146      -18.7969796197  SOLV      751             0.0000000000
      2373       762  TIP3      H2            -31.0645497067       10.6517465407      -19.2374972034  SOLV      751             0.0000000000
      2374       763  TIP3      OH2           -29.3115907450       11.8577550991      -19.9301133235  SOLV      752             0.0000000000
      2375       763  TIP3      H1            -29.8985711425       12.0825917230      -20.6702884295  SOLV      752             0.0000000000
      2376       763  TIP3      H2            -28.8160721502       11.1066220444      -20.3256967324  SOLV      752             0.0000000000
      2377       764  TIP3      OH2             6.7538685095       31.8818064067       18.5828097793  SOLV      753             0.0000000000
      2378       764  TIP3      H1              5.8489769331       32.1165174239       18.8043507011  SOLV      753             0.0000000000
      2379       764  TIP3      H2              6.6192901762       31.2198253126       17.8871349579  SOLV      753             0.0000000000
      2380       765  TIP3      OH2           -26.0965815338       -6.7007154666      -20.0763163066  SOLV      754             0.0000000000
      2381       765  TIP3      H1            -25.5275741551       -6.4792258054      -20.8492764874  SOLV      754             0.0000000000
      2382       765  TIP3      H2            -26.8099437101       -6.0641085260      -20.2296721133  SOLV      754             0.0000000000
      2383       766  TIP3      OH2           -24.9169266971       -5.9527350679      -22.4093655041  SOLV      755             0.0000000000
      2384       766  TIP3      H1            -24.1162341621       -6.3560080631      -22.7903767754  SOLV      755             0.0000000000
      2385       766  TIP3      H2            -24.7165630379       -4.9988739983      -22.5325850428  SOLV      755             0.0000000000
      2386       767  TIP3      OH2           -36.7898336436       -5.5620353810       -9.2635053987  SOLV      756             0.0000000000
      2387       767  TIP3      H1            -36.9851805486       -6.2853297272       -9.8368033702  SOLV      756             0.0000000000
      2388       767  TIP3      H2            -35.7972610040       -5.5327883799       -9.3078224022  SOLV      756             0.0000000000
      2389       768  TIP3      OH2           -34.0178975735       -5.8295186061       -8.9940735902  SOLV      757             0.0000000000
      2390       768  TIP3      H1            -33.1736177596       -6.0161784040       -9.4438282264  SOLV      757             0.0000000000
      2391       768  TIP3      H2            -33.9833243093       -6.4452476592       -8.2478274591  SOLV      757             0.0000000000
      2392       769  TIP3      OH2           -25.8669585298       -5.0845418149      -10.9159622692  SOLV      758             0.0000000000
      2393       769  TIP3      H1            -25.6849145640       -5.4035622407      -10.0060696987  SOLV      758             0.0000000000
      2394       769  TIP3      H2            -24.9751247522       -5.1461510997      -11.3233040371  SOLV      758             0.0000000000
      2395       770  TIP3      OH2           -26.5292596553       10.3772240945      -15.9585009373  SOLV      759             0.0000000000
      2396       770  TIP3      H1            -27.3010980957       10.1040143657      -16.4898263779  SOLV      759             0.0000000000
      2397       770  TIP3      H2            -26.6993242966       11.3389112410      -15.8816547693  SOLV      759             0.0000000000
      2398       771  TIP3      OH2           -13.7770420323        4.1950805840      -28.4001915574  SOLV      760             0.0000000000
      2399       771  TIP3      H1            -14.1160592585        5.0927976126      -28.5654812538  SOLV      760             0.0000000000
      2400       771  TIP3      H2            -14.5307282005        3.6480772466      -28.6891345738  SOLV      760             0.0000000000
      2401       772  TIP3      OH2           -13.8316689095        4.1147408127      -24.4434450101  SOLV      761             0.0000000000
      2402       772  TIP3      H1            -13.4470529983        3.9075714234      -23.5703248726  SOLV      761             0.0000000000
      2403       772  TIP3      H2            -14.2441338445        3.2675059235      -24.6777205607  SOLV      761             0.0000000000
      2404       773  TIP3      OH2           -11.3567928472        7.2296477770      -27.7202266051  SOLV      762             0.0000000000
      2405       773  TIP3      H1            -11.5391122030        6.5492133094      -27.0571215131  SOLV      762             0.0000000000
      2406       773  TIP3      H2            -11.0756368813        7.9796781299      -27.1638934815  SOLV      762             0.0000000000
      2407       774  TIP3      OH2           -21.0954376862        7.1125252368      -23.6836346755  SOLV      763             0.0000000000
      2408       774  TIP3      H1            -21.1606393534        6.1439009226      -23.5910078905  SOLV      763             0.0000000000
      2409       774  TIP3      H2            -20.1289706177        7.2307742205      -23.7426746630  SOLV      763             0.0000000000
      2410       775  TIP3      OH2           -24.0114554296       -0.7543056600      -25.7417086561  SOLV      764             0.0000000000
      2411       775  TIP3      H1            -24.5585774467        0.0435690726      -25.6392947062  SOLV      764             0.0000000000
      2412       775  TIP3      H2            -24.6725861566       -1.3776415928      -26.0942992308  SOLV      764             0.0000000000
      2413       776  TIP3      OH2           -23.4617558331        2.0357668033      -23.9930449182  SOLV      765             0.0000000000
      2414       776  TIP3      H1            -22.9542206503        1.2289084092      -23.7565525773  SOLV      765             0.0000000000
      2415       776  TIP3      H2            -22.8901017365        2.4319623624      -24.6654198727  SOLV      765             0.0000000000
      2416       777  TIP3      OH2           -14.9610860325       11.7458675109      -27.5938327602  SOLV      766             0.0000000000
      2417       777  TIP3      H1            -14.4695136871       10.9978532552      -27.9819876989  SOLV      766             0.0000000000
      2418       777  TIP3      H2            -15.0514737270       11.4822163072      -26.6712216650  SOLV      766             0.0000000000
      2419       778  TIP3      OH2           -15.8681407463        6.3654048069      -24.0533725234  SOLV      767             0.0000000000
      2420       778  TIP3      H1            -15.4317153628        5.5938766010      -24.4533043625  SOLV      767             0.0000000000
      2421       778  TIP3      H2            -15.0642951277        6.8602579843      -23.7840738507  SOLV      767             0.0000000000
      2422       779  TIP3      OH2            -5.6829781552       -0.4181321936      -24.0436145983  SOLV      768             0.0000000000
      2423       779  TIP3      H1             -5.3955939352        0.4084037940      -23.6039668301  SOLV      768             0.0000000000
      2424       779  TIP3      H2             -5.5137166724       -0.2081942113      -24.9767183073  SOLV      768             0.0000000000
      2425       780  TIP3      OH2           -11.7011273272        1.3694566849      -23.7634232853  SOLV      769             0.0000000000
      2426       780  TIP3      H1            -11.2978448059        0.5055906380      -23.5510665952  SOLV      769             0.0000000000
      2427       780  TIP3      H2            -12.0630888336        1.1878102984      -24.6522728319  SOLV      769             0.0000000000
      2428       781  TIP3      OH2           -18.3275577008       -2.1009882434      -24.0909880602  SOLV      770             0.0000000000
      2429       781  TIP3      H1            -18.5301189192       -1.3516653187      -24.6910653161  SOLV      770             0.0000000000
      2430       781  TIP3      H2            -18.7645115394       -2.8264562517      -24.5929939254  SOLV      770             0.0000000000
      2431       782  TIP3      OH2           -11.3740757356       -1.0973154680      -27.8617889008  SOLV      771             0.0000000000
      2432       782  TIP3      H1            -10.6513005575       -1.2420004232      -27.2071973490  SOLV      771             0.0000000000
      2433       782  TIP3      H2            -10.8595400217       -0.7590884290      -28.6159773607  SOLV      771             0.0000000000
      2434       783  TIP3      OH2           -21.9732513931       -0.0606897288      -23.0062608580  SOLV      772             0.0000000000
      2435       783  TIP3      H1            -21.0691552193       -0.2357136477      -22.6767232269  SOLV      772             0.0000000000
      2436       783  TIP3      H2            -21.9383634869       -0.6074299843      -23.8315775698  SOLV      772             0.0000000000
      2437       784  TIP3      OH2           -17.5967794039        2.0253008228      -24.9778015403  SOLV      773             0.0000000000
      2438       784  TIP3      H1            -16.6593905943        1.7538445732      -24.8916694926  SOLV      773             0.0000000000
      2439       784  TIP3      H2            -18.0193155642        1.1894425173      -25.2828014156  SOLV      773             0.0000000000
      2440       785  TIP3      OH2            -4.9580300504        1.6922139513      -22.3887471053  SOLV      774             0.0000000000
      2441       785  TIP3      H1             -5.8283324801        2.1206011714      -22.5354125983  SOLV      774             0.0000000000
      2442       785  TIP3      H2             -4.8021696217        1.9273585311      -21.4609874417  SOLV      774             0.0000000000
      2443       786  TIP3      OH2           -18.3689341959       -2.1960332073      -19.7339580600  SOLV      775             0.0000000000
      2444       786  TIP3      H1            -18.9167236820       -1.8422296576      -20.4591615264  SOLV      775             0.0000000000
      2445       786  TIP3      H2            -18.9726515681       -2.0772067495      -18.9775752162  SOLV      775             0.0000000000
      2446       787  TIP3      OH2           -14.7738351041        6.5119291051      -29.7554249735  SOLV      776             0.0000000000
      2447       787  TIP3      H1            -15.3208461199        6.1003166896      -30.4372997828  SOLV      776             0.0000000000
      2448       787  TIP3      H2            -15.3363863163        7.2742631551      -29.5005373826  SOLV      776             0.0000000000
      2449       788  TIP3      OH2           -17.3409805181        5.5199776372      -21.8494638222  SOLV      777             0.0000000000
      2450       788  TIP3      H1            -17.9272798748        6.2168104365      -21.4760742712  SOLV      777             0.0000000000
      2451       788  TIP3      H2            -16.8865341427        6.0077059553      -22.5661650739  SOLV      777             0.0000000000
      2452       789  TIP3      OH2            -9.3494276592       -1.0310891092      -26.0557993914  SOLV      778             0.0000000000
      2453       789  TIP3      H1             -9.5689695509       -1.4604162747      -25.2185048801  SOLV      778             0.0000000000
      2454       789  TIP3      H2             -8.8449641651       -0.2481913936      -25.7589477510  SOLV      778             0.0000000000
      2455       790  TIP3      OH2           -19.6185995470       -0.9998755761      -21.8850860723  SOLV      779             0.0000000000
      2456       790  TIP3      H1            -19.0009902828       -0.2640392881      -21.6470237907  SOLV      779             0.0000000000
      2457       790  TIP3      H2            -19.1227192076       -1.4097408713      -22.6318110344  SOLV      779             0.0000000000
      2458       791  TIP3      OH2           -18.9976042078        7.5395755503      -20.8481296600  SOLV      780             0.0000000000
      2459       791  TIP3      H1            -19.2421234056        8.4259323384      -21.1896342231  SOLV      780             0.0000000000
      2460       791  TIP3      H2            -19.7874235912        7.3602284570      -20.2957864301  SOLV      780             0.0000000000
      2461       792  TIP3      OH2           -24.8640826328        4.4998806507      -28.4971095020  SOLV      781             0.0000000000
      2462       792  TIP3      H1            -24.8539185852        5.0399982991      -29.2957490472  SOLV      781             0.0000000000
      2463       792  TIP3      H2            -24.8304251821        5.2194847772      -27.8135300406  SOLV      781             0.0000000000
      2464       793  TIP3      OH2           -10.7201798569        9.5778628919      -26.1021117519  SOLV      782             0.0000000000
      2465       793  TIP3      H1            -11.6027348689        9.4961199820      -25.6689870421  SOLV      782             0.0000000000
      2466       793  TIP3      H2            -10.7965726659       10.4691806763      -26.4996759746  SOLV      782             0.0000000000
      2467       794  TIP3      OH2            -7.7531697704       -1.4352157305      -22.3899291868  SOLV      783             0.0000000000
      2468       794  TIP3      H1             -8.6312704938       -1.1802789550      -22.7147379108  SOLV      783             0.0000000000
      2469       794  TIP3      H2             -7.1618630457       -1.1196051559      -23.1046641087  SOLV      783             0.0000000000
      2470       795  TIP3      OH2           -14.8252921944       -5.0098587135      -22.5127537928  SOLV      784             0.0000000000
      2471       795  TIP3      H1            -14.9787211885       -5.9660856161      -22.3946121915  SOLV      784             0.0000000000
      2472       795  TIP3      H2            -15.6167887153       -4.6461383674      -22.0587193947  SOLV      784             0.0000000000
      2473       796  TIP3      OH2           -13.7172216606        9.9133139388      -29.3185187469  SOLV      785             0.0000000000
      2474       796  TIP3      H1            -13.1363757998        9.1457167908      -29.4920355132  SOLV      785             0.0000000000
      2475       796  TIP3      H2            -13.1394617285       10.6366835400      -29.6613181032  SOLV      785             0.0000000000
      2476       797  TIP3      OH2           -12.2592984671        7.6981119618      -30.2845025561  SOLV      786             0.0000000000
      2477       797  TIP3      H1            -13.0620206036        7.1535777177      -30.2002699280  SOLV      786             0.0000000000
      2478       797  TIP3      H2            -11.8111665602        7.4891769457      -29.4316016477  SOLV      786             0.0000000000
      2479       798  TIP3      OH2            -8.4466401298        8.6852811321      -22.6074564223  SOLV      787             0.0000000000
      2480       798  TIP3      H1             -8.5918783035        7.9107459162      -23.1924987874  SOLV      787             0.0000000000
      2481       798  TIP3      H2             -8.6461265589        9.4323430477      -23.2101419972  SOLV      787             0.0000000000
      2482       799  TIP3      OH2           -15.4912555618        2.6647568207      -29.9633401546  SOLV      788             0.0000000000
      2483       799  TIP3      H1            -16.3456555409        3.1042893404      -30.1494496870  SOLV      788             0.0000000000
      2484       799  TIP3      H2            -15.1356860974        2.5318225504      -30.8587529894  SOLV      788             0.0000000000
      2485       800  TIP3      OH2           -16.0065724084        0.3755682618      -32.7371832014  SOLV      789             0.0000000000
      2486       800  TIP3      H1            -15.2446637521        0.9204316128      -32.4770993083  SOLV      789             0.0000000000
      2487       800  TIP3      H2            -15.6246353633       -0.5083962136      -32.7662749457  SOLV      789             0.0000000000
      2488       801  TIP3      OH2            -6.4940524987        5.1114818637      -24.1333812529  SOLV      790             0.0000000000
      2489       801  TIP3      H1             -7.3410931545        5.6080681577      -24.0912750324  SOLV      790             0.0000000000
      2490       801  TIP3      H2             -6.2116538635        5.3279957204      -25.0465890042  SOLV      790             0.0000000000
      2491       802  TIP3      OH2           -12.0379668763        3.4612951198      -30.3425106285  SOLV      791             0.0000000000
      2492       802  TIP3      H1            -12.5857168703        3.7242894435      -29.5637857418  SOLV      791             0.0000000000
      2493       802  TIP3      H2            -11.2236999525        3.1650851002      -29.8850488420  SOLV      791             0.0000000000
      2494       803  TIP3      OH2            -9.7162268385        3.8273404180      -21.1136662893  SOLV      792             0.0000000000
      2495       803  TIP3      H1             -9.7355065105        4.6536549862      -20.5929504507  SOLV      792             0.0000000000
      2496       803  TIP3      H2            -10.5764575395        3.8853047587      -21.5752760344  SOLV      792             0.0000000000
      2497       804  TIP3      OH2           -19.6983817104        3.4800849893      -26.0543726994  SOLV      793             0.0000000000
      2498       804  TIP3      H1            -20.0960734618        2.8404161818      -26.6915037860  SOLV      793             0.0000000000
      2499       804  TIP3      H2            -18.9196260708        2.9717960377      -25.7452986344  SOLV      793             0.0000000000
      2500       805  TIP3      OH2           -18.4451707477        7.5375155530      -24.6869860250  SOLV      794             0.0000000000
      2501       805  TIP3      H1            -18.6211952810        7.2137403884      -25.5827580641  SOLV      794             0.0000000000
      2502       805  TIP3      H2            -17.5555189879        7.1716829458      -24.5022907139  SOLV      794             0.0000000000
      2503       806  TIP3      OH2           -18.5188562306        3.1591400150      -22.6411139352  SOLV      795             0.0000000000
      2504       806  TIP3      H1            -18.0861044417        2.8920479222      -23.4810432656  SOLV      795             0.0000000000
      2505       806  TIP3      H2            -18.0365322497        3.9831604831      -22.4021055243  SOLV      795             0.0000000000
      2506       807  TIP3      OH2           -13.0802467152        9.5136647772      -24.8192695337  SOLV      796             0.0000000000
      2507       807  TIP3      H1            -13.2485566052       10.3318096708      -24.3162641405  SOLV      796             0.0000000000
      2508       807  TIP3      H2            -13.2611451879        8.8100697605      -24.1646992294  SOLV      796             0.0000000000
      2509       808  TIP3      OH2           -16.9671290404        8.6567027078      -19.3408036441  SOLV      797             0.0000000000
      2510       808  TIP3      H1            -17.5710187225        9.2937448184      -18.8981317632  SOLV      797             0.0000000000
      2511       808  TIP3      H2            -17.6186805966        8.1442215373      -19.8611178382  SOLV      797             0.0000000000
      2512       809  TIP3      OH2           -13.6512493308        1.9825748695      -32.0284939291  SOLV      798             0.0000000000
      2513       809  TIP3      H1            -13.0959659656        2.5646486702      -31.4607036968  SOLV      798             0.0000000000
      2514       809  TIP3      H2            -13.3186111113        2.2401014325      -32.9203966887  SOLV      798             0.0000000000
      2515       810  TIP3      OH2           -19.3494521909        4.2669456188      -18.3024963080  SOLV      799             0.0000000000
      2516       810  TIP3      H1            -19.3554157064        5.1622137233      -17.9106181739  SOLV      799             0.0000000000
      2517       810  TIP3      H2            -20.2798180168        4.0032812514      -18.1957604745  SOLV      799             0.0000000000
      2518       811  TIP3      OH2           -16.2469501127        8.8702631008      -29.3711546015  SOLV      800             0.0000000000
      2519       811  TIP3      H1            -15.4009458714        9.3250656977      -29.1947737697  SOLV      800             0.0000000000
      2520       811  TIP3      H2            -16.8600686005        9.6166458802      -29.4642977457  SOLV      800             0.0000000000
      2521       812  TIP3      OH2           -19.0379734361       10.2833517364      -18.5385319767  SOLV      801             0.0000000000
      2522       812  TIP3      H1            -19.4071793287       10.3609919474      -19.4357090930  SOLV      801             0.0000000000
      2523       812  TIP3      H2            -19.8394101418       10.0955996523      -17.9987875290  SOLV      801             0.0000000000
      2524       813  TIP3      OH2            -8.4559440929       -5.5443707505      -31.5356369268  SOLV      802             0.0000000000
      2525       813  TIP3      H1             -9.2988682399       -5.3662887935      -31.0681926094  SOLV      802             0.0000000000
      2526       813  TIP3      H2             -8.3741537253       -4.7547901859      -32.1055236014  SOLV      802             0.0000000000
      2527       814  TIP3      OH2           -20.8686790166        1.7497818059      -27.8336870724  SOLV      803             0.0000000000
      2528       814  TIP3      H1            -21.5883064866        2.1789113950      -28.3523992103  SOLV      803             0.0000000000
      2529       814  TIP3      H2            -21.0252294066        0.8165596829      -28.0050653463  SOLV      803             0.0000000000
      2530       815  TIP3      OH2           -23.2554251713        5.5975469970      -18.9601073823  SOLV      804             0.0000000000
      2531       815  TIP3      H1            -23.9378531827        5.4985696664      -19.6604747222  SOLV      804             0.0000000000
      2532       815  TIP3      H2            -22.8834902231        4.7041303296      -18.8922131553  SOLV      804             0.0000000000
      2533       816  TIP3      OH2           -24.7372813196        7.6946441808      -22.6426548440  SOLV      805             0.0000000000
      2534       816  TIP3      H1            -23.7711730647        7.7395987745      -22.6944080738  SOLV      805             0.0000000000
      2535       816  TIP3      H2            -24.9412463184        8.5442240848      -22.2078198606  SOLV      805             0.0000000000
      2536       817  TIP3      OH2            -6.0605646345       12.1965043781      -22.1037123308  SOLV      806             0.0000000000
      2537       817  TIP3      H1             -6.0637266569       11.2332294991      -21.9425484895  SOLV      806             0.0000000000
      2538       817  TIP3      H2             -6.9028380678       12.4419421894      -21.6545415676  SOLV      806             0.0000000000
      2539       818  TIP3      OH2           -15.0066941241        9.9079233618      -20.8082190359  SOLV      807             0.0000000000
      2540       818  TIP3      H1            -15.0028626189       10.8427800248      -20.4936578350  SOLV      807             0.0000000000
      2541       818  TIP3      H2            -15.7167843389        9.5339749065      -20.2397393430  SOLV      807             0.0000000000
      2542       819  TIP3      OH2           -17.3756150209       11.1461402826      -31.0380991647  SOLV      808             0.0000000000
      2543       819  TIP3      H1            -17.8926783617       11.4134083169      -31.8265226277  SOLV      808             0.0000000000
      2544       819  TIP3      H2            -17.4048818174       11.9784445177      -30.5353989723  SOLV      808             0.0000000000
      2545       820  TIP3      OH2           -23.2019824589        9.8020888508      -27.3073993959  SOLV      809             0.0000000000
      2546       820  TIP3      H1            -22.4797073856        9.7938126233      -26.6425979072  SOLV      809             0.0000000000
      2547       820  TIP3      H2            -23.8758092987        9.3326783269      -26.7858537172  SOLV      809             0.0000000000
      2548       821  TIP3      OH2           -16.1706494893        9.8558852296      -34.4794245264  SOLV      810             0.0000000000
      2549       821  TIP3      H1            -15.5654891706        9.5923645597      -35.1848256422  SOLV      810             0.0000000000
      2550       821  TIP3      H2            -15.5567750527        9.9988893339      -33.7313174864  SOLV      810             0.0000000000
      2551       822  TIP3      OH2           -14.9444707681       10.5039875897      -32.0362631858  SOLV      811             0.0000000000
      2552       822  TIP3      H1            -15.8057353185       10.7483676165      -31.6219920700  SOLV      811             0.0000000000
      2553       822  TIP3      H2            -14.4081402894       10.3136639600      -31.2475618729  SOLV      811             0.0000000000
      2554       823  TIP3      OH2            -7.1584104081        3.4536021044      -19.3772015739  SOLV      812             0.0000000000
      2555       823  TIP3      H1             -8.0225075465        3.5393521780      -19.8050064864  SOLV      812             0.0000000000
      2556       823  TIP3      H2             -7.0007803107        2.4904388791      -19.4484628887  SOLV      812             0.0000000000
      2557       824  TIP3      OH2           -21.2221813871        7.4881248799      -19.2422171523  SOLV      813             0.0000000000
      2558       824  TIP3      H1            -20.7421732637        7.4524612572      -18.3908956136  SOLV      813             0.0000000000
      2559       824  TIP3      H2            -21.9526408407        6.8584146618      -19.0846562252  SOLV      813             0.0000000000
      2560       825  TIP3      OH2           -17.2305347509       -4.2653994073      -21.2596709411  SOLV      814             0.0000000000
      2561       825  TIP3      H1            -18.1179783928       -4.5471462435      -21.5609661065  SOLV      814             0.0000000000
      2562       825  TIP3      H2            -17.4804283827       -3.4644068153      -20.7607311764  SOLV      814             0.0000000000
      2563       826  TIP3      OH2           -11.8556740094       -3.1011733387      -19.3193930939  SOLV      815             0.0000000000
      2564       826  TIP3      H1            -11.1548913682       -3.3616628910      -18.6856099348  SOLV      815             0.0000000000
      2565       826  TIP3      H2            -12.6775166231       -3.3041185848      -18.8274776660  SOLV      815             0.0000000000
      2566       827  TIP3      OH2            -9.5211124633        1.2126998118      -20.1380067358  SOLV      816             0.0000000000
      2567       827  TIP3      H1            -10.0136158791        1.1776364774      -19.2864425889  SOLV      816             0.0000000000
      2568       827  TIP3      H2             -9.7642596656        2.0904196578      -20.4889668385  SOLV      816             0.0000000000
      2569       828  TIP3      OH2           -12.8754323288        2.7482336923      -34.5265996464  SOLV      817             0.0000000000
      2570       828  TIP3      H1            -13.6261550161        2.7171686268      -35.1073429880  SOLV      817             0.0000000000
      2571       828  TIP3      H2            -12.4144622395        3.5410182069      -34.8408942043  SOLV      817             0.0000000000
      2572       829  TIP3      OH2           -15.5390414151       -3.5564297109      -31.6955553170  SOLV      818             0.0000000000
      2573       829  TIP3      H1            -15.8295555842       -3.6880150120      -30.7640711552  SOLV      818             0.0000000000
      2574       829  TIP3      H2            -16.1169575679       -4.1831797988      -32.1389593000  SOLV      818             0.0000000000
      2575       830  TIP3      OH2           -17.9566963616        1.0052418606      -21.0744245384  SOLV      819             0.0000000000
      2576       830  TIP3      H1            -17.7913012389        1.4459323955      -20.2189294743  SOLV      819             0.0000000000
      2577       830  TIP3      H2            -18.2120305031        1.7794371366      -21.6276739964  SOLV      819             0.0000000000
      2578       831  TIP3      OH2           -19.0662990838       -0.1412211607      -25.7857914622  SOLV      820             0.0000000000
      2579       831  TIP3      H1            -19.9804633118       -0.4839528288      -25.7027151529  SOLV      820             0.0000000000
      2580       831  TIP3      H2            -18.8873729608       -0.3774829957      -26.7316219264  SOLV      820             0.0000000000
      2581       832  TIP3      OH2           -14.1661098481        0.6435216178      -28.6020376186  SOLV      821             0.0000000000
      2582       832  TIP3      H1            -14.6715017244        1.3483043040      -29.0601095266  SOLV      821             0.0000000000
      2583       832  TIP3      H2            -13.6269834542        0.2748843452      -29.3305195880  SOLV      821             0.0000000000
      2584       833  TIP3      OH2           -12.3980980940        3.3640521019      -17.8564992340  SOLV      822             0.0000000000
      2585       833  TIP3      H1            -12.6374161744        2.6445907214      -17.2299428584  SOLV      822             0.0000000000
      2586       833  TIP3      H2            -11.4659294101        3.5108606147      -17.6045717058  SOLV      822             0.0000000000
      2587       834  TIP3      OH2           -12.6007667323        0.8717574681      -26.3053101060  SOLV      823             0.0000000000
      2588       834  TIP3      H1            -13.2500966956        1.1044840277      -27.0023603993  SOLV      823             0.0000000000
      2589       834  TIP3      H2            -12.2212632034        0.0779798750      -26.7380709931  SOLV      823             0.0000000000
      2590       835  TIP3      OH2           -19.0066850642       -4.2217539159      -31.5123258214  SOLV      824             0.0000000000
      2591       835  TIP3      H1            -18.9451679289       -4.4366933042      -30.5570561706  SOLV      824             0.0000000000
      2592       835  TIP3      H2            -19.8681323610       -3.7773402429      -31.5162737158  SOLV      824             0.0000000000
      2593       836  TIP3      OH2           -23.8789018248       -3.5221095080      -23.0584067123  SOLV      825             0.0000000000
      2594       836  TIP3      H1            -23.0074755945       -3.2675632314      -22.7171576372  SOLV      825             0.0000000000
      2595       836  TIP3      H2            -23.6876296400       -3.8378314276      -23.9663957547  SOLV      825             0.0000000000
      2596       837  TIP3      OH2           -23.9328450045       -3.8651376963      -28.2073984998  SOLV      826             0.0000000000
      2597       837  TIP3      H1            -23.1280651616       -3.5449525752      -28.6290177139  SOLV      826             0.0000000000
      2598       837  TIP3      H2            -24.3316247934       -3.0495354671      -27.8502496889  SOLV      826             0.0000000000
      2599       838  TIP3      OH2           -12.4862937193        3.3474028728      -22.1076262874  SOLV      827             0.0000000000
      2600       838  TIP3      H1            -12.1524519784        2.6327359440      -22.6995402881  SOLV      827             0.0000000000
      2601       838  TIP3      H2            -12.7908984392        2.8107969210      -21.3465901011  SOLV      827             0.0000000000
      2602       839  TIP3      OH2           -15.7026001297       -2.0234849328      -25.3447908615  SOLV      828             0.0000000000
      2603       839  TIP3      H1            -16.5254708380       -2.0523465967      -24.8178766087  SOLV      828             0.0000000000
      2604       839  TIP3      H2            -15.0160588858       -2.1033447448      -24.6611253719  SOLV      828             0.0000000000
      2605       840  TIP3      OH2           -21.4171489072       -1.4936556854      -25.2628832977  SOLV      829             0.0000000000
      2606       840  TIP3      H1            -22.3419702058       -1.4220470059      -25.5863634527  SOLV      829             0.0000000000
      2607       840  TIP3      H2            -21.1329981679       -2.3798443075      -25.5704894080  SOLV      829             0.0000000000
      2608       841  TIP3      OH2           -18.6870866537       -0.9314550789      -28.3026663284  SOLV      830             0.0000000000
      2609       841  TIP3      H1            -17.8170158787       -1.2884491916      -28.5431114038  SOLV      830             0.0000000000
      2610       841  TIP3      H2            -19.2294048123       -1.1119101908      -29.0980802266  SOLV      830             0.0000000000
      2611       842  TIP3      OH2           -10.8772702403       -1.2519469751      -23.3260192191  SOLV      831             0.0000000000
      2612       842  TIP3      H1            -11.1671912179       -1.1185264067      -22.3947086663  SOLV      831             0.0000000000
      2613       842  TIP3      H2            -11.5744648652       -1.8555471190      -23.6400175793  SOLV      831             0.0000000000
      2614       843  TIP3      OH2           -20.3695504403       -1.0712320569      -30.4530190594  SOLV      832             0.0000000000
      2615       843  TIP3      H1            -20.9034282298       -1.8805132454      -30.6073850457  SOLV      832             0.0000000000
      2616       843  TIP3      H2            -20.0296160218       -0.8562185212      -31.3328375200  SOLV      832             0.0000000000
      2617       844  TIP3      OH2            -9.0992006923       15.6332942231      -21.0987471056  SOLV      833             0.0000000000
      2618       844  TIP3      H1             -9.1433485488       15.8879016139      -22.0364091615  SOLV      833             0.0000000000
      2619       844  TIP3      H2             -8.3115398247       16.1221522133      -20.7931380311  SOLV      833             0.0000000000
      2620       845  TIP3      OH2           -19.6013245131        6.7356195959      -16.9328249183  SOLV      834             0.0000000000
      2621       845  TIP3      H1            -18.7943861404        7.0405534548      -16.4727204021  SOLV      834             0.0000000000
      2622       845  TIP3      H2            -20.2491557038        6.8164008274      -16.2054649265  SOLV      834             0.0000000000
      2623       846  TIP3      OH2           -14.9430404042        1.3270589261      -24.3550995633  SOLV      835             0.0000000000
      2624       846  TIP3      H1            -14.2584004466        0.8790432476      -24.8742151213  SOLV      835             0.0000000000
      2625       846  TIP3      H2            -14.8998356245        0.8550246052      -23.5022174581  SOLV      835             0.0000000000
      2626       847  TIP3      OH2           -19.7913551322       -3.8215142189      -25.7519362460  SOLV      836             0.0000000000
      2627       847  TIP3      H1            -20.1450601403       -4.5964976863      -25.2763486110  SOLV      836             0.0000000000
      2628       847  TIP3      H2            -19.6885609805       -4.1907054247      -26.6563640253  SOLV      836             0.0000000000
      2629       848  TIP3      OH2           -15.1964478085        0.3122685728      -21.5220402690  SOLV      837             0.0000000000
      2630       848  TIP3      H1            -16.0764354574        0.6953856296      -21.3597114529  SOLV      837             0.0000000000
      2631       848  TIP3      H2            -14.5969904565        0.8875665200      -21.0057109265  SOLV      837             0.0000000000
      2632       849  TIP3      OH2           -17.7910472817        4.1211404795      -30.5368595457  SOLV      838             0.0000000000
      2633       849  TIP3      H1            -18.4970235339        3.4433889352      -30.6318355255  SOLV      838             0.0000000000
      2634       849  TIP3      H2            -18.0239370136        4.4926720265      -29.6501411596  SOLV      838             0.0000000000
      2635       850  TIP3      OH2            -8.8603941712        6.5178533184      -24.2844256242  SOLV      839             0.0000000000
      2636       850  TIP3      H1             -8.6246732080        7.0291846960      -25.0867307321  SOLV      839             0.0000000000
      2637       850  TIP3      H2             -9.7108348226        6.1018449559      -24.5448365937  SOLV      839             0.0000000000
      2638       851  TIP3      OH2           -12.9614265022       -2.7272001102      -32.0678382446  SOLV      840             0.0000000000
      2639       851  TIP3      H1            -13.8948375268       -3.0346073783      -32.0210513709  SOLV      840             0.0000000000
      2640       851  TIP3      H2            -13.0115544170       -1.8186068320      -31.7268435474  SOLV      840             0.0000000000
      2641       852  TIP3      OH2           -13.8711212319        7.3156878353      -20.5247662307  SOLV      841             0.0000000000
      2642       852  TIP3      H1            -13.5057779917        7.2329962175      -19.6358860370  SOLV      841             0.0000000000
      2643       852  TIP3      H2            -14.2534071335        8.2133926928      -20.5154830658  SOLV      841             0.0000000000
      2644       853  TIP3      OH2           -12.6027820555       -0.2788703264      -30.7709243936  SOLV      842             0.0000000000
      2645       853  TIP3      H1            -11.6312458222       -0.2602607936      -30.6740833553  SOLV      842             0.0000000000
      2646       853  TIP3      H2            -12.7738796744        0.4938118263      -31.3432049932  SOLV      842             0.0000000000
      2647       854  TIP3      OH2           -20.8968300660        4.2340548496      -23.6261926632  SOLV      843             0.0000000000
      2648       854  TIP3      H1            -20.6086766670        4.0700048691      -24.5499440928  SOLV      843             0.0000000000
      2649       854  TIP3      H2            -20.1411868551        3.8508119733      -23.1469739224  SOLV      843             0.0000000000
      2650       855  TIP3      OH2           -16.3488446269        5.4119031838      -32.5067107548  SOLV      844             0.0000000000
      2651       855  TIP3      H1            -16.6562172425        6.3418837852      -32.3616764940  SOLV      844             0.0000000000
      2652       855  TIP3      H2            -16.8937556424        4.9368068990      -31.8436821685  SOLV      844             0.0000000000
      2653       856  TIP3      OH2           -21.9380171335        3.2703023031      -17.6880875389  SOLV      845             0.0000000000
      2654       856  TIP3      H1            -21.6277772105        3.3884594506      -16.7657818092  SOLV      845             0.0000000000
      2655       856  TIP3      H2            -22.8393734859        2.9496655159      -17.5227649531  SOLV      845             0.0000000000
      2656       857  TIP3      OH2           -14.7545912556        4.7741480978      -17.4781630541  SOLV      846             0.0000000000
      2657       857  TIP3      H1            -15.2908024534        4.2918040643      -18.1226193231  SOLV      846             0.0000000000
      2658       857  TIP3      H2            -13.8625002548        4.4274123592      -17.6903790578  SOLV      846             0.0000000000
      2659       858  TIP3      OH2           -12.2596152511        9.9256724794      -21.5927133227  SOLV      847             0.0000000000
      2660       858  TIP3      H1            -13.2240388533        9.9224289151      -21.4546790578  SOLV      847             0.0000000000
      2661       858  TIP3      H2            -11.9700325572       10.4481124185      -20.8119031855  SOLV      847             0.0000000000
      2662       859  TIP3      OH2            -8.1675881109        0.6417982237      -32.3868871106  SOLV      848             0.0000000000
      2663       859  TIP3      H1             -8.9427516712        0.2651361245      -32.8700707403  SOLV      848             0.0000000000
      2664       859  TIP3      H2             -8.1104509217        1.5183263310      -32.8317376960  SOLV      848             0.0000000000
      2665       860  TIP3      OH2            -5.9496422621        9.2980164261      -21.7210900336  SOLV      849             0.0000000000
      2666       860  TIP3      H1             -6.9274904651        9.2182259016      -21.7923899823  SOLV      849             0.0000000000
      2667       860  TIP3      H2             -5.6914172965        8.9858781211      -22.6167068207  SOLV      849             0.0000000000
      2668       861  TIP3      OH2           -10.7797427497        8.0803602379      -33.5497509133  SOLV      850             0.0000000000
      2669       861  TIP3      H1            -11.1986888243        8.0940987335      -32.6775528829  SOLV      850             0.0000000000
      2670       861  TIP3      H2            -11.5404903177        8.1551170354      -34.1251302243  SOLV      850             0.0000000000
      2671       862  TIP3      OH2           -11.1872396429        5.1637513703      -25.1631988519  SOLV      851             0.0000000000
      2672       862  TIP3      H1            -12.1160221163        4.9182324864      -24.9878723674  SOLV      851             0.0000000000
      2673       862  TIP3      H2            -10.8580446649        4.3388328965      -25.5718344312  SOLV      851             0.0000000000
      2674       863  TIP3      OH2           -19.8332289599        7.3858292300      -27.4649401665  SOLV      852             0.0000000000
      2675       863  TIP3      H1            -19.8574200297        8.2695554026      -27.8972144331  SOLV      852             0.0000000000
      2676       863  TIP3      H2            -20.7768634269        7.2157310771      -27.3855126965  SOLV      852             0.0000000000
      2677       864  TIP3      OH2           -24.3327651731        0.5098143408      -30.0823662720  SOLV      853             0.0000000000
      2678       864  TIP3      H1            -23.5828999981        1.1348498503      -30.1354854080  SOLV      853             0.0000000000
      2679       864  TIP3      H2            -24.6656783732        0.6993417481      -29.2071864725  SOLV      853             0.0000000000
      2680       865  TIP3      OH2           -18.5400942214        5.0603532501      -28.1070468271  SOLV      854             0.0000000000
      2681       865  TIP3      H1            -18.9002899996        5.9522486789      -27.9168798181  SOLV      854             0.0000000000
      2682       865  TIP3      H2            -18.8911730106        4.5577670404      -27.3486220366  SOLV      854             0.0000000000
      2683       866  TIP3      OH2           -17.1658396003       10.8390908470      -22.8377069257  SOLV      855             0.0000000000
      2684       866  TIP3      H1            -16.7751976894       11.5993830392      -23.3142887607  SOLV      855             0.0000000000
      2685       866  TIP3      H2            -16.3979419435       10.5122840689      -22.3417058355  SOLV      855             0.0000000000
      2686       867  TIP3      OH2           -20.4628596638        9.8476203898      -28.5085824160  SOLV      856             0.0000000000
      2687       867  TIP3      H1            -21.4273326104        9.9241628222      -28.5159759742  SOLV      856             0.0000000000
      2688       867  TIP3      H2            -20.1797694397       10.7640843976      -28.7018294536  SOLV      856             0.0000000000
      2689       868  TIP3      OH2           -13.3597006028        7.2144907370      -23.2047199259  SOLV      857             0.0000000000
      2690       868  TIP3      H1            -13.4903400089        7.2075017914      -22.2287189383  SOLV      857             0.0000000000
      2691       868  TIP3      H2            -12.5438463346        6.7044996101      -23.2844193847  SOLV      857             0.0000000000
      2692       869  TIP3      OH2           -13.6579759416        6.3195011644      -34.3807935456  SOLV      858             0.0000000000
      2693       869  TIP3      H1            -13.0841051772        5.9853826689      -33.6499328396  SOLV      858             0.0000000000
      2694       869  TIP3      H2            -14.5294365484        6.0968950144      -34.0129106701  SOLV      858             0.0000000000
      2695       870  TIP3      OH2           -10.8399356508       12.4848641883      -22.7552557485  SOLV      859             0.0000000000
      2696       870  TIP3      H1            -11.6450672900       11.9337694846      -22.7917801663  SOLV      859             0.0000000000
      2697       870  TIP3      H2            -11.0215212589       13.1344917213      -23.4692640386  SOLV      859             0.0000000000
      2698       871  TIP3      OH2           -20.1759320958       -1.4146717838      -17.5923233252  SOLV      860             0.0000000000
      2699       871  TIP3      H1            -20.9377644634       -1.5693677335      -17.0192021088  SOLV      860             0.0000000000
      2700       871  TIP3      H2            -19.4927789640       -1.8423874752      -17.0579798045  SOLV      860             0.0000000000
      2701       872  TIP3      OH2           -12.0254230021        5.3068545243      -32.4169171115  SOLV      861             0.0000000000
      2702       872  TIP3      H1            -12.1983582969        4.6854557107      -31.6795490596  SOLV      861             0.0000000000
      2703       872  TIP3      H2            -11.1335494158        5.5982047799      -32.1788940654  SOLV      861             0.0000000000
      2704       873  TIP3      OH2           -22.7207967875        9.4310618899      -21.1888356671  SOLV      862             0.0000000000
      2705       873  TIP3      H1            -22.1775239271        8.7601066401      -20.7428364487  SOLV      862             0.0000000000
      2706       873  TIP3      H2            -22.4790292779       10.2281603725      -20.7006185700  SOLV      862             0.0000000000
      2707       874  TIP3      OH2           -19.9799398908        6.5485337214      -31.9956832604  SOLV      863             0.0000000000
      2708       874  TIP3      H1            -19.8560929273        5.6485264005      -31.6668450877  SOLV      863             0.0000000000
      2709       874  TIP3      H2            -20.4734812898        6.9684587612      -31.2645165190  SOLV      863             0.0000000000
      2710       875  TIP3      OH2           -22.8805227893        2.8295061969      -29.2667991166  SOLV      864             0.0000000000
      2711       875  TIP3      H1            -23.5121547275        3.4236071163      -28.8094201077  SOLV      864             0.0000000000
      2712       875  TIP3      H2            -22.9798058139        3.1795864463      -30.1798066648  SOLV      864             0.0000000000
      2713       876  TIP3      OH2           -11.5739095167       -0.7369278666      -20.7231410408  SOLV      865             0.0000000000
      2714       876  TIP3      H1            -10.7861297692       -0.3364039827      -20.3191824697  SOLV      865             0.0000000000
      2715       876  TIP3      H2            -11.7006381032       -1.5464396473      -20.1814125340  SOLV      865             0.0000000000
      2716       877  TIP3      OH2           -12.7705856923       -3.2712993949      -29.0495897158  SOLV      866             0.0000000000
      2717       877  TIP3      H1            -12.9522374524       -3.0332003138      -29.9748125758  SOLV      866             0.0000000000
      2718       877  TIP3      H2            -12.3849279122       -2.4448655914      -28.6946887060  SOLV      866             0.0000000000
      2719       878  TIP3      OH2           -17.0559539898        7.9309785581      -31.9661889339  SOLV      867             0.0000000000
      2720       878  TIP3      H1            -17.6148053197        7.9785208560      -31.1835050463  SOLV      867             0.0000000000
      2721       878  TIP3      H2            -16.6639676311        8.8064834240      -31.9633794223  SOLV      867             0.0000000000
      2722       879  TIP3      OH2           -15.8917248171       -1.4848655092      -28.0598424491  SOLV      868             0.0000000000
      2723       879  TIP3      H1            -15.3023693440       -0.7179653597      -28.2068018718  SOLV      868             0.0000000000
      2724       879  TIP3      H2            -15.8892403328       -1.5439695905      -27.0806686837  SOLV      868             0.0000000000
      2725       880  TIP3      OH2           -13.2202877720        1.7244893364      -20.0190226067  SOLV      869             0.0000000000
      2726       880  TIP3      H1            -12.9704447494        2.2566519908      -19.2347884371  SOLV      869             0.0000000000
      2727       880  TIP3      H2            -12.6810204273        0.9234960599      -19.8997032130  SOLV      869             0.0000000000
      2728       881  TIP3      OH2           -14.4294101341       -4.2213486756      -26.9461173030  SOLV      870             0.0000000000
      2729       881  TIP3      H1            -14.6192943291       -3.3823041051      -26.4879971366  SOLV      870             0.0000000000
      2730       881  TIP3      H2            -13.8945664635       -3.8980407070      -27.7057575694  SOLV      870             0.0000000000
      2731       882  TIP3      OH2            -6.8718538407        0.7595819769      -20.2054690813  SOLV      871             0.0000000000
      2732       882  TIP3      H1             -7.8498412785        0.7877125266      -20.0954584775  SOLV      871             0.0000000000
      2733       882  TIP3      H2             -6.8164188891        0.2206033469      -21.0045423041  SOLV      871             0.0000000000
      2734       883  TIP3      OH2           -10.3387966848        2.6871018800      -26.3109045269  SOLV      872             0.0000000000
      2735       883  TIP3      H1            -11.1149511408        2.1151054421      -26.1683500517  SOLV      872             0.0000000000
      2736       883  TIP3      H2             -9.6444132766        2.2174897699      -25.8002211082  SOLV      872             0.0000000000
      2737       884  TIP3      OH2           -10.6279384359       12.2767357955      -26.8088874019  SOLV      873             0.0000000000
      2738       884  TIP3      H1            -11.0476936274       12.7525397024      -27.5624510224  SOLV      873             0.0000000000
      2739       884  TIP3      H2             -9.6828457066       12.4721822628      -26.9996267850  SOLV      873             0.0000000000
      2740       885  TIP3      OH2           -19.9316319988       -4.9675878857      -21.4725202482  SOLV      874             0.0000000000
      2741       885  TIP3      H1            -20.2465925327       -5.2532431520      -22.3586937758  SOLV      874             0.0000000000
      2742       885  TIP3      H2            -19.9998122617       -5.7955354419      -20.9533648506  SOLV      874             0.0000000000
      2743       886  TIP3      OH2           -25.0091144321        6.7291217626      -26.9800324983  SOLV      875             0.0000000000
      2744       886  TIP3      H1            -24.9872324510        7.4653696928      -26.3841849001  SOLV      875             0.0000000000
      2745       886  TIP3      H2            -24.7487574141        7.1573881312      -27.8454885777  SOLV      875             0.0000000000
      2746       887  TIP3      OH2           -22.8632246393       12.6918785064      -17.0334644102  SOLV      876             0.0000000000
      2747       887  TIP3      H1            -22.0399803200       12.7383111627      -16.4824493177  SOLV      876             0.0000000000
      2748       887  TIP3      H2            -23.0153567180       11.7348941115      -17.0357796295  SOLV      876             0.0000000000
      2749       888  TIP3      OH2           -18.2429972763       11.8187566763      -16.2878910111  SOLV      877             0.0000000000
      2750       888  TIP3      H1            -17.4174749487       12.3085003217      -16.3892795465  SOLV      877             0.0000000000
      2751       888  TIP3      H2            -18.3139771410       11.3495739630      -17.1387255185  SOLV      877             0.0000000000
      2752       889  TIP3      OH2           -11.6528715359       11.2470666892      -19.2847234114  SOLV      878             0.0000000000
      2753       889  TIP3      H1            -11.7307875612       10.5678542076      -18.5750577037  SOLV      878             0.0000000000
      2754       889  TIP3      H2            -10.9273791450       11.8056177267      -18.9480664663  SOLV      878             0.0000000000
      2755       890  TIP3      OH2           -21.6125483547        6.6743139021      -14.9989302191  SOLV      879             0.0000000000
      2756       890  TIP3      H1            -21.4581274412        5.7191683771      -14.9121810569  SOLV      879             0.0000000000
      2757       890  TIP3      H2            -22.4853807087        6.7007119132      -15.4457954637  SOLV      879             0.0000000000
      2758       891  TIP3      OH2           -20.8689033408        3.8279817558      -33.0043044996  SOLV      880             0.0000000000
      2759       891  TIP3      H1            -20.5510130749        3.2683686044      -32.2759495415  SOLV      880             0.0000000000
      2760       891  TIP3      H2            -20.7785025386        3.2195734970      -33.7625506727  SOLV      880             0.0000000000
      2761       892  TIP3      OH2           -15.5291932879        7.5172786732      -17.2634588191  SOLV      881             0.0000000000
      2762       892  TIP3      H1            -15.9505223608        7.7454700049      -18.1171953380  SOLV      881             0.0000000000
      2763       892  TIP3      H2            -15.2055710419        6.6050346936      -17.4121563559  SOLV      881             0.0000000000
      2764       893  TIP3      OH2           -16.6178654639        4.8060149078      -35.1478079845  SOLV      882             0.0000000000
      2765       893  TIP3      H1            -16.5521231405        5.1141744691      -34.2153119768  SOLV      882             0.0000000000
      2766       893  TIP3      H2            -17.1394468313        4.0093619877      -35.0307152669  SOLV      882             0.0000000000
      2767       894  TIP3      OH2           -10.6230347768        7.6445678269      -21.2138218959  SOLV      883             0.0000000000
      2768       894  TIP3      H1             -9.8631258395        8.0867535847      -21.6363727350  SOLV      883             0.0000000000
      2769       894  TIP3      H2            -11.3188901498        8.3170500417      -21.3474028536  SOLV      883             0.0000000000
      2770       895  TIP3      OH2           -20.4438505123        3.9509826423      -15.2343306982  SOLV      884             0.0000000000
      2771       895  TIP3      H1            -19.6056718048        3.5776811422      -15.5347170235  SOLV      884             0.0000000000
      2772       895  TIP3      H2            -20.1838637728        4.2910646761      -14.3501953921  SOLV      884             0.0000000000
      2773       896  TIP3      OH2           -19.6870586687        2.1587897246      -30.8770702105  SOLV      885             0.0000000000
      2774       896  TIP3      H1            -19.9675444506        1.7451618993      -30.0445354666  SOLV      885             0.0000000000
      2775       896  TIP3      H2            -19.4434811701        1.3651783577      -31.4018517365  SOLV      885             0.0000000000
      2776       897  TIP3      OH2           -17.3002136791        2.5332749332      -18.8971211831  SOLV      886             0.0000000000
      2777       897  TIP3      H1            -17.9931902720        3.1955358786      -18.6506631514  SOLV      886             0.0000000000
      2778       897  TIP3      H2            -16.6850232386        3.0942495666      -19.4150767208  SOLV      886             0.0000000000
      2779       898  TIP3      OH2           -18.7801595353        0.1065854491      -32.5373526947  SOLV      887             0.0000000000
      2780       898  TIP3      H1            -18.8570195177       -0.3842132942      -33.3614632766  SOLV      887             0.0000000000
      2781       898  TIP3      H2            -17.8111025706        0.2705641758      -32.5094497709  SOLV      887             0.0000000000
      2782       899  TIP3      OH2           -11.9163921497        6.8228480796      -17.2765150370  SOLV      888             0.0000000000
      2783       899  TIP3      H1            -11.1049202727        6.5233871855      -17.6971521242  SOLV      888             0.0000000000
      2784       899  TIP3      H2            -11.9795634572        6.2207264425      -16.5105615407  SOLV      888             0.0000000000
      2785       900  TIP3      OH2           -15.8475004782        0.7523600793      -17.3498992767  SOLV      889             0.0000000000
      2786       900  TIP3      H1            -15.7795480390       -0.0611583923      -17.8897270999  SOLV      889             0.0000000000
      2787       900  TIP3      H2            -16.3485404912        1.3445662029      -17.9500631957  SOLV      889             0.0000000000
      2788       901  TIP3      OH2           -15.7814761215       -1.3942525804      -19.2369260816  SOLV      890             0.0000000000
      2789       901  TIP3      H1            -15.4808866204       -1.0208896916      -20.0864669759  SOLV      890             0.0000000000
      2790       901  TIP3      H2            -16.7075162325       -1.6443454712      -19.4402129651  SOLV      890             0.0000000000
      2791       902  TIP3      OH2           -15.5870536191        3.9766626872      -20.3962516359  SOLV      891             0.0000000000
      2792       902  TIP3      H1            -14.7267890846        4.1025904114      -20.8163478726  SOLV      891             0.0000000000
      2793       902  TIP3      H2            -16.1505257277        4.5946094184      -20.9129376668  SOLV      891             0.0000000000
      2794       903  TIP3      OH2            -9.7656252171        3.5822658167      -16.7488492251  SOLV      892             0.0000000000
      2795       903  TIP3      H1             -9.3026823876        2.7678609758      -16.4988937333  SOLV      892             0.0000000000
      2796       903  TIP3      H2             -9.0399023354        4.1342418695      -17.0745553857  SOLV      892             0.0000000000
      2797       904  TIP3      OH2            -9.3243984594        6.1229292234      -19.3918205004  SOLV      893             0.0000000000
      2798       904  TIP3      H1             -9.9054696847        6.6910379519      -19.9523349690  SOLV      893             0.0000000000
      2799       904  TIP3      H2             -8.4473152422        6.3446555197      -19.7769348140  SOLV      893             0.0000000000
      2800       905  TIP3      OH2           -17.0508221604        1.7671196699      -15.0042408261  SOLV      894             0.0000000000
      2801       905  TIP3      H1            -17.7325169906        1.0854765948      -14.8339462925  SOLV      894             0.0000000000
      2802       905  TIP3      H2            -16.7044839883        1.4877579951      -15.8740845611  SOLV      894             0.0000000000
      2803       906  TIP3      OH2           -14.4791163461       -3.7999397055      -18.5284111643  SOLV      895             0.0000000000
      2804       906  TIP3      H1            -14.9684463109       -2.9843307543      -18.7620851474  SOLV      895             0.0000000000
      2805       906  TIP3      H2            -15.1688141308       -4.4861103918      -18.6412222335  SOLV      895             0.0000000000
      2806       907  TIP3      OH2           -13.2170562657        1.2167947833      -16.3988991117  SOLV      896             0.0000000000
      2807       907  TIP3      H1            -13.3344753563        1.0687363044      -15.4414751342  SOLV      896             0.0000000000
      2808       907  TIP3      H2            -14.1231551814        1.0054722652      -16.7053445378  SOLV      896             0.0000000000
      2809       908  TIP3      OH2           -10.8531033011        0.7010166735      -17.8617003272  SOLV      897             0.0000000000
      2810       908  TIP3      H1            -11.5976333952        0.7221688951      -17.2286769199  SOLV      897             0.0000000000
      2811       908  TIP3      H2            -10.1061607588        0.4179427153      -17.2947019395  SOLV      897             0.0000000000
      2812       909  TIP3      OH2            -8.5245174800        0.1585441459      -16.3902613203  SOLV      898             0.0000000000
      2813       909  TIP3      H1             -8.3981982788       -0.7979847691      -16.2113192624  SOLV      898             0.0000000000
      2814       909  TIP3      H2             -8.6036503811        0.5335770745      -15.4867261910  SOLV      898             0.0000000000
      2815       910  TIP3      OH2           -18.6704021406       -0.4353752471      -14.4067256899  SOLV      899             0.0000000000
      2816       910  TIP3      H1            -18.6137461324       -1.3619698289      -14.7080303481  SOLV      899             0.0000000000
      2817       910  TIP3      H2            -18.2606515100       -0.5175886510      -13.5177666377  SOLV      899             0.0000000000
      2818       911  TIP3      OH2           -13.5683301257       -3.6954131057      -15.9419414186  SOLV      900             0.0000000000
      2819       911  TIP3      H1            -12.8964686868       -4.4037816206      -16.0000636208  SOLV      900             0.0000000000
      2820       911  TIP3      H2            -13.9530572675       -3.7463191485      -16.8399977575  SOLV      900             0.0000000000
      2821       912  TIP3      OH2           -12.8796497904       -1.5456623250      -14.3941695116  SOLV      901             0.0000000000
      2822       912  TIP3      H1            -13.1034197445       -2.2710035598      -15.0190613365  SOLV      901             0.0000000000
      2823       912  TIP3      H2            -13.6740569065       -0.9738443217      -14.4498984532  SOLV      901             0.0000000000
      2824       913  TIP3      OH2           -24.9895500653        8.8751019211      -25.3181583378  SOLV      902             0.0000000000
      2825       913  TIP3      H1            -25.1549837699        8.3655179576      -24.5042278716  SOLV      902             0.0000000000
      2826       913  TIP3      H2            -24.9278387617        9.7759768474      -24.9369971697  SOLV      902             0.0000000000
      2827       914  TIP3      OH2            -8.0607563921       13.1031904466      -27.1760828921  SOLV      903             0.0000000000
      2828       914  TIP3      H1             -7.8171297423       13.4702381206      -26.3066099151  SOLV      903             0.0000000000
      2829       914  TIP3      H2             -7.3687830918       13.4548752108      -27.7565204799  SOLV      903             0.0000000000
      2830       915  TIP3      OH2            -7.7756847020       13.3657299121      -24.3633747715  SOLV      904             0.0000000000
      2831       915  TIP3      H1             -8.2567693515       12.5118646793      -24.4159142375  SOLV      904             0.0000000000
      2832       915  TIP3      H2             -7.0679789159       13.1129011409      -23.7494284987  SOLV      904             0.0000000000
      2833       916  TIP3      OH2            -7.3252815778       10.1520607112      -18.6718975129  SOLV      905             0.0000000000
      2834       916  TIP3      H1             -8.0402786418       10.2407665997      -18.0093240929  SOLV      905             0.0000000000
      2835       916  TIP3      H2             -6.9015845088       11.0327681305      -18.6171006509  SOLV      905             0.0000000000
      2836       917  TIP3      OH2            -9.0871225351        5.5771671587      -32.4116131625  SOLV      906             0.0000000000
      2837       917  TIP3      H1             -8.1801672411        5.9341936442      -32.3108170620  SOLV      906             0.0000000000
      2838       917  TIP3      H2             -9.0456090746        4.9531979772      -31.6581910320  SOLV      906             0.0000000000
      2839       918  TIP3      OH2            -7.9620330891        3.9777909457      -30.4175543924  SOLV      907             0.0000000000
      2840       918  TIP3      H1             -8.5676587585        3.4918511121      -29.8146735104  SOLV      907             0.0000000000
      2841       918  TIP3      H2             -7.2594898149        4.2838501995      -29.8077953711  SOLV      907             0.0000000000
      2842       919  TIP3      OH2            -7.2974309530        7.9004092195      -26.1206800060  SOLV      908             0.0000000000
      2843       919  TIP3      H1             -6.7576957797        7.2273501796      -26.5773510242  SOLV      908             0.0000000000
      2844       919  TIP3      H2             -7.3538411471        8.6134107786      -26.7860638792  SOLV      908             0.0000000000
      2845       920  TIP3      OH2            -9.0698220812       10.8757568784      -24.2054938164  SOLV      909             0.0000000000
      2846       920  TIP3      H1             -9.7755944496       11.2991648119      -23.6771441941  SOLV      909             0.0000000000
      2847       920  TIP3      H2             -9.5817988100       10.4247532058      -24.9087510514  SOLV      909             0.0000000000
      2848       921  TIP3      OH2            -8.1600329322        3.0380709233      -33.7492433451  SOLV      910             0.0000000000
      2849       921  TIP3      H1             -8.5722955524        2.6525549424      -34.5444772951  SOLV      910             0.0000000000
      2850       921  TIP3      H2             -8.8022594512        3.6975226142      -33.4559465228  SOLV      910             0.0000000000
      2851       922  TIP3      OH2           -10.1935296524       -0.2687527457      -33.9038178950  SOLV      911             0.0000000000
      2852       922  TIP3      H1             -9.8625373205        0.1427172829      -34.7266238703  SOLV      911             0.0000000000
      2853       922  TIP3      H2            -10.4019183899       -1.1811003991      -34.1886364879  SOLV      911             0.0000000000
      2854       923  TIP3      OH2            -9.7935025924        2.4925432428      -29.0018596135  SOLV      912             0.0000000000
      2855       923  TIP3      H1             -9.7419478627        1.5239398907      -29.0702225841  SOLV      912             0.0000000000
      2856       923  TIP3      H2             -9.9432335544        2.6226327626      -28.0379207185  SOLV      912             0.0000000000
      2857       924  TIP3      OH2           -23.2476874306        3.0578682507      -21.4963087373  SOLV      913             0.0000000000
      2858       924  TIP3      H1            -23.4606408920        2.7281062383      -22.3951879345  SOLV      913             0.0000000000
      2859       924  TIP3      H2            -22.4713787625        3.6029121482      -21.7153885277  SOLV      913             0.0000000000
      2860       925  TIP3      OH2            -6.8496161271        6.7820596056      -20.4048588138  SOLV      914             0.0000000000
      2861       925  TIP3      H1             -6.1483856084        6.1049277247      -20.5327187961  SOLV      914             0.0000000000
      2862       925  TIP3      H2             -6.6003855094        7.4661513727      -21.0435999135  SOLV      914             0.0000000000
      2863       926  TIP3      OH2            -5.0239046246        4.7750190672      -20.3962836888  SOLV      915             0.0000000000
      2864       926  TIP3      H1             -5.7754610435        4.3022280052      -19.9747560618  SOLV      915             0.0000000000
      2865       926  TIP3      H2             -4.3011400562        4.1421850637      -20.1962823604  SOLV      915             0.0000000000
      2866       927  TIP3      OH2           -10.5212702741       -2.9347679292      -34.4615948771  SOLV      916             0.0000000000
      2867       927  TIP3      H1             -9.6486119954       -3.2601678751      -34.1698294703  SOLV      916             0.0000000000
      2868       927  TIP3      H2            -11.1134759884       -3.2841218588      -33.7785064092  SOLV      916             0.0000000000
      2869       928  TIP3      OH2            -9.7882900082       -0.3127550107      -30.0650852561  SOLV      917             0.0000000000
      2870       928  TIP3      H1             -9.3757360429       -1.1965735755      -29.9138579420  SOLV      917             0.0000000000
      2871       928  TIP3      H2             -9.2226843023        0.0081566870      -30.7898223782  SOLV      917             0.0000000000
      2872       929  TIP3      OH2            -8.2115019580        1.3723811111      -25.0855133746  SOLV      918             0.0000000000
      2873       929  TIP3      H1             -7.3562367622        1.6211230345      -25.5043756257  SOLV      918             0.0000000000
      2874       929  TIP3      H2             -8.0693292035        1.7628686352      -24.2010706666  SOLV      918             0.0000000000
      2875       930  TIP3      OH2            -7.4797366179        2.8726531207      -22.8135057563  SOLV      919             0.0000000000
      2876       930  TIP3      H1             -8.2331865651        3.1902896644      -22.2799772901  SOLV      919             0.0000000000
      2877       930  TIP3      H2             -7.1639136953        3.7031616962      -23.2285040707  SOLV      919             0.0000000000
      2878       931  TIP3      OH2           -21.3141298383        0.0698174114      -14.9102243869  SOLV      920             0.0000000000
      2879       931  TIP3      H1            -20.3403324111        0.0765686298      -14.7560456240  SOLV      920             0.0000000000
      2880       931  TIP3      H2            -21.5457112924       -0.7634753717      -14.4520374992  SOLV      920             0.0000000000
      2881       932  TIP3      OH2            -2.9765712057       -1.1722012824      -17.2469689945  SOLV      921             0.0000000000
      2882       932  TIP3      H1             -2.3741413610       -1.8228212813      -17.6610296076  SOLV      921             0.0000000000
      2883       932  TIP3      H2             -3.2794812781       -0.6536048846      -18.0229942749  SOLV      921             0.0000000000
      2884       933  TIP3      OH2            -8.6846543082       -2.8088125712      -29.6855918630  SOLV      922             0.0000000000
      2885       933  TIP3      H1             -8.2434382053       -2.9853415496      -28.8281919945  SOLV      922             0.0000000000
      2886       933  TIP3      H2             -9.3088827235       -3.5656628222      -29.7190699857  SOLV      922             0.0000000000
      2887       934  TIP3      OH2           -21.6897995224       -2.8450056571      -21.1634260209  SOLV      923             0.0000000000
      2888       934  TIP3      H1            -21.1389145412       -3.6582525526      -21.1754257537  SOLV      923             0.0000000000
      2889       934  TIP3      H2            -21.0463751421       -2.2023321193      -21.5044513364  SOLV      923             0.0000000000
      2890       935  TIP3      OH2           -22.8883106512        0.2497792728      -20.4593397879  SOLV      924             0.0000000000
      2891       935  TIP3      H1            -22.6837774691       -0.1036250336      -21.3188718696  SOLV      924             0.0000000000
      2892       935  TIP3      H2            -23.3916209949        1.0295925174      -20.7105281868  SOLV      924             0.0000000000
      2893       936  TIP3      OH2            -4.2935846875        0.1633788888      -19.2158603292  SOLV      925             0.0000000000
      2894       936  TIP3      H1             -5.1380638754        0.5795323310      -18.9526111336  SOLV      925             0.0000000000
      2895       936  TIP3      H2             -4.6309939998       -0.5681140237      -19.7672151638  SOLV      925             0.0000000000
      2896       937  TIP3      OH2            -7.8834065213       -3.5285237132      -33.4887320416  SOLV      926             0.0000000000
      2897       937  TIP3      H1             -7.4503146305       -3.9569786552      -34.2418901064  SOLV      926             0.0000000000
      2898       937  TIP3      H2             -7.3216026350       -2.7410481906      -33.3743684669  SOLV      926             0.0000000000
      2899       938  TIP3      OH2           -23.9382961567       -4.8764418554      -25.5079830649  SOLV      927             0.0000000000
      2900       938  TIP3      H1            -24.4961703660       -5.6577710517      -25.4672089444  SOLV      927             0.0000000000
      2901       938  TIP3      H2            -23.8178269565       -4.7559889656      -26.4768014284  SOLV      927             0.0000000000
      2902       939  TIP3      OH2           -12.2765686484       11.7563440827      -30.5769629111  SOLV      928             0.0000000000
      2903       939  TIP3      H1            -11.7516829129       11.6997164410      -31.3992690098  SOLV      928             0.0000000000
      2904       939  TIP3      H2            -11.9088203224       12.5431864385      -30.1378746085  SOLV      928             0.0000000000
      2905       940  TIP3      OH2           -21.6459057437       -4.2830035026      -17.5055238286  SOLV      929             0.0000000000
      2906       940  TIP3      H1            -22.1596259203       -4.4711087668      -16.7030229087  SOLV      929             0.0000000000
      2907       940  TIP3      H2            -22.3516106623       -4.0925241748      -18.1433391608  SOLV      929             0.0000000000
      2908       941  TIP3      OH2           -21.2396579176        9.8057191568      -16.9295467685  SOLV      930             0.0000000000
      2909       941  TIP3      H1            -22.2010528224        9.6499027162      -16.9187100404  SOLV      930             0.0000000000
      2910       941  TIP3      H2            -21.0432176330        9.9832926649      -16.0001852892  SOLV      930             0.0000000000
      2911       942  TIP3      OH2           -19.4518000714       10.2172207643      -21.4015456827  SOLV      931             0.0000000000
      2912       942  TIP3      H1            -19.9353809072       10.9866962287      -21.7688174031  SOLV      931             0.0000000000
      2913       942  TIP3      H2            -18.5907174815       10.3717503339      -21.8436275517  SOLV      931             0.0000000000
      2914       943  TIP3      OH2           -14.9626745938       12.5042051464      -20.0430811330  SOLV      932             0.0000000000
      2915       943  TIP3      H1            -14.6131343717       12.5641403357      -19.1256229722  SOLV      932             0.0000000000
      2916       943  TIP3      H2            -14.3824330878       13.1454697513      -20.5028358926  SOLV      932             0.0000000000
      2917       944  TIP3      OH2           -13.2459963670       14.2253900979      -21.3563840379  SOLV      933             0.0000000000
      2918       944  TIP3      H1            -12.5205196456       13.6827501244      -21.6915446858  SOLV      933             0.0000000000
      2919       944  TIP3      H2            -12.7663926991       14.8090180448      -20.7291730690  SOLV      933             0.0000000000
      2920       945  TIP3      OH2            -5.2817106389       -2.2372433592      -20.3832814748  SOLV      934             0.0000000000
      2921       945  TIP3      H1             -6.1905757192       -2.3686052994      -20.7057892323  SOLV      934             0.0000000000
      2922       945  TIP3      H2             -4.9235837973       -3.1506884931      -20.4689247434  SOLV      934             0.0000000000
      2923       946  TIP3      OH2           -22.6870922485       12.7589255035      -21.0257305337  SOLV      935             0.0000000000
      2924       946  TIP3      H1            -23.5999555895       13.0511805132      -21.2400141573  SOLV      935             0.0000000000
      2925       946  TIP3      H2            -22.5332862784       13.2424399384      -20.2075353567  SOLV      935             0.0000000000
      2926       947  TIP3      OH2           -20.3849312891       12.5469994923      -22.5168650829  SOLV      936             0.0000000000
      2927       947  TIP3      H1            -21.2524137879       12.6692600962      -22.0709833779  SOLV      936             0.0000000000
      2928       947  TIP3      H2            -20.5813952810       12.8572072670      -23.4229764408  SOLV      936             0.0000000000
      2929       948  TIP3      OH2           -16.0763802689       12.8367376130      -24.5499901865  SOLV      937             0.0000000000
      2930       948  TIP3      H1            -16.7594105821       13.0362114689      -25.2157392415  SOLV      937             0.0000000000
      2931       948  TIP3      H2            -15.9926827057       13.7040264404      -24.0986781729  SOLV      937             0.0000000000
      2932       949  TIP3      OH2           -13.4024241790       12.2146185652      -24.0476666063  SOLV      938             0.0000000000
      2933       949  TIP3      H1            -14.3554364746       12.3884443204      -24.1863754577  SOLV      938             0.0000000000
      2934       949  TIP3      H2            -13.0074007841       13.0096114659      -24.4349739925  SOLV      938             0.0000000000
      2935       950  TIP3      OH2           -11.2943758122       14.1727232107      -24.8887890791  SOLV      939             0.0000000000
      2936       950  TIP3      H1            -11.4828600434       15.0052652035      -25.3692397155  SOLV      939             0.0000000000
      2937       950  TIP3      H2            -11.0819023947       13.5583970631      -25.6246722128  SOLV      939             0.0000000000
      2938       951  TIP3      OH2           -23.4547202058       10.6403853333      -23.5990103795  SOLV      940             0.0000000000
      2939       951  TIP3      H1            -23.2110220486       10.2967270985      -22.7144460181  SOLV      940             0.0000000000
      2940       951  TIP3      H2            -22.7593305886       10.2211191690      -24.1498297342  SOLV      940             0.0000000000
      2941       952  TIP3      OH2           -21.5585812529        9.4381601955      -25.1305704890  SOLV      941             0.0000000000
      2942       952  TIP3      H1            -21.4236424577        8.5914737221      -24.6480238907  SOLV      941             0.0000000000
      2943       952  TIP3      H2            -20.6516108441        9.8118786067      -25.1225090418  SOLV      941             0.0000000000
      2944       953  TIP3      OH2           -18.9199381348       10.3763751081      -24.9876265493  SOLV      942             0.0000000000
      2945       953  TIP3      H1            -18.6478993684        9.4428281935      -25.0711044700  SOLV      942             0.0000000000
      2946       953  TIP3      H2            -18.4382387734       10.6129421949      -24.1712555847  SOLV      942             0.0000000000
      2947       954  TIP3      OH2           -13.2118040577       -3.0443969307      -24.0905535113  SOLV      943             0.0000000000
      2948       954  TIP3      H1            -13.6383464800       -3.7707611745      -23.5998529125  SOLV      943             0.0000000000
      2949       954  TIP3      H2            -12.5310553289       -3.5137508640      -24.6071346616  SOLV      943             0.0000000000
      2950       955  TIP3      OH2            -8.0439437312       -4.2239802640      -25.1524853844  SOLV      944             0.0000000000
      2951       955  TIP3      H1             -7.6964544395       -3.7068966890      -25.9117098672  SOLV      944             0.0000000000
      2952       955  TIP3      H2             -9.0025473899       -4.0482958923      -25.2151548819  SOLV      944             0.0000000000
      2953       956  TIP3      OH2            -7.0567918467       -3.2507695455      -27.5058965289  SOLV      945             0.0000000000
      2954       956  TIP3      H1             -6.3101449160       -3.7681662770      -27.8727216853  SOLV      945             0.0000000000
      2955       956  TIP3      H2             -6.7308523668       -2.3339234619      -27.6516978449  SOLV      945             0.0000000000
      2956       957  TIP3      OH2           -20.8843308712       -5.7309128011      -23.9414022890  SOLV      946             0.0000000000
      2957       957  TIP3      H1            -21.7189250659       -6.2338342908      -23.9467422313  SOLV      946             0.0000000000
      2958       957  TIP3      H2            -20.2251492092       -6.4601216901      -24.0090647879  SOLV      946             0.0000000000
      2959       958  TIP3      OH2           -16.0754414249       -5.7258329440      -25.2269913011  SOLV      947             0.0000000000
      2960       958  TIP3      H1            -15.5365326611       -5.1840498783      -25.8289704670  SOLV      947             0.0000000000
      2961       958  TIP3      H2            -15.9971090027       -5.2443526910      -24.3972222632  SOLV      947             0.0000000000
      2962       959  TIP3      OH2           -10.8624008200       -4.1705769597      -25.3955883275  SOLV      948             0.0000000000
      2963       959  TIP3      H1            -10.8988043854       -4.5892830609      -26.2627715197  SOLV      948             0.0000000000
      2964       959  TIP3      H2            -10.9625398941       -4.9533264250      -24.7998196653  SOLV      948             0.0000000000
      2965       960  TIP3      OH2           -10.5000036138       -4.9191293149      -29.7207111374  SOLV      949             0.0000000000
      2966       960  TIP3      H1            -11.3724259043       -4.5004322011      -29.5973772232  SOLV      949             0.0000000000
      2967       960  TIP3      H2            -10.6540968386       -5.7827963568      -29.2772936801  SOLV      949             0.0000000000
      2968       961  TIP3      OH2           -16.2748446215       -3.9786191486      -29.1236745708  SOLV      950             0.0000000000
      2969       961  TIP3      H1            -16.1553291769       -4.4375952816      -28.2821227367  SOLV      950             0.0000000000
      2970       961  TIP3      H2            -16.2330371990       -3.0499690928      -28.8158965719  SOLV      950             0.0000000000
      2971       962  TIP3      OH2           -10.8590090148       11.2941305515      -32.9022564039  SOLV      951             0.0000000000
      2972       962  TIP3      H1            -10.8337877285       10.4279138674      -33.3217658200  SOLV      951             0.0000000000
      2973       962  TIP3      H2            -11.0308303655       11.8831942384      -33.6761218918  SOLV      951             0.0000000000
      2974       963  TIP3      OH2           -18.6614523004       -3.1677373545      -15.1235612189  SOLV      952             0.0000000000
      2975       963  TIP3      H1            -19.0074727278       -3.8754578958      -14.5478444627  SOLV      952             0.0000000000
      2976       963  TIP3      H2            -17.7188784230       -3.1681930709      -14.8443172678  SOLV      952             0.0000000000
      2977       964  TIP3      OH2           -16.1761867760       -3.2027856125      -13.9356190296  SOLV      953             0.0000000000
      2978       964  TIP3      H1            -15.3078877585       -3.4496654966      -14.2979333642  SOLV      953             0.0000000000
      2979       964  TIP3      H2            -16.2986494070       -3.8936927089      -13.2507988833  SOLV      953             0.0000000000
      2980       965  TIP3      OH2            -7.9072979746       -2.5410089279      -16.0498968021  SOLV      954             0.0000000000
      2981       965  TIP3      H1             -7.7390615777       -2.8390991509      -15.1284297171  SOLV      954             0.0000000000
      2982       965  TIP3      H2             -7.0098477721       -2.5980815697      -16.4377166816  SOLV      954             0.0000000000
      2983       966  TIP3      OH2            -8.5476072573       12.9288948052      -21.1593659467  SOLV      955             0.0000000000
      2984       966  TIP3      H1             -9.3540102721       12.6231311250      -21.6234613967  SOLV      955             0.0000000000
      2985       966  TIP3      H2             -8.7606963906       13.8771541325      -21.0470045222  SOLV      955             0.0000000000
      2986       967  TIP3      OH2             4.0227469956        6.7651895154      -29.5757932932  SOLV      956             0.0000000000
      2987       967  TIP3      H1              4.3999852188        6.4366797915      -28.7360256098  SOLV      956             0.0000000000
      2988       967  TIP3      H2              3.6691735660        5.9453548010      -29.9606369294  SOLV      956             0.0000000000
      2989       968  TIP3      OH2            -2.9189152107        5.5540355175      -25.9918352316  SOLV      957             0.0000000000
      2990       968  TIP3      H1             -2.6402500102        4.8642374671      -25.3606591944  SOLV      957             0.0000000000
      2991       968  TIP3      H2             -2.1646333150        6.1555788307      -25.9411212147  SOLV      957             0.0000000000
      2992       969  TIP3      OH2            -3.2237882790        9.7592121413      -28.7639823297  SOLV      958             0.0000000000
      2993       969  TIP3      H1             -3.3059502115        8.7788263740      -28.7279685161  SOLV      958             0.0000000000
      2994       969  TIP3      H2             -2.2812330546        9.8634464708      -28.5934399855  SOLV      958             0.0000000000
      2995       970  TIP3      OH2            -6.0574359848        1.7853876997      -31.0050114458  SOLV      959             0.0000000000
      2996       970  TIP3      H1             -6.5761414991        2.5849926485      -30.8120634986  SOLV      959             0.0000000000
      2997       970  TIP3      H2             -6.7706727696        1.1942929694      -31.3102224253  SOLV      959             0.0000000000
      2998       971  TIP3      OH2            -5.5198824703        4.6123932834      -29.2049877777  SOLV      960             0.0000000000
      2999       971  TIP3      H1             -5.0132948363        3.8530527084      -28.8389549006  SOLV      960             0.0000000000
      3000       971  TIP3      H2             -4.8933717817        4.9716736815      -29.8475868974  SOLV      960             0.0000000000
      3001       972  TIP3      OH2             2.1932923217        8.9527549212      -29.2144574269  SOLV      961             0.0000000000
      3002       972  TIP3      H1              2.6043973978        8.1165062788      -29.5120684961  SOLV      961             0.0000000000
      3003       972  TIP3      H2              3.0107286931        9.4282094208      -28.9580530653  SOLV      961             0.0000000000
      3004       973  TIP3      OH2            11.8561586197        2.2323632464      -28.7923592726  SOLV      962             0.0000000000
      3005       973  TIP3      H1             12.3298409818        2.9772673598      -28.3585420447  SOLV      962             0.0000000000
      3006       973  TIP3      H2             12.2182948251        2.2896335660      -29.7027735888  SOLV      962             0.0000000000
      3007       974  TIP3      OH2             6.4431376662        4.0257716684      -28.7200446035  SOLV      963             0.0000000000
      3008       974  TIP3      H1              6.7614324079        3.1345385938      -28.4870849873  SOLV      963             0.0000000000
      3009       974  TIP3      H2              5.9844534844        3.8313497981      -29.5621932776  SOLV      963             0.0000000000
      3010       975  TIP3      OH2            -0.4227787646        0.4861826163      -29.0986133954  SOLV      964             0.0000000000
      3011       975  TIP3      H1             -0.5888847825        1.2595638621      -29.6754431105  SOLV      964             0.0000000000
      3012       975  TIP3      H2             -0.8601626022       -0.2253141918      -29.6124278914  SOLV      964             0.0000000000
      3013       976  TIP3      OH2            -4.0408675343        2.5564238255      -28.1679308970  SOLV      965             0.0000000000
      3014       976  TIP3      H1             -3.2263265440        2.3652917387      -27.6636090306  SOLV      965             0.0000000000
      3015       976  TIP3      H2             -3.8994820329        1.9879825367      -28.9484412359  SOLV      965             0.0000000000
      3016       977  TIP3      OH2             0.4192616327        4.6562671970      -30.1381985304  SOLV      966             0.0000000000
      3017       977  TIP3      H1              1.3537397188        4.3862866397      -30.0081740491  SOLV      966             0.0000000000
      3018       977  TIP3      H2              0.0011622059        3.8076166377      -30.3920174384  SOLV      966             0.0000000000
      3019       978  TIP3      OH2            12.9143343446        4.3428615466      -27.4010856854  SOLV      967             0.0000000000
      3020       978  TIP3      H1             12.0379235995        4.7607099785      -27.2560389918  SOLV      967             0.0000000000
      3021       978  TIP3      H2             13.4196823779        4.7109161584      -26.6528039008  SOLV      967             0.0000000000
      3022       979  TIP3      OH2            -0.4183520576        0.3707227703      -24.8420766482  SOLV      968             0.0000000000
      3023       979  TIP3      H1             -1.0153370029        0.7563874910      -25.5100564795  SOLV      968             0.0000000000
      3024       979  TIP3      H2             -0.9452956504        0.5303335640      -24.0302681134  SOLV      968             0.0000000000
      3025       980  TIP3      OH2             0.6598440063        8.1628261026      -26.9931069754  SOLV      969             0.0000000000
      3026       980  TIP3      H1              0.0352411487        8.8211539294      -26.6128519430  SOLV      969             0.0000000000
      3027       980  TIP3      H2              1.1021586939        8.6751090790      -27.6950816538  SOLV      969             0.0000000000
      3028       981  TIP3      OH2             8.3101726448        1.0411692938      -31.4029065799  SOLV      970             0.0000000000
      3029       981  TIP3      H1              8.2260389201        1.0611742012      -30.4410088683  SOLV      970             0.0000000000
      3030       981  TIP3      H2              8.9757481589        1.7395319573      -31.5930338609  SOLV      970             0.0000000000
      3031       982  TIP3      OH2            -1.7250618335        1.5582602336      -26.9765406990  SOLV      971             0.0000000000
      3032       982  TIP3      H1             -1.1009606833        2.2856144211      -26.7558300229  SOLV      971             0.0000000000
      3033       982  TIP3      H2             -1.2175054578        1.1107100839      -27.6934939387  SOLV      971             0.0000000000
      3034       983  TIP3      OH2            -1.0725175908       10.1066037972      -26.0055263659  SOLV      972             0.0000000000
      3035       983  TIP3      H1             -1.3169436926       11.0168223265      -26.2791204304  SOLV      972             0.0000000000
      3036       983  TIP3      H2             -1.8444280127        9.9071816347      -25.4303283426  SOLV      972             0.0000000000
      3037       984  TIP3      OH2            -7.2505682824        7.3220910877      -33.4991312885  SOLV      973             0.0000000000
      3038       984  TIP3      H1             -6.5327205861        7.3203858019      -34.1384289226  SOLV      973             0.0000000000
      3039       984  TIP3      H2             -7.0485295004        8.1525400515      -32.9999658235  SOLV      973             0.0000000000
      3040       985  TIP3      OH2             9.8570987787        1.0065641381      -27.3668944114  SOLV      974             0.0000000000
      3041       985  TIP3      H1              8.9866912138        1.2430761180      -27.7295651738  SOLV      974             0.0000000000
      3042       985  TIP3      H2             10.4771665258        1.4410837179      -27.9909325205  SOLV      974             0.0000000000
      3043       986  TIP3      OH2             3.0568724061       -2.4974480576      -27.7302876508  SOLV      975             0.0000000000
      3044       986  TIP3      H1              2.9401934568       -3.4377406545      -27.4904869411  SOLV      975             0.0000000000
      3045       986  TIP3      H2              2.3020316113       -2.0980243846      -27.2446850033  SOLV      975             0.0000000000
      3046       987  TIP3      OH2             9.5229575715       11.2104113830      -27.7320779167  SOLV      976             0.0000000000
      3047       987  TIP3      H1              9.4721798870       10.4133568785      -28.3022208670  SOLV      976             0.0000000000
      3048       987  TIP3      H2              9.3308318266       11.9326193438      -28.3722521870  SOLV      976             0.0000000000
      3049       988  TIP3      OH2            11.4070376390        7.4062430462      -29.0815448482  SOLV      977             0.0000000000
      3050       988  TIP3      H1             10.6745967235        8.0575670643      -29.1690017599  SOLV      977             0.0000000000
      3051       988  TIP3      H2             12.0073281347        7.7225215242      -29.7649208969  SOLV      977             0.0000000000
      3052       989  TIP3      OH2             8.1132299824        6.4254247758      -26.1719426410  SOLV      978             0.0000000000
      3053       989  TIP3      H1              8.1290549201        7.2329522053      -25.6212661210  SOLV      978             0.0000000000
      3054       989  TIP3      H2              7.2612112177        6.5288274869      -26.6379078128  SOLV      978             0.0000000000
      3055       990  TIP3      OH2            -1.8463637035        6.0873835235      -30.9916086423  SOLV      979             0.0000000000
      3056       990  TIP3      H1             -2.3561456659        5.5752239497      -31.6541498707  SOLV      979             0.0000000000
      3057       990  TIP3      H2             -1.0056101392        5.5962228905      -30.9439810567  SOLV      979             0.0000000000
      3058       991  TIP3      OH2            -0.3070402558        9.8674175719      -30.0538492921  SOLV      980             0.0000000000
      3059       991  TIP3      H1             -0.6871655432        8.9864050161      -30.1316385142  SOLV      980             0.0000000000
      3060       991  TIP3      H2              0.6137010467        9.6533994218      -29.7834191405  SOLV      980             0.0000000000
      3061       992  TIP3      OH2            -0.3899827852        5.7027086063      -27.7106428940  SOLV      981             0.0000000000
      3062       992  TIP3      H1             -0.0886327073        5.4656682394      -28.6141199862  SOLV      981             0.0000000000
      3063       992  TIP3      H2              0.0343464249        6.5710667833      -27.5626203169  SOLV      981             0.0000000000
      3064       993  TIP3      OH2             4.8079662431       12.0219668230      -30.0030742893  SOLV      982             0.0000000000
      3065       993  TIP3      H1              4.8287178958       12.8042832395      -29.4346515013  SOLV      982             0.0000000000
      3066       993  TIP3      H2              4.7977247691       11.2814076998      -29.3682402201  SOLV      982             0.0000000000
      3067       994  TIP3      OH2             0.9580040646       11.2231255261      -24.5225582330  SOLV      983             0.0000000000
      3068       994  TIP3      H1              0.3571436866       11.8244276621      -24.0285705635  SOLV      983             0.0000000000
      3069       994  TIP3      H2              0.2946260104       10.7040405874      -25.0237080897  SOLV      983             0.0000000000
      3070       995  TIP3      OH2            -1.4759085600        6.8388323138      -23.4700327836  SOLV      984             0.0000000000
      3071       995  TIP3      H1             -1.4244293647        7.7059413800      -23.0206971940  SOLV      984             0.0000000000
      3072       995  TIP3      H2             -2.4135235273        6.6138286712      -23.2964876087  SOLV      984             0.0000000000
      3073       996  TIP3      OH2            -1.0686040435       12.8935331758      -23.5995673177  SOLV      985             0.0000000000
      3074       996  TIP3      H1             -1.4330014891       12.9312295820      -24.5024133854  SOLV      985             0.0000000000
      3075       996  TIP3      H2             -1.8717424321       12.6891131071      -23.0642621424  SOLV      985             0.0000000000
      3076       997  TIP3      OH2            -3.4603813893        4.5312660233      -32.6392944687  SOLV      986             0.0000000000
      3077       997  TIP3      H1             -3.1185526965        4.5124716338      -33.5493447341  SOLV      986             0.0000000000
      3078       997  TIP3      H2             -3.9435766343        3.6987535904      -32.5738521708  SOLV      986             0.0000000000
      3079       998  TIP3      OH2            -5.2824189783        8.2774048815      -24.1454226562  SOLV      987             0.0000000000
      3080       998  TIP3      H1             -5.9825889371        8.0737583333      -24.8001140576  SOLV      987             0.0000000000
      3081       998  TIP3      H2             -4.9265133390        7.3929981235      -23.9252072205  SOLV      987             0.0000000000
      3082       999  TIP3      OH2            -6.7741640800       10.1838786406      -27.8341064837  SOLV      988             0.0000000000
      3083       999  TIP3      H1             -5.8067696455       10.1847055747      -27.8743862772  SOLV      988             0.0000000000
      3084       999  TIP3      H2             -6.9433218751       10.9549767459      -27.2704620144  SOLV      988             0.0000000000
      3085      1000  TIP3      OH2            12.0183810134       14.6350245956      -26.8836162306  SOLV      989             0.0000000000
      3086      1000  TIP3      H1             11.9131312059       13.6691832933      -26.9131334304  SOLV      989             0.0000000000
      3087      1000  TIP3      H2             11.1161594594       14.9201441172      -26.6490866695  SOLV      989             0.0000000000
      3088      1001  TIP3      OH2             2.8916246693       12.6414656604      -25.8001540069  SOLV      990             0.0000000000
      3089      1001  TIP3      H1              2.9532340605       13.3369649790      -25.1346088459  SOLV      990             0.0000000000
      3090      1001  TIP3      H2              2.1455905778       12.1136546321      -25.4332727425  SOLV      990             0.0000000000
      3091      1002  TIP3      OH2           -17.3092102924       -1.0784827273       29.6444575160  SOLV      991             0.0000000000
      3092      1002  TIP3      H1            -16.8288369476       -1.0153406549       30.5008567715  SOLV      991             0.0000000000
      3093      1002  TIP3      H2            -17.7716195553       -0.2139900678       29.6788984615  SOLV      991             0.0000000000
      3094      1003  TIP3      OH2            10.7525136553        5.9440432392      -24.3493368473  SOLV      992             0.0000000000
      3095      1003  TIP3      H1              9.9447542227        6.0237857928      -24.8728457864  SOLV      992             0.0000000000
      3096      1003  TIP3      H2             10.9462571242        4.9883528708      -24.4456705012  SOLV      992             0.0000000000
      3097      1004  TIP3      OH2            -3.2317577176       10.0933612000      -24.3386890575  SOLV      993             0.0000000000
      3098      1004  TIP3      H1             -2.7618053000        9.9513798590      -23.4922755954  SOLV      993             0.0000000000
      3099      1004  TIP3      H2             -3.9808809300        9.4649575400      -24.2517130238  SOLV      993             0.0000000000
      3100      1005  TIP3      OH2             0.7251529675       -1.6670877187      -26.3808534693  SOLV      994             0.0000000000
      3101      1005  TIP3      H1             -0.1572056806       -1.9791920200      -26.6721392871  SOLV      994             0.0000000000
      3102      1005  TIP3      H2              0.4508920889       -0.8795097129      -25.8690098810  SOLV      994             0.0000000000
      3103      1006  TIP3      OH2             6.1010438908       -0.5405112812      -24.4463953455  SOLV      995             0.0000000000
      3104      1006  TIP3      H1              6.8036668900       -0.8039883747      -23.8155037564  SOLV      995             0.0000000000
      3105      1006  TIP3      H2              5.2799644086       -0.7418247996      -23.9524922671  SOLV      995             0.0000000000
      3106      1007  TIP3      OH2             8.4013850207        3.7807578964      -25.2882983067  SOLV      996             0.0000000000
      3107      1007  TIP3      H1              7.9408388484        3.7336962214      -24.4191731865  SOLV      996             0.0000000000
      3108      1007  TIP3      H2              8.1427995134        4.6631823845      -25.6134731396  SOLV      996             0.0000000000
      3109      1008  TIP3      OH2             0.0759969298        3.4906824668      -26.2136526547  SOLV      997             0.0000000000
      3110      1008  TIP3      H1             -0.4326726015        3.6752427088      -25.3964941241  SOLV      997             0.0000000000
      3111      1008  TIP3      H2             -0.0982557600        4.3097786823      -26.7327615221  SOLV      997             0.0000000000
      3112      1009  TIP3      OH2            -0.9904607294        2.4017810107      -30.9285246126  SOLV      998             0.0000000000
      3113      1009  TIP3      H1             -1.9238274429        2.0889978939      -30.9350218938  SOLV      998             0.0000000000
      3114      1009  TIP3      H2             -0.5987426166        1.9853368348      -31.7052389569  SOLV      998             0.0000000000
      3115      1010  TIP3      OH2             5.5456968919        5.9491540477      -22.9681976025  SOLV      999             0.0000000000
      3116      1010  TIP3      H1              5.3119244998        5.2197315286      -22.3510635508  SOLV      999             0.0000000000
      3117      1010  TIP3      H2              6.4831493188        6.0821391761      -22.7299871604  SOLV      999             0.0000000000
      3118      1011  TIP3      OH2             5.2982609817        3.2578470949      -31.0682497481  SOLV      1000            0.0000000000
      3119      1011  TIP3      H1              5.1678600097        3.6951524367      -31.9375832212  SOLV      1000            0.0000000000
      3120      1011  TIP3      H2              5.6808819399        2.4257275405      -31.3747976246  SOLV      1000            0.0000000000
      3121      1012  TIP3      OH2            -1.7406234502        3.7459621006      -24.1383715882  SOLV      1001            0.0000000000
      3122      1012  TIP3      H1             -1.4842480995        4.3637415367      -23.4389372630  SOLV      1001            0.0000000000
      3123      1012  TIP3      H2             -1.8835374341        2.9192123604      -23.6354185869  SOLV      1001            0.0000000000
      3124      1013  TIP3      OH2            -5.8241180999       -1.0014601394      -28.3812394114  SOLV      1002            0.0000000000
      3125      1013  TIP3      H1             -5.0736015237       -0.7178739831      -27.8174143024  SOLV      1002            0.0000000000
      3126      1013  TIP3      H2             -5.3991841319       -1.4137217761      -29.1454162002  SOLV      1002            0.0000000000
      3127      1014  TIP3      OH2            -6.2121044713       -1.1848410996      -33.0866207191  SOLV      1003            0.0000000000
      3128      1014  TIP3      H1             -5.8126379819       -1.0229767527      -33.9472684206  SOLV      1003            0.0000000000
      3129      1014  TIP3      H2             -6.8199455867       -0.4271189108      -32.9631751646  SOLV      1003            0.0000000000
      3130      1015  TIP3      OH2             5.3473881713        5.9755144599      -27.2208255307  SOLV      1004            0.0000000000
      3131      1015  TIP3      H1              5.8032003075        5.2974667089      -27.7726449470  SOLV      1004            0.0000000000
      3132      1015  TIP3      H2              5.1024724383        5.4174811092      -26.4514629851  SOLV      1004            0.0000000000
      3133      1016  TIP3      OH2             2.1772206524        0.4463302170      -30.2756334220  SOLV      1005            0.0000000000
      3134      1016  TIP3      H1              1.4570466810        0.4484488164      -29.6167831267  SOLV      1005            0.0000000000
      3135      1016  TIP3      H2              2.9700233720        0.3888010444      -29.7118208352  SOLV      1005            0.0000000000
      3136      1017  TIP3      OH2            -3.4420763139        1.1407178986      -30.5731153945  SOLV      1006            0.0000000000
      3137      1017  TIP3      H1             -4.4009793317        1.2751739844      -30.7630455189  SOLV      1006            0.0000000000
      3138      1017  TIP3      H2             -3.3438979643        0.1800872294      -30.6702346130  SOLV      1006            0.0000000000
      3139      1018  TIP3      OH2             7.1121010733        1.3299845023      -28.3931019926  SOLV      1007            0.0000000000
      3140      1018  TIP3      H1              6.7775936129        1.4469765664      -27.4716737006  SOLV      1007            0.0000000000
      3141      1018  TIP3      H2              6.4455191962        0.7126527817      -28.7399656515  SOLV      1007            0.0000000000
      3142      1019  TIP3      OH2             8.8801085331       18.1181481332      -26.5125809512  SOLV      1008            0.0000000000
      3143      1019  TIP3      H1              8.8358675760       18.8155394089      -27.1991259510  SOLV      1008            0.0000000000
      3144      1019  TIP3      H2              9.5595260724       18.5214187401      -25.9440482369  SOLV      1008            0.0000000000
      3145      1020  TIP3      OH2            -1.6124291741        9.3254368648      -22.0760857629  SOLV      1009            0.0000000000
      3146      1020  TIP3      H1             -0.8283047564        9.6030151500      -21.5638522520  SOLV      1009            0.0000000000
      3147      1020  TIP3      H2             -2.2793321007        9.2882029176      -21.3606456189  SOLV      1009            0.0000000000
      3148      1021  TIP3      OH2             3.0107047171        3.8946870173      -29.4552005181  SOLV      1010            0.0000000000
      3149      1021  TIP3      H1              3.7355125230        3.5040811466      -29.9788193416  SOLV      1010            0.0000000000
      3150      1021  TIP3      H2              3.0550197616        3.3933803972      -28.6200017067  SOLV      1010            0.0000000000
      3151      1022  TIP3      OH2            -1.6464677376       -1.4111292303      -30.7265745462  SOLV      1011            0.0000000000
      3152      1022  TIP3      H1             -2.1763626418       -2.0652578573      -30.2207791328  SOLV      1011            0.0000000000
      3153      1022  TIP3      H2             -0.9162343524       -1.9698960866      -31.0185056868  SOLV      1011            0.0000000000
      3154      1023  TIP3      OH2             2.7567853421        2.8774698361      -26.6650556915  SOLV      1012            0.0000000000
      3155      1023  TIP3      H1              1.8523604813        3.2043290982      -26.4779261598  SOLV      1012            0.0000000000
      3156      1023  TIP3      H2              3.3214888048        3.4679305947      -26.1297203434  SOLV      1012            0.0000000000
      3157      1024  TIP3      OH2             9.1450115479        9.0576357739      -29.4088793260  SOLV      1013            0.0000000000
      3158      1024  TIP3      H1              9.1240597431        9.6152276153      -30.2030667903  SOLV      1013            0.0000000000
      3159      1024  TIP3      H2              8.2669775546        8.6164407174      -29.4568860754  SOLV      1013            0.0000000000
      3160      1025  TIP3      OH2             4.3031943671       10.0407292450      -25.6652114438  SOLV      1014            0.0000000000
      3161      1025  TIP3      H1              4.5162791017        9.6169104027      -24.8216022695  SOLV      1014            0.0000000000
      3162      1025  TIP3      H2              3.6892179517       10.7393721131      -25.4061097553  SOLV      1014            0.0000000000
      3163      1026  TIP3      OH2            -2.9388957933        7.0507719021      -28.7336511824  SOLV      1015            0.0000000000
      3164      1026  TIP3      H1             -2.5832513606        6.7356969505      -29.5961353635  SOLV      1015            0.0000000000
      3165      1026  TIP3      H2             -2.5651367416        6.3918759300      -28.1289914657  SOLV      1015            0.0000000000
      3166      1027  TIP3      OH2            -4.0914277944        6.1191277536      -22.7833348612  SOLV      1016            0.0000000000
      3167      1027  TIP3      H1             -3.9521399174        5.9772700756      -21.8264656568  SOLV      1016            0.0000000000
      3168      1027  TIP3      H2             -4.8047909514        5.4804991963      -22.9617726650  SOLV      1016            0.0000000000
      3169      1028  TIP3      OH2             3.1642572736        7.3560799667      -22.5914337969  SOLV      1017            0.0000000000
      3170      1028  TIP3      H1              2.5357403706        6.7217614744      -22.9699811821  SOLV      1017            0.0000000000
      3171      1028  TIP3      H2              4.0198360874        6.9564770231      -22.8604753562  SOLV      1017            0.0000000000
      3172      1029  TIP3      OH2             5.6219130176       12.6996857064      -26.7891788682  SOLV      1018            0.0000000000
      3173      1029  TIP3      H1              4.6787039971       12.4745277387      -26.6728223053  SOLV      1018            0.0000000000
      3174      1029  TIP3      H2              5.9569460171       12.6240793953      -25.8895368298  SOLV      1018            0.0000000000
      3175      1030  TIP3      OH2            12.0640274292       11.6788813991      -26.9134093508  SOLV      1019            0.0000000000
      3176      1030  TIP3      H1             11.0939121843       11.6195791161      -27.0731264331  SOLV      1019            0.0000000000
      3177      1030  TIP3      H2             12.4185266193       11.4248766198      -27.7787935193  SOLV      1019            0.0000000000
      3178      1031  TIP3      OH2             6.7378575725        7.7586692050      -29.8790889384  SOLV      1020            0.0000000000
      3179      1031  TIP3      H1              5.7892496378        7.5539542891      -29.9437742385  SOLV      1020            0.0000000000
      3180      1031  TIP3      H2              7.1087817926        6.9982383551      -30.3797186679  SOLV      1020            0.0000000000
      3181      1032  TIP3      OH2             0.8103418266       13.3794616242      -28.0032616950  SOLV      1021            0.0000000000
      3182      1032  TIP3      H1              1.1659538261       14.0876784350      -28.5802276053  SOLV      1021            0.0000000000
      3183      1032  TIP3      H2              1.6112918117       13.0812514875      -27.5480967672  SOLV      1021            0.0000000000
      3184      1033  TIP3      OH2             4.7081119283        9.7903053582      -28.3498200956  SOLV      1022            0.0000000000
      3185      1033  TIP3      H1              4.5979948765        9.7680397328      -27.3718592748  SOLV      1022            0.0000000000
      3186      1033  TIP3      H2              5.4096146031        9.1359966423      -28.4903420821  SOLV      1022            0.0000000000
      3187      1034  TIP3      OH2             6.7769320265       15.3320432426      -27.4757607433  SOLV      1023            0.0000000000
      3188      1034  TIP3      H1              6.1138307315       14.7539039794      -27.9197368003  SOLV      1023            0.0000000000
      3189      1034  TIP3      H2              6.9538152297       15.9586720943      -28.1927121310  SOLV      1023            0.0000000000
      3190      1035  TIP3      OH2            -2.0478065568        1.2070157543      -22.7343150323  SOLV      1024            0.0000000000
      3191      1035  TIP3      H1             -3.0147101075        1.2462524633      -22.6043551242  SOLV      1024            0.0000000000
      3192      1035  TIP3      H2             -1.7709980907        0.6714994886      -21.9730493240  SOLV      1024            0.0000000000
      3193      1036  TIP3      OH2            -4.8048552317       11.9658945873      -26.3517766164  SOLV      1025            0.0000000000
      3194      1036  TIP3      H1             -4.2888613322       11.2976648910      -25.8721399420  SOLV      1025            0.0000000000
      3195      1036  TIP3      H2             -4.6444696517       12.7546147877      -25.8187414169  SOLV      1025            0.0000000000
      3196      1037  TIP3      OH2             6.3466961726        1.8442737619      -25.8181431101  SOLV      1026            0.0000000000
      3197      1037  TIP3      H1              7.1491990827        2.2383640471      -25.4345591289  SOLV      1026            0.0000000000
      3198      1037  TIP3      H2              6.2302873809        1.0344037612      -25.2741407818  SOLV      1026            0.0000000000
      3199      1038  TIP3      OH2             1.2457743403        1.0689902576      -32.8170293584  SOLV      1027            0.0000000000
      3200      1038  TIP3      H1              2.1339397570        1.2588348540      -33.1937774058  SOLV      1027            0.0000000000
      3201      1038  TIP3      H2              1.5284733079        0.7883609615      -31.9192153452  SOLV      1027            0.0000000000
      3202      1039  TIP3      OH2             4.7529114629        4.3001214505      -25.1560151278  SOLV      1028            0.0000000000
      3203      1039  TIP3      H1              5.0048571976        4.7917127701      -24.3482356524  SOLV      1028            0.0000000000
      3204      1039  TIP3      H2              5.2716121942        3.4803065869      -25.0700249111  SOLV      1028            0.0000000000
      3205      1040  TIP3      OH2             3.5775554572       -1.6052031720      -32.0840305800  SOLV      1029            0.0000000000
      3206      1040  TIP3      H1              3.5628759627       -0.8727972743      -31.4485220556  SOLV      1029            0.0000000000
      3207      1040  TIP3      H2              4.0662367097       -1.2030700352      -32.8234782114  SOLV      1029            0.0000000000
      3208      1041  TIP3      OH2            -1.2344153281       -2.0813747713      -34.1897041481  SOLV      1030            0.0000000000
      3209      1041  TIP3      H1             -1.4142221139       -1.2639918007      -33.7036543887  SOLV      1030            0.0000000000
      3210      1041  TIP3      H2             -0.2880207137       -1.9928754529      -34.4074015498  SOLV      1030            0.0000000000
      3211      1042  TIP3      OH2            11.0562156857        3.2759865266      -25.2157352313  SOLV      1031            0.0000000000
      3212      1042  TIP3      H1             10.0732543748        3.2994735217      -25.2025473828  SOLV      1031            0.0000000000
      3213      1042  TIP3      H2             11.2036367059        2.8416186596      -26.0634461292  SOLV      1031            0.0000000000
      3214      1043  TIP3      OH2             7.7784951320        5.6225962111      -31.2481961431  SOLV      1032            0.0000000000
      3215      1043  TIP3      H1              7.2028197006        4.9716663483      -31.6689292467  SOLV      1032            0.0000000000
      3216      1043  TIP3      H2              8.3403383111        5.0629140922      -30.6783919284  SOLV      1032            0.0000000000
      3217      1044  TIP3      OH2            -1.8971066636       -2.4994728873      -26.7045918887  SOLV      1033            0.0000000000
      3218      1044  TIP3      H1             -2.2183418313       -2.8542019384      -27.5587290620  SOLV      1033            0.0000000000
      3219      1044  TIP3      H2             -2.0068616952       -3.2711462851      -26.1095207096  SOLV      1033            0.0000000000
      3220      1045  TIP3      OH2            -6.9868017942        9.8021793549      -32.4910015034  SOLV      1034            0.0000000000
      3221      1045  TIP3      H1             -7.2791965522       10.2337668617      -31.6582248231  SOLV      1034            0.0000000000
      3222      1045  TIP3      H2             -6.1504581505       10.2907815357      -32.6315319499  SOLV      1034            0.0000000000
      3223      1046  TIP3      OH2            -4.9145733242       15.2283787703      -22.1719766166  SOLV      1035            0.0000000000
      3224      1046  TIP3      H1             -4.0651590761       15.2245450070      -21.6772316806  SOLV      1035            0.0000000000
      3225      1046  TIP3      H2             -5.1415934419       14.2833729177      -22.1565646380  SOLV      1035            0.0000000000
      3226      1047  TIP3      OH2            -0.1646728935       14.7572060831      -21.7587376772  SOLV      1036            0.0000000000
      3227      1047  TIP3      H1              0.7519524583       14.4896343619      -21.6070456944  SOLV      1036            0.0000000000
      3228      1047  TIP3      H2             -0.4423593161       14.0993667427      -22.4285559203  SOLV      1036            0.0000000000
      3229      1048  TIP3      OH2             6.4468433895       13.9079049871      -24.3280063109  SOLV      1037            0.0000000000
      3230      1048  TIP3      H1              6.1021964156       13.2067111173      -23.7231107535  SOLV      1037            0.0000000000
      3231      1048  TIP3      H2              7.2418274973       14.1746036859      -23.8083562195  SOLV      1037            0.0000000000
      3232      1049  TIP3      OH2            -3.6384398414        9.2367340992      -20.1702597852  SOLV      1038            0.0000000000
      3233      1049  TIP3      H1             -3.4912336878        8.2791248100      -20.0647909239  SOLV      1038            0.0000000000
      3234      1049  TIP3      H2             -4.5214777566        9.2557146267      -20.6002322148  SOLV      1038            0.0000000000
      3235      1050  TIP3      OH2             2.4519382422       10.0995742310      -22.4290671234  SOLV      1039            0.0000000000
      3236      1050  TIP3      H1              1.9544743053       10.2317682139      -23.2577345452  SOLV      1039            0.0000000000
      3237      1050  TIP3      H2              2.7567187630        9.1685520444      -22.5041591626  SOLV      1039            0.0000000000
      3238      1051  TIP3      OH2             7.3873559546       10.1464468956      -26.3241164810  SOLV      1040            0.0000000000
      3239      1051  TIP3      H1              8.1302742956       10.6032294153      -26.7713295521  SOLV      1040            0.0000000000
      3240      1051  TIP3      H2              6.6189169911       10.6283207811      -26.6496515896  SOLV      1040            0.0000000000
      3241      1052  TIP3      OH2            -2.4086612959        6.6045428286      -20.3145249792  SOLV      1041            0.0000000000
      3242      1052  TIP3      H1             -1.6764555127        6.0156223451      -20.5280190143  SOLV      1041            0.0000000000
      3243      1052  TIP3      H2             -2.1503181471        6.9115732621      -19.4195492567  SOLV      1041            0.0000000000
      3244      1053  TIP3      OH2             0.9057189949        5.4076945210      -23.6829117926  SOLV      1042            0.0000000000
      3245      1053  TIP3      H1              0.1126663881        5.9854880870      -23.6631515859  SOLV      1042            0.0000000000
      3246      1053  TIP3      H2              1.3849820717        5.7495199944      -24.4684513982  SOLV      1042            0.0000000000
      3247      1054  TIP3      OH2             6.0960359811        9.4798295348      -22.4480611471  SOLV      1043            0.0000000000
      3248      1054  TIP3      H1              6.9321549830        9.1541195336      -22.7989055435  SOLV      1043            0.0000000000
      3249      1054  TIP3      H2              5.9666948017        8.8860872137      -21.6848342012  SOLV      1043            0.0000000000
      3250      1055  TIP3      OH2             2.1466453450        3.2933138791      -22.4635622102  SOLV      1044            0.0000000000
      3251      1055  TIP3      H1              2.1482257179        2.5083044769      -23.0476186021  SOLV      1044            0.0000000000
      3252      1055  TIP3      H2              1.6973791538        3.9659130769      -23.0224988276  SOLV      1044            0.0000000000
      3253      1056  TIP3      OH2             2.1690970942        1.1686291562      -24.3811061276  SOLV      1045            0.0000000000
      3254      1056  TIP3      H1              2.4440535046        1.5527685344      -25.2342120324  SOLV      1045            0.0000000000
      3255      1056  TIP3      H2              1.2365710817        0.9222385104      -24.5615855092  SOLV      1045            0.0000000000
      3256      1057  TIP3      OH2             2.3972504679        6.5155500714      -25.6397702462  SOLV      1046            0.0000000000
      3257      1057  TIP3      H1              3.2327729855        6.5375055606      -26.1191494617  SOLV      1046            0.0000000000
      3258      1057  TIP3      H2              1.8379752158        7.1381862640      -26.1507292087  SOLV      1046            0.0000000000
      3259      1058  TIP3      OH2             8.2111719081        6.1469196903      -21.8829324690  SOLV      1047            0.0000000000
      3260      1058  TIP3      H1              8.6485542774        5.3047654829      -21.6827732620  SOLV      1047            0.0000000000
      3261      1058  TIP3      H2              8.9469935328        6.6657463478      -22.2400020906  SOLV      1047            0.0000000000
      3262      1059  TIP3      OH2             8.6733606641        8.6700584766      -24.4843185182  SOLV      1048            0.0000000000
      3263      1059  TIP3      H1              8.1145963731        9.2447302149      -25.0600063344  SOLV      1048            0.0000000000
      3264      1059  TIP3      H2              9.5581970651        8.8639508140      -24.8712192343  SOLV      1048            0.0000000000
      3265      1060  TIP3      OH2             0.9238383980        4.3331413193      -20.1346678564  SOLV      1049            0.0000000000
      3266      1060  TIP3      H1              0.2437663815        3.6511488699      -19.9515567550  SOLV      1049            0.0000000000
      3267      1060  TIP3      H2              1.2568058815        4.0468819573      -21.0069431060  SOLV      1049            0.0000000000
      3268      1061  TIP3      OH2             3.4757027715       -1.2296695282      -23.6606488678  SOLV      1050            0.0000000000
      3269      1061  TIP3      H1              2.9841575147       -0.4143533523      -23.8933286060  SOLV      1050            0.0000000000
      3270      1061  TIP3      H2              2.7836360220       -1.9145633985      -23.7680375077  SOLV      1050            0.0000000000
      3271      1062  TIP3      OH2             4.7325928039        3.7905026924      -21.5297883459  SOLV      1051            0.0000000000
      3272      1062  TIP3      H1              4.5944050742        3.6329456859      -20.5761803404  SOLV      1051            0.0000000000
      3273      1062  TIP3      H2              3.8387137507        3.5521347761      -21.8571289007  SOLV      1051            0.0000000000
      3274      1063  TIP3      OH2             7.1113646976        3.2956019460      -22.9835371662  SOLV      1052            0.0000000000
      3275      1063  TIP3      H1              6.3641354010        3.2967315797      -22.3541079908  SOLV      1052            0.0000000000
      3276      1063  TIP3      H2              7.8567211990        2.9987280980      -22.4190573027  SOLV      1052            0.0000000000
      3277      1064  TIP3      OH2             9.3931921022        2.7255650251      -21.4970478648  SOLV      1053            0.0000000000
      3278      1064  TIP3      H1              9.5480631318        1.7693210732      -21.3406744151  SOLV      1053            0.0000000000
      3279      1064  TIP3      H2              9.3572521896        3.0852626228      -20.5858283733  SOLV      1053            0.0000000000
      3280      1065  TIP3      OH2            -0.6827091479        2.1346939731      -19.5628200556  SOLV      1054            0.0000000000
      3281      1065  TIP3      H1             -0.6509077865        1.2142239691      -19.8852406657  SOLV      1054            0.0000000000
      3282      1065  TIP3      H2             -0.3017725656        2.0205905954      -18.6649278124  SOLV      1054            0.0000000000
      3283      1066  TIP3      OH2             4.4042823034       -1.1296355512      -21.0779336298  SOLV      1055            0.0000000000
      3284      1066  TIP3      H1              5.0689339823       -1.8436247349      -21.1447973813  SOLV      1055            0.0000000000
      3285      1066  TIP3      H2              4.0060349108       -1.1757405438      -21.9703110008  SOLV      1055            0.0000000000
      3286      1067  TIP3      OH2             5.0811986125        1.0129555849      -19.5170652755  SOLV      1056            0.0000000000
      3287      1067  TIP3      H1              4.8577267214        0.2921434224      -20.1477690102  SOLV      1056            0.0000000000
      3288      1067  TIP3      H2              4.2898301794        1.5883353338      -19.5755531519  SOLV      1056            0.0000000000
      3289      1068  TIP3      OH2            -8.9041917283       13.0208704463      -32.0106039527  SOLV      1057            0.0000000000
      3290      1068  TIP3      H1             -9.6276144847       12.4788127598      -32.3829159586  SOLV      1057            0.0000000000
      3291      1068  TIP3      H2             -8.5423775017       12.4034690710      -31.3408469397  SOLV      1057            0.0000000000
      3292      1069  TIP3      OH2            -7.4938359243       11.3903657241      -30.2963273796  SOLV      1058            0.0000000000
      3293      1069  TIP3      H1             -7.5395024766       10.8477262741      -29.4878996200  SOLV      1058            0.0000000000
      3294      1069  TIP3      H2             -6.8952805419       12.0932854772      -29.9849794727  SOLV      1058            0.0000000000
      3295      1070  TIP3      OH2            10.5524476799       12.7339418698      -23.8081105258  SOLV      1059            0.0000000000
      3296      1070  TIP3      H1              9.8942001913       12.8372262622      -23.0937723473  SOLV      1059            0.0000000000
      3297      1070  TIP3      H2             11.0445657060       13.5782952448      -23.7545207615  SOLV      1059            0.0000000000
      3298      1071  TIP3      OH2             8.7123716045       13.2142086894      -29.3762287799  SOLV      1060            0.0000000000
      3299      1071  TIP3      H1              7.9145887003       13.6058344417      -29.0105234492  SOLV      1060            0.0000000000
      3300      1071  TIP3      H2              8.4340424569       12.8812246226      -30.2400126387  SOLV      1060            0.0000000000
      3301      1072  TIP3      OH2            -5.5596680838        5.8179110767      -26.6675411699  SOLV      1061            0.0000000000
      3302      1072  TIP3      H1             -5.5836638611        5.4774175532      -27.5850867448  SOLV      1061            0.0000000000
      3303      1072  TIP3      H2             -4.5881834995        5.8179506389      -26.4989351627  SOLV      1061            0.0000000000
      3304      1073  TIP3      OH2            11.1219130291        9.3230580143      -25.5395691959  SOLV      1062            0.0000000000
      3305      1073  TIP3      H1             11.8161584901        8.6275548359      -25.5868510882  SOLV      1062            0.0000000000
      3306      1073  TIP3      H2             11.4862145163       10.0073081037      -26.1268124626  SOLV      1062            0.0000000000
      3307      1074  TIP3      OH2            12.8740835956        7.2862616206      -25.3400340304  SOLV      1063            0.0000000000
      3308      1074  TIP3      H1             12.1449375388        6.7746444655      -24.9278566014  SOLV      1063            0.0000000000
      3309      1074  TIP3      H2             13.6115132780        6.6463352387      -25.2517922039  SOLV      1063            0.0000000000
      3310      1075  TIP3      OH2             9.8938738931        4.4333201237      -29.8960085244  SOLV      1064            0.0000000000
      3311      1075  TIP3      H1             10.8001377206        4.7591930826      -29.8352052305  SOLV      1064            0.0000000000
      3312      1075  TIP3      H2              9.6673627615        4.4524105509      -28.9486890556  SOLV      1064            0.0000000000
      3313      1076  TIP3      OH2            10.4186676964        5.5112228955      -27.4179081050  SOLV      1065            0.0000000000
      3314      1076  TIP3      H1              9.5906749898        5.8559540137      -27.0268271829  SOLV      1065            0.0000000000
      3315      1076  TIP3      H2             10.7429234919        6.2926839068      -27.9205306669  SOLV      1065            0.0000000000
      3316      1077  TIP3      OH2            -3.3449505343        2.6764503389      -19.9126554908  SOLV      1066            0.0000000000
      3317      1077  TIP3      H1             -2.3685830211        2.6250228831      -19.8270820515  SOLV      1066            0.0000000000
      3318      1077  TIP3      H2             -3.5961032913        1.8131551317      -19.5278647866  SOLV      1066            0.0000000000
      3319      1078  TIP3      OH2            14.9728011814        1.3657895194      -22.3514535688  SOLV      1067            0.0000000000
      3320      1078  TIP3      H1             15.5887505368        0.7285376213      -22.7703267524  SOLV      1067            0.0000000000
      3321      1078  TIP3      H2             14.6775998225        1.8946242334      -23.1235715967  SOLV      1067            0.0000000000
      3322      1079  TIP3      OH2            -3.7317879421       -0.4079648417      -26.6896823843  SOLV      1068            0.0000000000
      3323      1079  TIP3      H1             -3.1141771898       -1.1527476580      -26.5478469912  SOLV      1068            0.0000000000
      3324      1079  TIP3      H2             -3.1196733637        0.3476668221      -26.6780040693  SOLV      1068            0.0000000000
      3325      1080  TIP3      OH2            -5.7575632588        2.3201865123      -25.8896826828  SOLV      1069            0.0000000000
      3326      1080  TIP3      H1             -5.2516104935        2.3247776826      -26.7237285417  SOLV      1069            0.0000000000
      3327      1080  TIP3      H2             -5.4709663861        3.1402005951      -25.4749210514  SOLV      1069            0.0000000000
      3328      1081  TIP3      OH2            13.6429466773        2.6856169306      -24.3111704178  SOLV      1070            0.0000000000
      3329      1081  TIP3      H1             12.7921298631        3.1149416811      -24.0918039685  SOLV      1070            0.0000000000
      3330      1081  TIP3      H2             13.3210258665        1.9542507151      -24.8691450780  SOLV      1070            0.0000000000
      3331      1082  TIP3      OH2            -5.8820671921       -2.6560945657      -30.8362938660  SOLV      1071            0.0000000000
      3332      1082  TIP3      H1             -6.8057868751       -2.7086315333      -30.5310002510  SOLV      1071            0.0000000000
      3333      1082  TIP3      H2             -5.9588740818       -2.0528904980      -31.6042570818  SOLV      1071            0.0000000000
      3334      1083  TIP3      OH2            -3.6882220795       -1.8384991719      -22.7244651730  SOLV      1072            0.0000000000
      3335      1083  TIP3      H1             -4.1915491569       -1.8868441812      -21.8950889802  SOLV      1072            0.0000000000
      3336      1083  TIP3      H2             -4.3568113823       -1.4469908078      -23.3209198543  SOLV      1072            0.0000000000
      3337      1084  TIP3      OH2            -3.2764709381       12.4603490110      -21.9676583161  SOLV      1073            0.0000000000
      3338      1084  TIP3      H1             -4.2227591335       12.2657511452      -22.1130116042  SOLV      1073            0.0000000000
      3339      1084  TIP3      H2             -3.1856947177       12.2748111980      -21.0249939634  SOLV      1073            0.0000000000
      3340      1085  TIP3      OH2            -1.4197128339       12.8034260201      -26.4513543176  SOLV      1074            0.0000000000
      3341      1085  TIP3      H1             -1.9504715893       13.5419834525      -26.8185058920  SOLV      1074            0.0000000000
      3342      1085  TIP3      H2             -0.6047750576       12.9526907866      -26.9757831623  SOLV      1074            0.0000000000
      3343      1086  TIP3      OH2            12.6340595849        0.2818083413      -25.4554848711  SOLV      1075            0.0000000000
      3344      1086  TIP3      H1             11.7256770836        0.1004889535      -25.7527349407  SOLV      1075            0.0000000000
      3345      1086  TIP3      H2             13.0333892731       -0.6160476651      -25.5465882986  SOLV      1075            0.0000000000
      3346      1087  TIP3      OH2            -4.7303840525       15.3411827435      -26.2082983725  SOLV      1076            0.0000000000
      3347      1087  TIP3      H1             -5.6290725301       15.6516443593      -26.4624337282  SOLV      1076            0.0000000000
      3348      1087  TIP3      H2             -4.6100910076       15.8340856942      -25.3900762031  SOLV      1076            0.0000000000
      3349      1088  TIP3      OH2            -2.3506258974       15.1284176505      -27.5882988517  SOLV      1077            0.0000000000
      3350      1088  TIP3      H1             -3.2244501694       15.2493349450      -27.1526405359  SOLV      1077            0.0000000000
      3351      1088  TIP3      H2             -2.5674924391       15.3960183886      -28.5072487408  SOLV      1077            0.0000000000
      3352      1089  TIP3      OH2             1.9242879806       15.3909234099      -29.5861770967  SOLV      1078            0.0000000000
      3353      1089  TIP3      H1              1.2004789171       15.7676826882      -30.1409981885  SOLV      1078            0.0000000000
      3354      1089  TIP3      H2              2.0260453552       16.1297433302      -28.9396115259  SOLV      1078            0.0000000000
      3355      1090  TIP3      OH2             4.6720893067       14.7407877069      -29.1305879824  SOLV      1079            0.0000000000
      3356      1090  TIP3      H1              3.6963591492       14.7404049215      -29.1206572783  SOLV      1079            0.0000000000
      3357      1090  TIP3      H2              4.8112306390       15.2980151990      -29.9155740753  SOLV      1079            0.0000000000
      3358      1091  TIP3      OH2            -5.6747989437       13.0392217313      -28.7782440787  SOLV      1080            0.0000000000
      3359      1091  TIP3      H1             -5.3297842486       12.7332166950      -27.9101312718  SOLV      1080            0.0000000000
      3360      1091  TIP3      H2             -4.9675647879       12.6991847729      -29.3719627629  SOLV      1080            0.0000000000
      3361      1092  TIP3      OH2            -3.7754564431       11.8897119003      -30.3639286535  SOLV      1081            0.0000000000
      3362      1092  TIP3      H1             -3.6142606017       11.0901240685      -29.8146569416  SOLV      1081            0.0000000000
      3363      1092  TIP3      H2             -2.8808212799       12.3049549118      -30.3292644087  SOLV      1081            0.0000000000
      3364      1093  TIP3      OH2            -1.1728309199       12.6315480835      -30.0250607309  SOLV      1082            0.0000000000
      3365      1093  TIP3      H1             -0.7064807370       11.7805242892      -30.0992902628  SOLV      1082            0.0000000000
      3366      1093  TIP3      H2             -0.6018241723       13.1175616952      -29.4135305592  SOLV      1082            0.0000000000
      3367      1094  TIP3      OH2             4.7240065597       -0.5094091690      -29.2977625904  SOLV      1083            0.0000000000
      3368      1094  TIP3      H1              4.3354749053       -1.2510642170      -28.7984878534  SOLV      1083            0.0000000000
      3369      1094  TIP3      H2              5.4742423882       -0.9412838600      -29.7550686766  SOLV      1083            0.0000000000
      3370      1095  TIP3      OH2             9.8433764049       -1.4728003074      -30.1330468657  SOLV      1084            0.0000000000
      3371      1095  TIP3      H1             10.0936219855       -0.8605039766      -30.8298717684  SOLV      1084            0.0000000000
      3372      1095  TIP3      H2              8.8696005033       -1.4621049421      -30.2051534608  SOLV      1084            0.0000000000
      3373      1096  TIP3      OH2            -2.8011001568       -3.4102527095      -29.1995442819  SOLV      1085            0.0000000000
      3374      1096  TIP3      H1             -3.7185077030       -3.7569245572      -29.1499730467  SOLV      1085            0.0000000000
      3375      1096  TIP3      H2             -2.3035645351       -4.2571926446      -29.2166061222  SOLV      1085            0.0000000000
      3376      1097  TIP3      OH2            -5.0421803761       -4.8347285992      -32.5206373701  SOLV      1086            0.0000000000
      3377      1097  TIP3      H1             -4.7637710324       -4.2156044581      -33.2350698755  SOLV      1086            0.0000000000
      3378      1097  TIP3      H2             -5.3293501347       -4.1869551771      -31.8438868020  SOLV      1086            0.0000000000
      3379      1098  TIP3      OH2             1.5981045070       -3.0026048673      -30.3936434862  SOLV      1087            0.0000000000
      3380      1098  TIP3      H1              2.1937964812       -2.5683765415      -31.0283933550  SOLV      1087            0.0000000000
      3381      1098  TIP3      H2              1.9885591517       -2.7339870213      -29.5488468977  SOLV      1087            0.0000000000
      3382      1099  TIP3      OH2             7.0330380045       -1.6686510687      -30.4325284784  SOLV      1088            0.0000000000
      3383      1099  TIP3      H1              7.2467285482       -2.0898427947      -31.2763904418  SOLV      1088            0.0000000000
      3384      1099  TIP3      H2              6.9171010553       -2.4648216515      -29.8538962105  SOLV      1088            0.0000000000
      3385      1100  TIP3      OH2            -4.0684541647       -3.1273110213      -34.3787741470  SOLV      1089            0.0000000000
      3386      1100  TIP3      H1             -3.6683392873       -3.4876449867      -35.1929971000  SOLV      1089            0.0000000000
      3387      1100  TIP3      H2             -3.3103415698       -2.6325181641      -34.0375493992  SOLV      1089            0.0000000000
      3388      1101  TIP3      OH2            -0.7179003123       -0.6078691697      -20.2434614879  SOLV      1090            0.0000000000
      3389      1101  TIP3      H1             -1.0649767372       -1.3148844884      -19.6687067681  SOLV      1090            0.0000000000
      3390      1101  TIP3      H2              0.2238964141       -0.6057758761      -19.9658549354  SOLV      1090            0.0000000000
      3391      1102  TIP3      OH2             1.7844255901       -0.6319740489      -19.0559139756  SOLV      1091            0.0000000000
      3392      1102  TIP3      H1              2.6428367929       -0.8967369684      -19.4271087567  SOLV      1091            0.0000000000
      3393      1102  TIP3      H2              1.6449404252       -1.3276219757      -18.3791432257  SOLV      1091            0.0000000000
      3394      1103  TIP3      OH2            10.0594180358        0.0349210773      -21.1892726457  SOLV      1092            0.0000000000
      3395      1103  TIP3      H1             10.2376674431       -0.2675085544      -20.2717552815  SOLV      1092            0.0000000000
      3396      1103  TIP3      H2             10.9546428355       -0.0162989698      -21.5861184301  SOLV      1092            0.0000000000
      3397      1104  TIP3      OH2             9.4145812837       15.4664070114      -26.2204005714  SOLV      1093            0.0000000000
      3398      1104  TIP3      H1              8.8337316876       15.1667950415      -26.9324423520  SOLV      1093            0.0000000000
      3399      1104  TIP3      H2              9.3793784787       16.4434819620      -26.3479025694  SOLV      1093            0.0000000000
      3400      1105  TIP3      OH2            16.2800679675        9.4947263817      -28.2361583832  SOLV      1094            0.0000000000
      3401      1105  TIP3      H1             16.4397091409       10.3551891541      -27.7676642763  SOLV      1094            0.0000000000
      3402      1105  TIP3      H2             15.3429623104        9.3631450159      -28.0423742511  SOLV      1094            0.0000000000
      3403      1106  TIP3      OH2            15.4977062464        6.6962749593      -28.9862879209  SOLV      1095            0.0000000000
      3404      1106  TIP3      H1             16.1145612988        7.2390084193      -28.4801928859  SOLV      1095            0.0000000000
      3405      1106  TIP3      H2             15.9990534253        5.8747256311      -29.0915417584  SOLV      1095            0.0000000000
      3406      1107  TIP3      OH2            16.4124987098       11.9521565947      -27.1264628294  SOLV      1096            0.0000000000
      3407      1107  TIP3      H1             17.1912824511       12.2100555547      -26.5906038266  SOLV      1096            0.0000000000
      3408      1107  TIP3      H2             15.6840812929       12.2222150813      -26.5390127316  SOLV      1096            0.0000000000
      3409      1108  TIP3      OH2            13.6652617306        8.9185754146      -27.5505108970  SOLV      1097            0.0000000000
      3410      1108  TIP3      H1             14.0558024991        8.7740308452      -26.6657408706  SOLV      1097            0.0000000000
      3411      1108  TIP3      H2             13.0811843738        8.1464553866      -27.6174319824  SOLV      1097            0.0000000000
      3412      1109  TIP3      OH2            15.9706490181        3.5315998275      -27.6576188216  SOLV      1098            0.0000000000
      3413      1109  TIP3      H1             15.1149211076        3.7504105332      -27.2690331696  SOLV      1098            0.0000000000
      3414      1109  TIP3      H2             16.3739214388        2.9721885353      -26.9741460159  SOLV      1098            0.0000000000
      3415      1110  TIP3      OH2            12.9425329148       17.4155961560      -26.8014922137  SOLV      1099            0.0000000000
      3416      1110  TIP3      H1             13.8617694899       17.5467867977      -26.4820385659  SOLV      1099            0.0000000000
      3417      1110  TIP3      H2             12.8563384924       16.4681291375      -26.8641063937  SOLV      1099            0.0000000000
      3418      1111  TIP3      OH2            14.2953327271       11.8182919857      -25.2314330170  SOLV      1100            0.0000000000
      3419      1111  TIP3      H1             14.5579934178       10.8808646187      -25.2159908073  SOLV      1100            0.0000000000
      3420      1111  TIP3      H2             13.4613484685       11.7825679235      -25.7440487690  SOLV      1100            0.0000000000
      3421      1112  TIP3      OH2            15.4746406176        9.1155213999      -25.3827812383  SOLV      1101            0.0000000000
      3422      1112  TIP3      H1             16.2897589867        8.6994579410      -25.6941249056  SOLV      1101            0.0000000000
      3423      1112  TIP3      H2             15.7622563079        9.4441434277      -24.5000181323  SOLV      1101            0.0000000000
      3424      1113  TIP3      OH2            19.1365998041        5.6547639580      -27.5493713391  SOLV      1102            0.0000000000
      3425      1113  TIP3      H1             19.6013317879        4.8144451778      -27.5065185195  SOLV      1102            0.0000000000
      3426      1113  TIP3      H2             19.5670250604        6.0743885570      -28.3137066178  SOLV      1102            0.0000000000
      3427      1114  TIP3      OH2            18.7565010112        6.9738797871      -25.1832024896  SOLV      1103            0.0000000000
      3428      1114  TIP3      H1             18.0782223675        6.3529976726      -24.8507240720  SOLV      1103            0.0000000000
      3429      1114  TIP3      H2             18.8646354794        6.6300717715      -26.0972270966  SOLV      1103            0.0000000000
      3430      1115  TIP3      OH2            19.8704353897        1.7340911921      -29.1602083447  SOLV      1104            0.0000000000
      3431      1115  TIP3      H1             20.8169049808        1.9668747882      -29.1186452286  SOLV      1104            0.0000000000
      3432      1115  TIP3      H2             19.8767391073        0.8549098203      -28.7588371623  SOLV      1104            0.0000000000
      3433      1116  TIP3      OH2            22.5335856688        6.9618374791      -26.4256779805  SOLV      1105            0.0000000000
      3434      1116  TIP3      H1             22.9379295142        6.9892634352      -25.5439587634  SOLV      1105            0.0000000000
      3435      1116  TIP3      H2             22.3556190396        6.0249048834      -26.5142510940  SOLV      1105            0.0000000000
      3436      1117  TIP3      OH2            27.6775273044        5.1145580037      -26.0136397454  SOLV      1106            0.0000000000
      3437      1117  TIP3      H1             27.0081937407        4.5301571024      -25.6614334183  SOLV      1106            0.0000000000
      3438      1117  TIP3      H2             27.6138701464        5.8580645285      -25.3645494244  SOLV      1106            0.0000000000
      3439      1118  TIP3      OH2            17.1806706859        4.7380710744      -24.5748237705  SOLV      1107            0.0000000000
      3440      1118  TIP3      H1             17.3796152379        3.9120292162      -25.0433016154  SOLV      1107            0.0000000000
      3441      1118  TIP3      H2             17.5918350345        4.5616737121      -23.7024180652  SOLV      1107            0.0000000000
      3442      1119  TIP3      OH2            22.2035648855        1.4026040658      -26.1805334485  SOLV      1108            0.0000000000
      3443      1119  TIP3      H1             22.7807280239        0.6200848131      -26.1156242052  SOLV      1108            0.0000000000
      3444      1119  TIP3      H2             22.3076625983        1.5984971162      -27.1357581479  SOLV      1108            0.0000000000
      3445      1120  TIP3      OH2            22.9636783667        3.5217350954      -24.6074409751  SOLV      1109            0.0000000000
      3446      1120  TIP3      H1             22.7152429320        2.7969853242      -25.2210643962  SOLV      1109            0.0000000000
      3447      1120  TIP3      H2             22.1668635729        4.0973621331      -24.6502859823  SOLV      1109            0.0000000000
      3448      1121  TIP3      OH2            14.5470588603        5.1353031282      -25.2061698371  SOLV      1110            0.0000000000
      3449      1121  TIP3      H1             15.5141489242        5.1823429004      -25.0288439957  SOLV      1110            0.0000000000
      3450      1121  TIP3      H2             14.3334078496        4.3107854524      -24.7209138688  SOLV      1110            0.0000000000
      3451      1122  TIP3      OH2            14.0832840458        0.8488153308      -27.7841305908  SOLV      1111            0.0000000000
      3452      1122  TIP3      H1             13.7098811403        0.7215725475      -26.8964982558  SOLV      1111            0.0000000000
      3453      1122  TIP3      H2             13.2857326936        1.0942923211      -28.2784857997  SOLV      1111            0.0000000000
      3454      1123  TIP3      OH2            14.7423772154       14.6805125930      -26.7254013268  SOLV      1112            0.0000000000
      3455      1123  TIP3      H1             13.8166007045       14.5861003220      -27.0228151538  SOLV      1112            0.0000000000
      3456      1123  TIP3      H2             14.6266255767       14.7264118949      -25.7703446011  SOLV      1112            0.0000000000
      3457      1124  TIP3      OH2            17.2084932738        1.8769310844      -25.4141760836  SOLV      1113            0.0000000000
      3458      1124  TIP3      H1             16.8986226307        1.2005703983      -24.7820979759  SOLV      1113            0.0000000000
      3459      1124  TIP3      H2             18.1533855996        1.9294909335      -25.1484458666  SOLV      1113            0.0000000000
      3460      1125  TIP3      OH2            19.7246266909        1.9138017224      -24.2600097515  SOLV      1114            0.0000000000
      3461      1125  TIP3      H1             20.5595718381        1.6791155845      -24.7048565303  SOLV      1114            0.0000000000
      3462      1125  TIP3      H2             19.6571170372        1.2122873577      -23.5827108210  SOLV      1114            0.0000000000
      3463      1126  TIP3      OH2            28.3362596525        2.3447067667      -26.1971615635  SOLV      1115            0.0000000000
      3464      1126  TIP3      H1             28.4335602876        1.9278486666      -25.3035860596  SOLV      1115            0.0000000000
      3465      1126  TIP3      H2             28.6053929860        3.2447238861      -26.0062528493  SOLV      1115            0.0000000000
      3466      1127  TIP3      OH2           -26.7090547575       17.1394249351      -20.5158840582  SOLV      1116            0.0000000000
      3467      1127  TIP3      H1            -27.2903045784       17.7721056923      -20.9597139390  SOLV      1116            0.0000000000
      3468      1127  TIP3      H2            -26.1843480631       17.7095260229      -19.9260002431  SOLV      1116            0.0000000000
      3469      1128  TIP3      OH2           -28.5990317034       16.2347691991      -18.6145302119  SOLV      1117            0.0000000000
      3470      1128  TIP3      H1            -28.6674205365       17.0287245647      -18.0804688761  SOLV      1117            0.0000000000
      3471      1128  TIP3      H2            -27.9336361203       16.4809292231      -19.2858069755  SOLV      1117            0.0000000000
      3472      1129  TIP3      OH2           -31.0385492198       19.1887172329      -14.7041535701  SOLV      1118            0.0000000000
      3473      1129  TIP3      H1            -30.8790395379       18.3196613613      -15.0922449946  SOLV      1118            0.0000000000
      3474      1129  TIP3      H2            -30.7764765986       19.7915273181      -15.4041844374  SOLV      1118            0.0000000000
      3475      1130  TIP3      OH2           -29.6032699475       15.8259207593      -14.5812069137  SOLV      1119            0.0000000000
      3476      1130  TIP3      H1            -29.7718474564       14.8684739969      -14.5306834404  SOLV      1119            0.0000000000
      3477      1130  TIP3      H2            -30.0479191865       16.1678768344      -13.7801843423  SOLV      1119            0.0000000000
      3478      1131  TIP3      OH2           -26.8401231851       20.3267200352      -18.6804820299  SOLV      1120            0.0000000000
      3479      1131  TIP3      H1            -27.6193510107       19.8667564733      -18.3336279286  SOLV      1120            0.0000000000
      3480      1131  TIP3      H2            -26.1294020411       19.6714856314      -18.5562677648  SOLV      1120            0.0000000000
      3481      1132  TIP3      OH2           -24.6113598086       14.3680303075      -15.7378598480  SOLV      1121            0.0000000000
      3482      1132  TIP3      H1            -23.9752739599       13.7310842842      -16.1243146063  SOLV      1121            0.0000000000
      3483      1132  TIP3      H2            -24.8545597482       14.9019334441      -16.5216999427  SOLV      1121            0.0000000000
      3484      1133  TIP3      OH2           -25.8899164414       15.7795328807      -17.6775257359  SOLV      1122            0.0000000000
      3485      1133  TIP3      H1            -26.6026707691       16.1194281572      -17.0983245127  SOLV      1122            0.0000000000
      3486      1133  TIP3      H2            -26.3529698052       15.0838807779      -18.1818505436  SOLV      1122            0.0000000000
      3487      1134  TIP3      OH2           -26.8616428344       13.2699633534      -18.7979749860  SOLV      1123            0.0000000000
      3488      1134  TIP3      H1            -27.7444784453       13.0070639084      -19.1104502805  SOLV      1123            0.0000000000
      3489      1134  TIP3      H2            -26.3981812062       12.3987271676      -18.8211983846  SOLV      1123            0.0000000000
      3490      1135  TIP3      OH2           -29.5141279996       13.0076767977      -14.5122525066  SOLV      1124            0.0000000000
      3491      1135  TIP3      H1            -29.3412997468       12.7171986828      -13.5902986514  SOLV      1124            0.0000000000
      3492      1135  TIP3      H2            -28.6061513815       13.0258352130      -14.8834249777  SOLV      1124            0.0000000000
      3493      1136  TIP3      OH2            -9.3098568153       17.7232716402      -27.6544432215  SOLV      1125            0.0000000000
      3494      1136  TIP3      H1             -9.0154831890       18.5406482917      -27.2035282901  SOLV      1125            0.0000000000
      3495      1136  TIP3      H2             -9.2628594636       17.9889779992      -28.5852415148  SOLV      1125            0.0000000000
      3496      1137  TIP3      OH2           -15.2246725284       19.5960319761      -27.3267291222  SOLV      1126            0.0000000000
      3497      1137  TIP3      H1            -14.8823093351       18.7026003933      -27.1324473411  SOLV      1126            0.0000000000
      3498      1137  TIP3      H2            -15.6974912627       19.4318302116      -28.1644466761  SOLV      1126            0.0000000000
      3499      1138  TIP3      OH2           -15.1329714936       17.1024795779      -31.2796556644  SOLV      1127            0.0000000000
      3500      1138  TIP3      H1            -14.3227064608       16.9061268177      -30.7614045827  SOLV      1127            0.0000000000
      3501      1138  TIP3      H2            -14.7475449568       17.1858008500      -32.1768478710  SOLV      1127            0.0000000000
      3502      1139  TIP3      OH2            -8.5923741472       19.8381438777      -26.0217895656  SOLV      1128            0.0000000000
      3503      1139  TIP3      H1             -9.4635182669       20.2540300397      -26.1990154078  SOLV      1128            0.0000000000
      3504      1139  TIP3      H2             -8.5728210622       19.9061439527      -25.0565405160  SOLV      1128            0.0000000000
      3505      1140  TIP3      OH2           -22.0278636798       15.8355083013      -23.3395112224  SOLV      1129            0.0000000000
      3506      1140  TIP3      H1            -22.7849757368       15.7319093875      -23.9406315855  SOLV      1129            0.0000000000
      3507      1140  TIP3      H2            -22.4857993726       16.1482145827      -22.5326293513  SOLV      1129            0.0000000000
      3508      1141  TIP3      OH2           -12.9155559692       17.0834266555      -29.6632822614  SOLV      1130            0.0000000000
      3509      1141  TIP3      H1            -13.2327446433       16.6661557384      -28.8530457327  SOLV      1130            0.0000000000
      3510      1141  TIP3      H2            -12.4508283134       17.8741649923      -29.3298765473  SOLV      1130            0.0000000000
      3511      1142  TIP3      OH2           -11.4125536177       16.7525885275      -25.9918503524  SOLV      1131            0.0000000000
      3512      1142  TIP3      H1            -12.3055058394       16.9383256705      -26.3301719611  SOLV      1131            0.0000000000
      3513      1142  TIP3      H2            -10.8408024515       17.0333351324      -26.7349400882  SOLV      1131            0.0000000000
      3514      1143  TIP3      OH2           -18.5241924233       13.0538505879      -26.2163008071  SOLV      1132            0.0000000000
      3515      1143  TIP3      H1            -18.6475801734       12.1254659829      -25.9394128533  SOLV      1132            0.0000000000
      3516      1143  TIP3      H2            -19.2768233594       13.4776659234      -25.7457464761  SOLV      1132            0.0000000000
      3517      1144  TIP3      OH2           -10.2116162607       23.2806724408      -27.6166924006  SOLV      1133            0.0000000000
      3518      1144  TIP3      H1            -11.0290974046       23.8154779452      -27.5156068550  SOLV      1133            0.0000000000
      3519      1144  TIP3      H2            -10.0190587317       23.4117418423      -28.5548327608  SOLV      1133            0.0000000000
      3520      1145  TIP3      OH2           -13.3272536277       21.9794528931      -24.8562991890  SOLV      1134            0.0000000000
      3521      1145  TIP3      H1            -13.4542797584       22.8943795012      -24.5574820478  SOLV      1134            0.0000000000
      3522      1145  TIP3      H2            -14.2070870896       21.8466160143      -25.2767891944  SOLV      1134            0.0000000000
      3523      1146  TIP3      OH2           -10.8134163718       21.5916053523      -23.0444862004  SOLV      1135            0.0000000000
      3524      1146  TIP3      H1            -11.6992656624       21.6815518148      -23.4281972851  SOLV      1135            0.0000000000
      3525      1146  TIP3      H2            -10.6696682998       20.6280360029      -23.1206634280  SOLV      1135            0.0000000000
      3526      1147  TIP3      OH2           -20.8265877766       13.8372385107      -24.9125660189  SOLV      1136            0.0000000000
      3527      1147  TIP3      H1            -21.7057612761       13.4861980316      -25.1880933888  SOLV      1136            0.0000000000
      3528      1147  TIP3      H2            -21.1049993274       14.6500740848      -24.4514666794  SOLV      1136            0.0000000000
      3529      1148  TIP3      OH2           -15.4912931506       15.0541878152      -22.9640949114  SOLV      1137            0.0000000000
      3530      1148  TIP3      H1            -14.8103390128       14.8266542225      -22.2979602444  SOLV      1137            0.0000000000
      3531      1148  TIP3      H2            -16.3146969060       14.9048509259      -22.4575049262  SOLV      1137            0.0000000000
      3532      1149  TIP3      OH2           -13.0791155115       19.4112487355      -23.6811708244  SOLV      1138            0.0000000000
      3533      1149  TIP3      H1            -13.6177599092       19.3336151377      -22.8608779669  SOLV      1138            0.0000000000
      3534      1149  TIP3      H2            -13.4181617215       20.2280031390      -24.0871411416  SOLV      1138            0.0000000000
      3535      1150  TIP3      OH2           -20.6913734135       19.2717765853      -24.0755070107  SOLV      1139            0.0000000000
      3536      1150  TIP3      H1            -21.5552933097       18.8797939979      -23.8847558329  SOLV      1139            0.0000000000
      3537      1150  TIP3      H2            -20.9199822193       20.1670489779      -24.3523981884  SOLV      1139            0.0000000000
      3538      1151  TIP3      OH2           -15.9143281028       21.4196917449      -21.5033273414  SOLV      1140            0.0000000000
      3539      1151  TIP3      H1            -16.1583325346       20.7178953861      -20.8550727151  SOLV      1140            0.0000000000
      3540      1151  TIP3      H2            -15.0056939594       21.6184531192      -21.2057979636  SOLV      1140            0.0000000000
      3541      1152  TIP3      OH2           -16.1873647711       19.1687211081      -29.8794380746  SOLV      1141            0.0000000000
      3542      1152  TIP3      H1            -16.6199347695       19.6202043251      -30.6212579420  SOLV      1141            0.0000000000
      3543      1152  TIP3      H2            -15.8906057233       18.3372325785      -30.3240380961  SOLV      1141            0.0000000000
      3544      1153  TIP3      OH2           -23.4450856180       19.8206525227      -21.7977852326  SOLV      1142            0.0000000000
      3545      1153  TIP3      H1            -22.7388679498       20.3002669651      -21.3393490033  SOLV      1142            0.0000000000
      3546      1153  TIP3      H2            -23.3975511141       18.9435310993      -21.3913478624  SOLV      1142            0.0000000000
      3547      1154  TIP3      OH2           -15.9450054503       21.6070621409      -25.6386507337  SOLV      1143            0.0000000000
      3548      1154  TIP3      H1            -15.7788240927       20.9383413642      -26.3409555108  SOLV      1143            0.0000000000
      3549      1154  TIP3      H2            -16.3038212160       21.0229215624      -24.9409540544  SOLV      1143            0.0000000000
      3550      1155  TIP3      OH2           -14.4814094907       16.9128536936      -26.8870380715  SOLV      1144            0.0000000000
      3551      1155  TIP3      H1            -14.8254142822       17.0572145692      -25.9795019954  SOLV      1144            0.0000000000
      3552      1155  TIP3      H2            -15.1328454821       16.2457631760      -27.2003501015  SOLV      1144            0.0000000000
      3553      1156  TIP3      OH2           -23.0989583391       24.0924290562      -20.8185166846  SOLV      1145            0.0000000000
      3554      1156  TIP3      H1            -22.4277387673       24.4448756800      -20.1821040968  SOLV      1145            0.0000000000
      3555      1156  TIP3      H2            -23.4719782640       23.3739123133      -20.2723286830  SOLV      1145            0.0000000000
      3556      1157  TIP3      OH2           -18.3661558186       19.5362299756      -27.7222695492  SOLV      1146            0.0000000000
      3557      1157  TIP3      H1            -17.7905252368       19.0786261213      -28.3427856644  SOLV      1146            0.0000000000
      3558      1157  TIP3      H2            -18.3538589786       18.9515773312      -26.9397680696  SOLV      1146            0.0000000000
      3559      1158  TIP3      OH2           -18.4631069819       18.2674745505      -25.2072107325  SOLV      1147            0.0000000000
      3560      1158  TIP3      H1            -19.2596846423       18.6981468537      -24.8262212297  SOLV      1147            0.0000000000
      3561      1158  TIP3      H2            -17.7515856116       18.7501672567      -24.7508427312  SOLV      1147            0.0000000000
      3562      1159  TIP3      OH2           -12.5140933537       24.8010802779      -27.5038566169  SOLV      1148            0.0000000000
      3563      1159  TIP3      H1            -12.2716926555       25.2213583503      -28.3539641584  SOLV      1148            0.0000000000
      3564      1159  TIP3      H2            -13.2487624681       24.2085971065      -27.7950768560  SOLV      1148            0.0000000000
      3565      1160  TIP3      OH2           -18.3141697316       22.5691281474      -21.0116660140  SOLV      1149            0.0000000000
      3566      1160  TIP3      H1            -18.9427952075       21.8687995191      -21.2412162460  SOLV      1149            0.0000000000
      3567      1160  TIP3      H2            -17.4523723113       22.1973665770      -21.3083865329  SOLV      1149            0.0000000000
      3568      1161  TIP3      OH2           -14.4091955653       23.1050228156      -28.4087496129  SOLV      1150            0.0000000000
      3569      1161  TIP3      H1            -15.3258603555       22.9493216964      -28.1538416886  SOLV      1150            0.0000000000
      3570      1161  TIP3      H2            -14.2353278766       22.3411120805      -28.9971778409  SOLV      1150            0.0000000000
      3571      1162  TIP3      OH2           -23.5153372661       16.6869184298      -21.0595775163  SOLV      1151            0.0000000000
      3572      1162  TIP3      H1            -24.4217927155       16.7692162977      -20.7342517705  SOLV      1151            0.0000000000
      3573      1162  TIP3      H2            -23.1119866334       16.1251058454      -20.3764069977  SOLV      1151            0.0000000000
      3574      1163  TIP3      OH2           -15.2453917002       17.4806057884      -24.2635934261  SOLV      1152            0.0000000000
      3575      1163  TIP3      H1            -14.4138827380       17.7604402045      -23.8528143330  SOLV      1152            0.0000000000
      3576      1163  TIP3      H2            -15.4156932443       16.6258318208      -23.8078778372  SOLV      1152            0.0000000000
      3577      1164  TIP3      OH2           -16.7415381294       19.8924162588      -23.6636898966  SOLV      1153            0.0000000000
      3578      1164  TIP3      H1            -16.4691383838       20.3783550577      -22.8571945201  SOLV      1153            0.0000000000
      3579      1164  TIP3      H2            -16.2294683605       19.0644106609      -23.5730961630  SOLV      1153            0.0000000000
      3580      1165  TIP3      OH2           -17.2670098822       13.8651847230      -30.3637297525  SOLV      1154            0.0000000000
      3581      1165  TIP3      H1            -17.9291196358       14.5273022254      -30.0534918544  SOLV      1154            0.0000000000
      3582      1165  TIP3      H2            -17.3359723142       13.9774013365      -31.3228908782  SOLV      1154            0.0000000000
      3583      1166  TIP3      OH2           -10.4678740567       18.8708098109      -23.8798398275  SOLV      1155            0.0000000000
      3584      1166  TIP3      H1            -11.4364849880       18.9531921457      -23.7125429914  SOLV      1155            0.0000000000
      3585      1166  TIP3      H2            -10.5007216435       18.2588858038      -24.6287520104  SOLV      1155            0.0000000000
      3586      1167  TIP3      OH2           -13.8835567543       20.7925285924      -29.8713447154  SOLV      1156            0.0000000000
      3587      1167  TIP3      H1            -14.6338468062       20.1919755723      -29.7005524152  SOLV      1156            0.0000000000
      3588      1167  TIP3      H2            -13.1556486340       20.3175786930      -29.4157794025  SOLV      1156            0.0000000000
      3589      1168  TIP3      OH2           -23.3172979101       12.8015801272      -25.2704707282  SOLV      1157            0.0000000000
      3590      1168  TIP3      H1            -24.1940215357       12.9186866244      -25.6382549932  SOLV      1157            0.0000000000
      3591      1168  TIP3      H2            -23.4830825427       12.1073678028      -24.5929978059  SOLV      1157            0.0000000000
      3592      1169  TIP3      OH2           -19.6212183970       24.9059923828      -20.9856228280  SOLV      1158            0.0000000000
      3593      1169  TIP3      H1            -19.4596509236       25.1932740623      -21.8811180244  SOLV      1158            0.0000000000
      3594      1169  TIP3      H2            -19.0450999816       24.1114121385      -20.9208614079  SOLV      1158            0.0000000000
      3595      1170  TIP3      OH2           -14.1845465824       24.8897073794      -24.7807965185  SOLV      1159            0.0000000000
      3596      1170  TIP3      H1            -13.6288913506       25.1735914221      -25.5231362682  SOLV      1159            0.0000000000
      3597      1170  TIP3      H2            -14.6219677405       25.7233902088      -24.5253398933  SOLV      1159            0.0000000000
      3598      1171  TIP3      OH2           -23.7101499512       22.1939143742      -18.9744883366  SOLV      1160            0.0000000000
      3599      1171  TIP3      H1            -23.1536906031       21.4182674631      -18.8532735042  SOLV      1160            0.0000000000
      3600      1171  TIP3      H2            -23.6891741593       22.5847138607      -18.0740527552  SOLV      1160            0.0000000000
      3601      1172  TIP3      OH2           -20.6734163476       21.3525836050      -21.9853298679  SOLV      1161            0.0000000000
      3602      1172  TIP3      H1            -21.1663184491       22.1540449289      -21.7703059963  SOLV      1161            0.0000000000
      3603      1172  TIP3      H2            -20.2752906306       21.5852771568      -22.8523215966  SOLV      1161            0.0000000000
      3604      1173  TIP3      OH2           -15.2897535231       25.0234639668      -21.0776614015  SOLV      1162            0.0000000000
      3605      1173  TIP3      H1            -14.4137129790       24.6291211697      -21.0928352832  SOLV      1162            0.0000000000
      3606      1173  TIP3      H2            -15.6929328167       24.5419280370      -20.3372864234  SOLV      1162            0.0000000000
      3607      1174  TIP3      OH2           -19.4834236038       18.8810479373      -20.9734842738  SOLV      1163            0.0000000000
      3608      1174  TIP3      H1            -19.4197610993       18.0575177025      -21.4998672769  SOLV      1163            0.0000000000
      3609      1174  TIP3      H2            -19.9072862817       19.4873333906      -21.6064117629  SOLV      1163            0.0000000000
      3610      1175  TIP3      OH2           -19.4230667989       16.7010169842      -22.8571531928  SOLV      1164            0.0000000000
      3611      1175  TIP3      H1            -19.0963848372       17.0628348727      -23.7001499091  SOLV      1164            0.0000000000
      3612      1175  TIP3      H2            -20.3448940315       16.4600121733      -23.0821962074  SOLV      1164            0.0000000000
      3613      1176  TIP3      OH2           -19.3042901646       22.1816538886      -24.2627330459  SOLV      1165            0.0000000000
      3614      1176  TIP3      H1            -18.3973016495       21.8710944749      -24.3834515834  SOLV      1165            0.0000000000
      3615      1176  TIP3      H2            -19.2196102856       23.1400883087      -24.3195028794  SOLV      1165            0.0000000000
      3616      1177  TIP3      OH2           -13.3502991770       21.7246924157      -20.3526813699  SOLV      1166            0.0000000000
      3617      1177  TIP3      H1            -12.9647652188       20.8711187491      -20.1002105141  SOLV      1166            0.0000000000
      3618      1177  TIP3      H2            -12.6117459703       22.1536136692      -20.8078963432  SOLV      1166            0.0000000000
      3619      1178  TIP3      OH2           -12.7051572793       24.1804911474      -22.6521011687  SOLV      1167            0.0000000000
      3620      1178  TIP3      H1            -13.3997750901       24.4477890581      -23.2886386841  SOLV      1167            0.0000000000
      3621      1178  TIP3      H2            -11.9022109668       24.3971470272      -23.1741971376  SOLV      1167            0.0000000000
      3622      1179  TIP3      OH2           -20.9153554870       20.0116238861      -18.7384368064  SOLV      1168            0.0000000000
      3623      1179  TIP3      H1            -21.4418556873       19.2295521173      -18.4870626450  SOLV      1168            0.0000000000
      3624      1179  TIP3      H2            -20.3770144837       19.6668227984      -19.4753479377  SOLV      1168            0.0000000000
      3625      1180  TIP3      OH2           -18.1694680493       14.2604135083      -22.3459505205  SOLV      1169            0.0000000000
      3626      1180  TIP3      H1            -18.6399709021       15.1102021486      -22.4744820923  SOLV      1169            0.0000000000
      3627      1180  TIP3      H2            -18.9009557013       13.6126987605      -22.3855896026  SOLV      1169            0.0000000000
      3628      1181  TIP3      OH2           -16.8633131517       19.3795870840      -20.0094751513  SOLV      1170            0.0000000000
      3629      1181  TIP3      H1            -17.0372669346       19.2292005779      -19.0521564086  SOLV      1170            0.0000000000
      3630      1181  TIP3      H2            -17.7313060775       19.0841607676      -20.3501655997  SOLV      1170            0.0000000000
      3631      1182  TIP3      OH2           -14.4579069699       18.8319263893      -21.4421979413  SOLV      1171            0.0000000000
      3632      1182  TIP3      H1            -15.2234194537       18.8133751201      -20.8346413125  SOLV      1171            0.0000000000
      3633      1182  TIP3      H2            -13.7297475689       18.5200853936      -20.8702716723  SOLV      1171            0.0000000000
      3634      1183  TIP3      OH2           -12.0638787657       18.3335403297      -20.0085000943  SOLV      1172            0.0000000000
      3635      1183  TIP3      H1            -11.9757010402       17.3679177631      -19.8506954457  SOLV      1172            0.0000000000
      3636      1183  TIP3      H2            -12.1732510117       18.6845020047      -19.0984080605  SOLV      1172            0.0000000000
      3637      1184  TIP3      OH2           -22.3280767538       17.6910171350      -18.0232688946  SOLV      1173            0.0000000000
      3638      1184  TIP3      H1            -22.2324878874       16.7644652468      -18.3116065164  SOLV      1173            0.0000000000
      3639      1184  TIP3      H2            -21.9003617703       17.6280098110      -17.1374456382  SOLV      1173            0.0000000000
      3640      1185  TIP3      OH2           -16.7244316794       14.6500762828      -20.0781901234  SOLV      1174            0.0000000000
      3641      1185  TIP3      H1            -16.3192435816       13.7998407283      -19.8585394992  SOLV      1174            0.0000000000
      3642      1185  TIP3      H2            -17.3820850702       14.4039661535      -20.7496882789  SOLV      1174            0.0000000000
      3643      1186  TIP3      OH2           -13.9109989578       20.7149794318      -32.6409302038  SOLV      1175            0.0000000000
      3644      1186  TIP3      H1            -13.4966304825       19.8578035938      -32.8160410937  SOLV      1175            0.0000000000
      3645      1186  TIP3      H2            -13.7225443745       20.8319028719      -31.6837204174  SOLV      1175            0.0000000000
      3646      1187  TIP3      OH2           -10.5108382990       24.9303680739      -24.1033877405  SOLV      1176            0.0000000000
      3647      1187  TIP3      H1             -9.8184989401       24.2968684622      -24.3954939382  SOLV      1176            0.0000000000
      3648      1187  TIP3      H2            -10.7585198797       25.4105344609      -24.9002858725  SOLV      1176            0.0000000000
      3649      1188  TIP3      OH2            -8.6133065455       22.9301040941      -23.8727032638  SOLV      1177            0.0000000000
      3650      1188  TIP3      H1             -9.4186614304       22.4715988138      -23.5397867515  SOLV      1177            0.0000000000
      3651      1188  TIP3      H2             -7.9429582259       22.2373508935      -23.6810594427  SOLV      1177            0.0000000000
      3652      1189  TIP3      OH2           -11.7678722887       19.4721634283      -28.6765073142  SOLV      1178            0.0000000000
      3653      1189  TIP3      H1            -10.9207702941       19.7567457202      -29.0821892441  SOLV      1178            0.0000000000
      3654      1189  TIP3      H2            -11.6615698717       19.8598596668      -27.7854830915  SOLV      1178            0.0000000000
      3655      1190  TIP3      OH2           -11.1113313695       20.9723295117      -26.4149618178  SOLV      1179            0.0000000000
      3656      1190  TIP3      H1            -11.8864541709       21.2591756641      -25.8906390577  SOLV      1179            0.0000000000
      3657      1190  TIP3      H2            -10.8296497719       21.8162342975      -26.8250224848  SOLV      1179            0.0000000000
      3658      1191  TIP3      OH2           -24.9953258243       18.2107024568      -18.6075710403  SOLV      1180            0.0000000000
      3659      1191  TIP3      H1            -24.0270459003       18.2110220659      -18.4411731937  SOLV      1180            0.0000000000
      3660      1191  TIP3      H2            -25.2382168214       17.3745087877      -18.1511152151  SOLV      1180            0.0000000000
      3661      1192  TIP3      OH2            -6.5903303137       16.9943435989      -20.8784584455  SOLV      1181            0.0000000000
      3662      1192  TIP3      H1             -5.9996155081       16.3323704962      -21.2924254028  SOLV      1181            0.0000000000
      3663      1192  TIP3      H2             -6.9025392081       17.5009287934      -21.6587201571  SOLV      1181            0.0000000000
      3664      1193  TIP3      OH2           -12.4009468978       15.0180053928      -33.3127257687  SOLV      1182            0.0000000000
      3665      1193  TIP3      H1            -11.9063971898       15.0256866437      -32.4712211114  SOLV      1182            0.0000000000
      3666      1193  TIP3      H2            -12.9118394076       14.1890617978      -33.2274025105  SOLV      1182            0.0000000000
      3667      1194  TIP3      OH2            -7.9200209076       18.2966703674      -22.8693083761  SOLV      1183            0.0000000000
      3668      1194  TIP3      H1             -8.7842777445       18.7018696989      -22.6589444222  SOLV      1183            0.0000000000
      3669      1194  TIP3      H2             -8.2244546411       17.5390959575      -23.4067944791  SOLV      1183            0.0000000000
      3670      1195  TIP3      OH2           -25.2623411817       13.7423317692      -21.0853961012  SOLV      1184            0.0000000000
      3671      1195  TIP3      H1            -25.7422430474       13.6205635236      -20.2465215551  SOLV      1184            0.0000000000
      3672      1195  TIP3      H2            -25.7884449798       14.4228650200      -21.5131174766  SOLV      1184            0.0000000000
      3673      1196  TIP3      OH2            -8.9084408626       15.8977302125      -24.0101999644  SOLV      1185            0.0000000000
      3674      1196  TIP3      H1             -9.8194680261       15.7502668888      -24.3226041635  SOLV      1185            0.0000000000
      3675      1196  TIP3      H2             -8.5447282372       14.9856076030      -24.0898222495  SOLV      1185            0.0000000000
      3676      1197  TIP3      OH2           -16.5580843869       15.0987200469      -27.5217257456  SOLV      1186            0.0000000000
      3677      1197  TIP3      H1            -17.2606403444       14.5841009923      -27.0939762236  SOLV      1186            0.0000000000
      3678      1197  TIP3      H2            -16.4705113273       14.6459211042      -28.3689851237  SOLV      1186            0.0000000000
      3679      1198  TIP3      OH2           -11.5952863024       13.8772583553      -28.7627167859  SOLV      1187            0.0000000000
      3680      1198  TIP3      H1            -11.2744383985       14.4231781804      -29.5125433888  SOLV      1187            0.0000000000
      3681      1198  TIP3      H2            -12.5686596925       14.0072584740      -28.8449714903  SOLV      1187            0.0000000000
      3682      1199  TIP3      OH2           -10.7278979873       14.9509963670      -31.1066314822  SOLV      1188            0.0000000000
      3683      1199  TIP3      H1             -9.9786833939       14.4849483297      -31.5292703617  SOLV      1188            0.0000000000
      3684      1199  TIP3      H2            -10.4771987073       15.8884756399      -31.1888903561  SOLV      1188            0.0000000000
      3685      1200  TIP3      OH2           -19.7763875617       12.5416978883      -28.8099702604  SOLV      1189            0.0000000000
      3686      1200  TIP3      H1            -19.2820217587       13.2183529790      -29.2914100618  SOLV      1189            0.0000000000
      3687      1200  TIP3      H2            -19.5314839903       12.7740876408      -27.8967419439  SOLV      1189            0.0000000000
      3688      1201  TIP3      OH2           -14.2727089561       13.8978199264      -29.1234993557  SOLV      1190            0.0000000000
      3689      1201  TIP3      H1            -14.9538843684       13.8557934211      -29.8010466222  SOLV      1190            0.0000000000
      3690      1201  TIP3      H2            -14.5556353003       13.1820104709      -28.5098070966  SOLV      1190            0.0000000000
      3691      1202  TIP3      OH2           -14.2104592088       12.9599747465      -33.1700293745  SOLV      1191            0.0000000000
      3692      1202  TIP3      H1            -14.9790214450       13.5216378665      -32.9635909974  SOLV      1191            0.0000000000
      3693      1202  TIP3      H2            -14.3825577117       12.1488857788      -32.6531992772  SOLV      1191            0.0000000000
      3694      1203  TIP3      OH2           -22.1316937632       14.9440115784      -18.7141095453  SOLV      1192            0.0000000000
      3695      1203  TIP3      H1            -22.4464667107       14.2667786693      -18.0827609968  SOLV      1192            0.0000000000
      3696      1203  TIP3      H2            -21.1723326068       14.8716240137      -18.5943913637  SOLV      1192            0.0000000000
      3697      1204  TIP3      OH2           -11.5292477349       15.6283357061      -19.6937885650  SOLV      1193            0.0000000000
      3698      1204  TIP3      H1            -11.3709935262       15.3280583799      -18.7703232433  SOLV      1193            0.0000000000
      3699      1204  TIP3      H2            -10.6340329321       15.5423609008      -20.0790351715  SOLV      1193            0.0000000000
      3700      1205  TIP3      OH2            -7.0079514093       23.1072399077      -29.4953327765  SOLV      1194            0.0000000000
      3701      1205  TIP3      H1             -6.5892534241       22.6477622829      -28.7368094232  SOLV      1194            0.0000000000
      3702      1205  TIP3      H2             -6.3403701448       23.7975723220      -29.6568867726  SOLV      1194            0.0000000000
      3703      1206  TIP3      OH2            -4.1176340423       18.5150592521      -28.4333956248  SOLV      1195            0.0000000000
      3704      1206  TIP3      H1             -4.1564385639       19.3539713961      -28.8973488914  SOLV      1195            0.0000000000
      3705      1206  TIP3      H2             -4.7197001068       18.6857902762      -27.6649035887  SOLV      1195            0.0000000000
      3706      1207  TIP3      OH2            -5.1687398069       24.5897627649      -27.1810164176  SOLV      1196            0.0000000000
      3707      1207  TIP3      H1             -5.0254023705       25.4673099667      -26.7768349358  SOLV      1196            0.0000000000
      3708      1207  TIP3      H2             -6.1333207865       24.5003739730      -27.0543430533  SOLV      1196            0.0000000000
      3709      1208  TIP3      OH2            -8.3781957329       25.8808444389      -28.2684162656  SOLV      1197            0.0000000000
      3710      1208  TIP3      H1             -9.2535254821       25.7313972373      -28.6690248062  SOLV      1197            0.0000000000
      3711      1208  TIP3      H2             -8.3094478892       25.1620062773      -27.6108993442  SOLV      1197            0.0000000000
      3712      1209  TIP3      OH2            -3.2634744155       16.3389563889      -29.8681681980  SOLV      1198            0.0000000000
      3713      1209  TIP3      H1             -4.1992175359       16.0500316542      -29.8678585158  SOLV      1198            0.0000000000
      3714      1209  TIP3      H2             -3.3794938299       17.2060105934      -29.4284455932  SOLV      1198            0.0000000000
      3715      1210  TIP3      OH2             2.4260008947       17.4121272565      -27.8933824690  SOLV      1199            0.0000000000
      3716      1210  TIP3      H1              2.6717910685       18.2734924198      -27.5795725010  SOLV      1199            0.0000000000
      3717      1210  TIP3      H2              1.4808221152       17.3450169246      -27.6049184558  SOLV      1199            0.0000000000
      3718      1211  TIP3      OH2            -3.9372256030       20.9541733596      -29.4627972848  SOLV      1200            0.0000000000
      3719      1211  TIP3      H1             -4.5040458422       21.4962978255      -28.8770125802  SOLV      1200            0.0000000000
      3720      1211  TIP3      H2             -3.8027801483       21.5397644727      -30.2288463479  SOLV      1200            0.0000000000
      3721      1212  TIP3      OH2             1.9302547568       24.0575772714      -26.6333969501  SOLV      1201            0.0000000000
      3722      1212  TIP3      H1              1.8245295497       23.3114908121      -26.0070793799  SOLV      1201            0.0000000000
      3723      1212  TIP3      H2              2.8500804709       24.3210648936      -26.4754129905  SOLV      1201            0.0000000000
      3724      1213  TIP3      OH2            -5.6553437905       21.8425142557      -27.5209765311  SOLV      1202            0.0000000000
      3725      1213  TIP3      H1             -5.2996860653       22.5660176726      -26.9784547846  SOLV      1202            0.0000000000
      3726      1213  TIP3      H2             -5.6228958544       21.0679507460      -26.9226123239  SOLV      1202            0.0000000000
      3727      1214  TIP3      OH2            -9.5636161303       17.5047457252      -31.7179841933  SOLV      1203            0.0000000000
      3728      1214  TIP3      H1             -8.7629302585       17.4983829594      -31.1469319976  SOLV      1203            0.0000000000
      3729      1214  TIP3      H2             -9.2963186175       16.9161924964      -32.4680156683  SOLV      1203            0.0000000000
      3730      1215  TIP3      OH2            -5.1940252571       26.8534068976      -25.6519727276  SOLV      1204            0.0000000000
      3731      1215  TIP3      H1             -4.4115294543       27.2106478885      -25.1605741233  SOLV      1204            0.0000000000
      3732      1215  TIP3      H2             -5.5039662368       26.1917621890      -25.0102748742  SOLV      1204            0.0000000000
      3733      1216  TIP3      OH2            -7.7882601573       24.1428184707      -26.2189777075  SOLV      1205            0.0000000000
      3734      1216  TIP3      H1             -7.6328273718       23.9090932403      -25.2841025954  SOLV      1205            0.0000000000
      3735      1216  TIP3      H2             -8.4464326369       23.4652217082      -26.4603934405  SOLV      1205            0.0000000000
      3736      1217  TIP3      OH2            -0.5088494412       25.1115135658      -26.1319698603  SOLV      1206            0.0000000000
      3737      1217  TIP3      H1             -1.1251561221       24.4813320253      -26.5468718854  SOLV      1206            0.0000000000
      3738      1217  TIP3      H2              0.3649960537       24.7568564580      -26.4133898513  SOLV      1206            0.0000000000
      3739      1218  TIP3      OH2            -5.7175578328       19.3261325472      -26.2769229039  SOLV      1207            0.0000000000
      3740      1218  TIP3      H1             -6.6867015268       19.3587820667      -26.1664994871  SOLV      1207            0.0000000000
      3741      1218  TIP3      H2             -5.4498778669       18.7370514277      -25.5518930375  SOLV      1207            0.0000000000
      3742      1219  TIP3      OH2             0.9535291264       22.1328116323      -28.5157216670  SOLV      1208            0.0000000000
      3743      1219  TIP3      H1              1.1287715473       22.9870307047      -28.0823034452  SOLV      1208            0.0000000000
      3744      1219  TIP3      H2              1.8320475850       21.7357403299      -28.4654538926  SOLV      1208            0.0000000000
      3745      1220  TIP3      OH2            -5.8654235183       15.5513428099      -29.8494796597  SOLV      1209            0.0000000000
      3746      1220  TIP3      H1             -5.9276062305       15.3070668536      -30.7896436825  SOLV      1209            0.0000000000
      3747      1220  TIP3      H2             -5.8698757172       14.6754780081      -29.4102515810  SOLV      1209            0.0000000000
      3748      1221  TIP3      OH2            -7.6824750753       26.8052425748      -23.7732372821  SOLV      1210            0.0000000000
      3749      1221  TIP3      H1             -7.1490509674       26.0301794919      -23.5318777339  SOLV      1210            0.0000000000
      3750      1221  TIP3      H2             -8.1074415786       26.5006256274      -24.5753499257  SOLV      1210            0.0000000000
      3751      1222  TIP3      OH2            -1.5672931744       27.5645142574      -26.0232952148  SOLV      1211            0.0000000000
      3752      1222  TIP3      H1             -1.3834670718       27.8776508187      -26.9131688860  SOLV      1211            0.0000000000
      3753      1222  TIP3      H2             -1.0726043227       26.7155589158      -26.0021605278  SOLV      1211            0.0000000000
      3754      1223  TIP3      OH2            -5.7622047531       24.6894648922      -23.9556948383  SOLV      1212            0.0000000000
      3755      1223  TIP3      H1             -5.0994338238       23.9990082814      -24.1091934331  SOLV      1212            0.0000000000
      3756      1223  TIP3      H2             -5.5737636007       24.9226574845      -23.0180290565  SOLV      1212            0.0000000000
      3757      1224  TIP3      OH2            -2.5723867477       23.5616945327      -27.4439062603  SOLV      1213            0.0000000000
      3758      1224  TIP3      H1             -3.4638835637       23.9659079213      -27.4407652348  SOLV      1213            0.0000000000
      3759      1224  TIP3      H2             -2.3049928248       23.6518785914      -28.3712477344  SOLV      1213            0.0000000000
      3760      1225  TIP3      OH2             2.7478780162       27.6936916798      -26.0154321799  SOLV      1214            0.0000000000
      3761      1225  TIP3      H1              3.0964002132       28.0857533255      -25.2168089093  SOLV      1214            0.0000000000
      3762      1225  TIP3      H2              2.1100288312       27.0618434300      -25.6319560092  SOLV      1214            0.0000000000
      3763      1226  TIP3      OH2            -1.4782133600       21.4570477920      -26.0613011485  SOLV      1215            0.0000000000
      3764      1226  TIP3      H1             -1.4426733203       20.6814017119      -26.6547190336  SOLV      1215            0.0000000000
      3765      1226  TIP3      H2             -1.8453584714       22.1439408173      -26.6586501748  SOLV      1215            0.0000000000
      3766      1227  TIP3      OH2            -1.4977258740       19.2838028476      -27.9810555766  SOLV      1216            0.0000000000
      3767      1227  TIP3      H1             -1.2590825902       19.5804142587      -28.8673138946  SOLV      1216            0.0000000000
      3768      1227  TIP3      H2             -2.4359394820       19.0309214260      -28.0999686833  SOLV      1216            0.0000000000
      3769      1228  TIP3      OH2             4.7714550840       24.4034414754      -25.4617332737  SOLV      1217            0.0000000000
      3770      1228  TIP3      H1              4.9931566044       23.5120689515      -25.1491430849  SOLV      1217            0.0000000000
      3771      1228  TIP3      H2              5.5883288853       24.8832104357      -25.2803817139  SOLV      1217            0.0000000000
      3772      1229  TIP3      OH2            -2.7944610664       22.5070083977      -23.7813937053  SOLV      1218            0.0000000000
      3773      1229  TIP3      H1             -3.3981102691       21.7565221047      -23.5977575830  SOLV      1218            0.0000000000
      3774      1229  TIP3      H2             -2.3879517928       22.2268345282      -24.6254555577  SOLV      1218            0.0000000000
      3775      1230  TIP3      OH2            -0.2092895145       16.9361785060      -27.2696168119  SOLV      1219            0.0000000000
      3776      1230  TIP3      H1             -0.7027178532       17.7391833122      -27.5423669286  SOLV      1219            0.0000000000
      3777      1230  TIP3      H2             -0.8771120612       16.2382963819      -27.4391689317  SOLV      1219            0.0000000000
      3778      1231  TIP3      OH2             1.1836270930       21.8708104865      -25.1311446541  SOLV      1220            0.0000000000
      3779      1231  TIP3      H1              0.9371968376       21.8488600428      -24.1888145307  SOLV      1220            0.0000000000
      3780      1231  TIP3      H2              0.3100337953       21.6745943481      -25.5271799530  SOLV      1220            0.0000000000
      3781      1232  TIP3      OH2             3.4498096315       21.1664200382      -26.6585522104  SOLV      1221            0.0000000000
      3782      1232  TIP3      H1              2.7169545755       21.3481433055      -26.0391865138  SOLV      1221            0.0000000000
      3783      1232  TIP3      H2              4.2035351841       21.0046875508      -26.0734823676  SOLV      1221            0.0000000000
      3784      1233  TIP3      OH2             5.9649024708       20.6690459569      -24.9913246049  SOLV      1222            0.0000000000
      3785      1233  TIP3      H1              6.0158917109       19.8611337535      -24.4706496259  SOLV      1222            0.0000000000
      3786      1233  TIP3      H2              5.7720434732       21.3371765910      -24.2943928321  SOLV      1222            0.0000000000
      3787      1234  TIP3      OH2            -4.3002261501       20.2643403749      -23.1843187840  SOLV      1223            0.0000000000
      3788      1234  TIP3      H1             -4.2744548746       19.3476145971      -23.5188430297  SOLV      1223            0.0000000000
      3789      1234  TIP3      H2             -3.9250711144       20.1400182022      -22.2855550455  SOLV      1223            0.0000000000
      3790      1235  TIP3      OH2             0.7908275074       17.1142855627      -24.7467597501  SOLV      1224            0.0000000000
      3791      1235  TIP3      H1              1.1283514600       16.2200705172      -24.6678740996  SOLV      1224            0.0000000000
      3792      1235  TIP3      H2              0.3799638804       17.0930247073      -25.6391526152  SOLV      1224            0.0000000000
      3793      1236  TIP3      OH2             1.4512093280       19.1960698972      -23.1154958932  SOLV      1225            0.0000000000
      3794      1236  TIP3      H1              1.2404213094       18.5088272479      -23.7869741457  SOLV      1225            0.0000000000
      3795      1236  TIP3      H2              0.6772892527       19.7945095676      -23.1917262702  SOLV      1225            0.0000000000
      3796      1237  TIP3      OH2            -6.9504434231       20.8437957255      -23.4312998175  SOLV      1226            0.0000000000
      3797      1237  TIP3      H1             -5.9739598207       20.7482759925      -23.4095349313  SOLV      1226            0.0000000000
      3798      1237  TIP3      H2             -7.2162229827       19.9573638787      -23.1161334860  SOLV      1226            0.0000000000
      3799      1238  TIP3      OH2            11.3510503403       19.4881729455      -25.9572863564  SOLV      1227            0.0000000000
      3800      1238  TIP3      H1             11.8716411711       18.6755180386      -26.1646369125  SOLV      1227            0.0000000000
      3801      1238  TIP3      H2             11.4322822410       19.9380831973      -26.8162917739  SOLV      1227            0.0000000000
      3802      1239  TIP3      OH2            -7.3106680236       17.8741265250      -30.1752104049  SOLV      1228            0.0000000000
      3803      1239  TIP3      H1             -6.7806389229       17.0681886699      -29.9687678905  SOLV      1228            0.0000000000
      3804      1239  TIP3      H2             -6.7927650631       18.5539425684      -29.7379258683  SOLV      1228            0.0000000000
      3805      1240  TIP3      OH2            -9.2956074676       20.4482695320      -29.4904344649  SOLV      1229            0.0000000000
      3806      1240  TIP3      H1             -9.1205614138       20.5753346868      -30.4318780854  SOLV      1229            0.0000000000
      3807      1240  TIP3      H2             -8.7943985642       21.1713781679      -29.0955189603  SOLV      1229            0.0000000000
      3808      1241  TIP3      OH2            -7.2916900450       16.3459338583      -26.3190673708  SOLV      1230            0.0000000000
      3809      1241  TIP3      H1             -7.8173499867       16.2595677580      -25.5075270196  SOLV      1230            0.0000000000
      3810      1241  TIP3      H2             -7.9625347255       16.6993332962      -26.9359959903  SOLV      1230            0.0000000000
      3811      1242  TIP3      OH2            -4.3698256347       17.5304851362      -23.8614781402  SOLV      1231            0.0000000000
      3812      1242  TIP3      H1             -4.7086462583       16.8133228122      -23.2948369103  SOLV      1231            0.0000000000
      3813      1242  TIP3      H2             -3.4264772169       17.5355392962      -23.5904511392  SOLV      1231            0.0000000000
      3814      1243  TIP3      OH2            -1.8794866719       17.5231588357      -22.6536270632  SOLV      1232            0.0000000000
      3815      1243  TIP3      H1             -0.9960796009       17.2889030061      -22.9783749525  SOLV      1232            0.0000000000
      3816      1243  TIP3      H2             -2.0306900551       16.8238029408      -21.9823541746  SOLV      1232            0.0000000000
      3817      1244  TIP3      OH2           -20.0802244390      -30.1737318943        1.8311287681  SOLV      1233            0.0000000000
      3818      1244  TIP3      H1            -20.4436763985      -29.3195437490        1.5150881946  SOLV      1233            0.0000000000
      3819      1244  TIP3      H2            -20.7727224817      -30.7849103278        1.5221124552  SOLV      1233            0.0000000000
      3820      1245  TIP3      OH2           -19.9679866095      -30.0976351139        5.5846902634  SOLV      1234            0.0000000000
      3821      1245  TIP3      H1            -20.0625580639      -30.6308508667        6.3868452056  SOLV      1234            0.0000000000
      3822      1245  TIP3      H2            -20.2175431279      -30.7378530597        4.9020135148  SOLV      1234            0.0000000000
      3823      1246  TIP3      OH2           -17.6651606108      -27.2104127558        2.5048099182  SOLV      1235            0.0000000000
      3824      1246  TIP3      H1            -17.7505687121      -27.9743899150        3.0981703488  SOLV      1235            0.0000000000
      3825      1246  TIP3      H2            -17.2221921387      -26.5589870000        3.0646558802  SOLV      1235            0.0000000000
      3826      1247  TIP3      OH2           -21.1475802013      -22.6151794021        2.6075329734  SOLV      1236            0.0000000000
      3827      1247  TIP3      H1            -20.7574637200      -23.3553463996        2.0957256637  SOLV      1236            0.0000000000
      3828      1247  TIP3      H2            -21.3588209996      -23.0203523807        3.4487939852  SOLV      1236            0.0000000000
      3829      1248  TIP3      OH2           -22.1333218284      -28.0123812496        5.8915079487  SOLV      1237            0.0000000000
      3830      1248  TIP3      H1            -22.3033808417      -28.8605025142        5.4659708638  SOLV      1237            0.0000000000
      3831      1248  TIP3      H2            -21.2462400489      -28.1948877557        6.2310179527  SOLV      1237            0.0000000000
      3832      1249  TIP3      OH2           -11.9672809620      -34.6562743821        5.9726067103  SOLV      1238            0.0000000000
      3833      1249  TIP3      H1            -11.7931480277      -33.7709167118        6.3636821217  SOLV      1238            0.0000000000
      3834      1249  TIP3      H2            -11.6955477008      -34.5097481691        5.0496271919  SOLV      1238            0.0000000000
      3835      1250  TIP3      OH2           -18.1241361988      -32.9906724769        6.4815765184  SOLV      1239            0.0000000000
      3836      1250  TIP3      H1            -17.9475148354      -33.9116566046        6.6878814979  SOLV      1239            0.0000000000
      3837      1250  TIP3      H2            -18.4407543432      -33.0732803256        5.5557533344  SOLV      1239            0.0000000000
      3838      1251  TIP3      OH2           -17.6628596155      -35.9103450123        2.5565027668  SOLV      1240            0.0000000000
      3839      1251  TIP3      H1            -16.8301256933      -35.7704403699        3.0616229052  SOLV      1240            0.0000000000
      3840      1251  TIP3      H2            -17.5163756064      -35.3972945554        1.7518550455  SOLV      1240            0.0000000000
      3841      1252  TIP3      OH2           -11.4600518018      -32.5353461894        7.6957078881  SOLV      1241            0.0000000000
      3842      1252  TIP3      H1            -12.3033614223      -32.0358527664        7.7109692844  SOLV      1241            0.0000000000
      3843      1252  TIP3      H2            -11.0253257472      -32.2544805702        8.5175916985  SOLV      1241            0.0000000000
      3844      1253  TIP3      OH2           -21.1757301383      -28.0244793189        0.5255056528  SOLV      1242            0.0000000000
      3845      1253  TIP3      H1            -21.5173300002      -28.2524597530       -0.3598353405  SOLV      1242            0.0000000000
      3846      1253  TIP3      H2            -21.7409074370      -27.2643470366        0.7610933252  SOLV      1242            0.0000000000
      3847      1254  TIP3      OH2           -15.5024674316      -35.5486633666        4.1887673626  SOLV      1243            0.0000000000
      3848      1254  TIP3      H1            -15.4495368263      -36.0859814842        4.9978205632  SOLV      1243            0.0000000000
      3849      1254  TIP3      H2            -15.0749634275      -34.7144907293        4.4649820112  SOLV      1243            0.0000000000
      3850      1255  TIP3      OH2           -16.9409681390      -24.8177696921        4.2151272257  SOLV      1244            0.0000000000
      3851      1255  TIP3      H1            -17.7891611841      -24.9042569294        4.6776863974  SOLV      1244            0.0000000000
      3852      1255  TIP3      H2            -17.0495692416      -23.9886117503        3.7062309616  SOLV      1244            0.0000000000
      3853      1256  TIP3      OH2           -19.9896739159      -24.3988538725        0.8603841125  SOLV      1245            0.0000000000
      3854      1256  TIP3      H1            -19.4885979234      -25.2232217365        0.6474689873  SOLV      1245            0.0000000000
      3855      1256  TIP3      H2            -19.3757592368      -23.7415564810        0.4574229348  SOLV      1245            0.0000000000
      3856      1257  TIP3      OH2           -18.5517050733      -26.5391769696       -0.0300041116  SOLV      1246            0.0000000000
      3857      1257  TIP3      H1            -18.9692549937      -27.3487082162       -0.3552865906  SOLV      1246            0.0000000000
      3858      1257  TIP3      H2            -18.1752556365      -26.8498362799        0.8236860136  SOLV      1246            0.0000000000
      3859      1258  TIP3      OH2           -14.7364030817      -25.6952332490        7.5384877705  SOLV      1247            0.0000000000
      3860      1258  TIP3      H1            -14.8092379716      -26.4849945937        6.9502705515  SOLV      1247            0.0000000000
      3861      1258  TIP3      H2            -14.8068408825      -24.9695699541        6.8638940733  SOLV      1247            0.0000000000
      3862      1259  TIP3      OH2           -21.7158472675      -31.7197971000        0.1475240445  SOLV      1248            0.0000000000
      3863      1259  TIP3      H1            -22.5174597259      -31.2471148764       -0.1404547962  SOLV      1248            0.0000000000
      3864      1259  TIP3      H2            -21.2759088515      -31.9210368470       -0.7021211122  SOLV      1248            0.0000000000
      3865      1260  TIP3      OH2           -12.7782147166      -29.2790962578        6.0495068460  SOLV      1249            0.0000000000
      3866      1260  TIP3      H1            -13.6127044313      -28.7662619316        6.0747614466  SOLV      1249            0.0000000000
      3867      1260  TIP3      H2            -12.4780562858      -29.0830138691        5.1355344190  SOLV      1249            0.0000000000
      3868      1261  TIP3      OH2           -18.3016466368      -30.8568596644       -0.1410285324  SOLV      1250            0.0000000000
      3869      1261  TIP3      H1            -18.8587748447      -30.6472814765        0.6456613429  SOLV      1250            0.0000000000
      3870      1261  TIP3      H2            -17.4842797371      -31.1667060945        0.3007238112  SOLV      1250            0.0000000000
      3871      1262  TIP3      OH2           -15.9408892118      -30.4292248825        8.9885582382  SOLV      1251            0.0000000000
      3872      1262  TIP3      H1            -16.0121626064      -29.6838631198        9.6125018307  SOLV      1251            0.0000000000
      3873      1262  TIP3      H2            -16.8655248333      -30.4673082121        8.6283630793  SOLV      1251            0.0000000000
      3874      1263  TIP3      OH2           -24.5997737016      -26.6827582212        5.3925350044  SOLV      1252            0.0000000000
      3875      1263  TIP3      H1            -24.7608627658      -27.1007472959        4.5377802999  SOLV      1252            0.0000000000
      3876      1263  TIP3      H2            -23.7332179879      -27.0732143753        5.6478261064  SOLV      1252            0.0000000000
      3877      1264  TIP3      OH2           -19.2784477867      -24.9686122889        6.0714646774  SOLV      1253            0.0000000000
      3878      1264  TIP3      H1            -19.5120585705      -24.0207838157        5.9897002387  SOLV      1253            0.0000000000
      3879      1264  TIP3      H2            -19.9461265772      -25.4230398517        5.6209844987  SOLV      1253            0.0000000000
      3880      1265  TIP3      OH2           -23.5534613262      -25.9817303360       10.9566951157  SOLV      1254            0.0000000000
      3881      1265  TIP3      H1            -23.7020475041      -25.0740879985       11.2907819483  SOLV      1254            0.0000000000
      3882      1265  TIP3      H2            -24.1332961350      -25.9988838154       10.1893512057  SOLV      1254            0.0000000000
      3883      1266  TIP3      OH2           -19.8598916385      -32.3589740584       -1.8540717850  SOLV      1255            0.0000000000
      3884      1266  TIP3      H1            -19.2894338233      -31.7527815342       -1.3308583097  SOLV      1255            0.0000000000
      3885      1266  TIP3      H2            -19.5347797600      -32.2054852033       -2.7637399346  SOLV      1255            0.0000000000
      3886      1267  TIP3      OH2           -22.5025982171      -25.5439728390        0.8919177402  SOLV      1256            0.0000000000
      3887      1267  TIP3      H1            -21.6435087172      -25.0933656836        0.9381929739  SOLV      1256            0.0000000000
      3888      1267  TIP3      H2            -23.0514519184      -24.9082535192        0.4102606654  SOLV      1256            0.0000000000
      3889      1268  TIP3      OH2           -25.2930020234      -23.8368767615       11.4970150135  SOLV      1257            0.0000000000
      3890      1268  TIP3      H1            -25.5781278708      -23.9248893591       10.5678883126  SOLV      1257            0.0000000000
      3891      1268  TIP3      H2            -25.8590447021      -24.4803889913       11.9547850565  SOLV      1257            0.0000000000
      3892      1269  TIP3      OH2           -16.7217813633      -26.3658548586       -5.9636185282  SOLV      1258            0.0000000000
      3893      1269  TIP3      H1            -16.6872104611      -25.3880478189       -6.0530261490  SOLV      1258            0.0000000000
      3894      1269  TIP3      H2            -15.7737666042      -26.5961869356       -6.0650983337  SOLV      1258            0.0000000000
      3895      1270  TIP3      OH2           -12.2485326881      -22.2413918337        8.0596249113  SOLV      1259            0.0000000000
      3896      1270  TIP3      H1            -12.2834152572      -23.2013132653        8.2214152694  SOLV      1259            0.0000000000
      3897      1270  TIP3      H2            -13.1081376257      -21.9701748520        8.4599767568  SOLV      1259            0.0000000000
      3898      1271  TIP3      OH2           -23.6308060068      -23.1838036692       -1.0372780084  SOLV      1260            0.0000000000
      3899      1271  TIP3      H1            -24.0616773402      -23.3181726285       -1.9036905813  SOLV      1260            0.0000000000
      3900      1271  TIP3      H2            -23.9466102170      -22.2960981928       -0.7870440931  SOLV      1260            0.0000000000
      3901      1272  TIP3      OH2           -29.3811439943      -24.7905176966        2.6639168255  SOLV      1261            0.0000000000
      3902      1272  TIP3      H1            -28.8314772545      -24.8157773779        3.4841992708  SOLV      1261            0.0000000000
      3903      1272  TIP3      H2            -30.0972889884      -25.3873818474        2.9202306270  SOLV      1261            0.0000000000
      3904      1273  TIP3      OH2           -21.6605370508      -24.1313527800       -4.6256283347  SOLV      1262            0.0000000000
      3905      1273  TIP3      H1            -21.0039889836      -24.7580901061       -5.0125365979  SOLV      1262            0.0000000000
      3906      1273  TIP3      H2            -21.2970906886      -24.0174721126       -3.7230854764  SOLV      1262            0.0000000000
      3907      1274  TIP3      OH2           -21.1082564848      -23.5874592947       -1.9823772742  SOLV      1263            0.0000000000
      3908      1274  TIP3      H1            -21.9855541647      -23.5095230054       -1.5476494894  SOLV      1263            0.0000000000
      3909      1274  TIP3      H2            -20.5694513962      -23.9639718016       -1.2706618890  SOLV      1263            0.0000000000
      3910      1275  TIP3      OH2           -13.3192052202      -30.9666278486       10.8015951809  SOLV      1264            0.0000000000
      3911      1275  TIP3      H1            -14.2188779427      -30.8844957809       10.4579335053  SOLV      1264            0.0000000000
      3912      1275  TIP3      H2            -13.1729803665      -31.9291660141       10.7323048357  SOLV      1264            0.0000000000
      3913      1276  TIP3      OH2           -15.7521183975      -32.8465211753       10.2777623036  SOLV      1265            0.0000000000
      3914      1276  TIP3      H1            -15.9586996070      -32.4381097882       11.1366501453  SOLV      1265            0.0000000000
      3915      1276  TIP3      H2            -16.0026954427      -32.1243414357        9.6646161221  SOLV      1265            0.0000000000
      3916      1277  TIP3      OH2           -18.9583461338      -31.9226938487       -4.4217796866  SOLV      1266            0.0000000000
      3917      1277  TIP3      H1            -19.7073267610      -32.0023502351       -5.0177239491  SOLV      1266            0.0000000000
      3918      1277  TIP3      H2            -18.6388538620      -31.0268612016       -4.5730947422  SOLV      1266            0.0000000000
      3919      1278  TIP3      OH2           -20.1911175055      -33.4723293881        1.6670866185  SOLV      1267            0.0000000000
      3920      1278  TIP3      H1            -20.8384021421      -32.8980835790        1.2158723596  SOLV      1267            0.0000000000
      3921      1278  TIP3      H2            -19.7104121678      -33.8656765297        0.9136681707  SOLV      1267            0.0000000000
      3922      1279  TIP3      OH2           -18.4563759483      -31.2127275362       12.2940547507  SOLV      1268            0.0000000000
      3923      1279  TIP3      H1            -18.7936658393      -31.1344642550       13.1842075396  SOLV      1268            0.0000000000
      3924      1279  TIP3      H2            -17.4904716814      -31.1126379856       12.4520694646  SOLV      1268            0.0000000000
      3925      1280  TIP3      OH2           -18.4853737943      -33.4849121121        3.8019319901  SOLV      1269            0.0000000000
      3926      1280  TIP3      H1            -19.2842633493      -33.2662649679        3.2676843510  SOLV      1269            0.0000000000
      3927      1280  TIP3      H2            -18.3511283430      -34.3990159768        3.4946726782  SOLV      1269            0.0000000000
      3928      1281  TIP3      OH2           -18.4994741774      -30.9664177347        8.2238810868  SOLV      1270            0.0000000000
      3929      1281  TIP3      H1            -18.3496712687      -31.6795204592        7.5580889404  SOLV      1270            0.0000000000
      3930      1281  TIP3      H2            -19.2505312462      -31.3045361285        8.7104466062  SOLV      1270            0.0000000000
      3931      1282  TIP3      OH2           -15.2738958408      -18.8387413896        8.8970225648  SOLV      1271            0.0000000000
      3932      1282  TIP3      H1            -15.3287156034      -18.4339736428        8.0179104209  SOLV      1271            0.0000000000
      3933      1282  TIP3      H2            -14.6733321087      -18.2433986778        9.3698108893  SOLV      1271            0.0000000000
      3934      1283  TIP3      OH2           -24.0756529183      -30.2830906996       -0.4578050407  SOLV      1272            0.0000000000
      3935      1283  TIP3      H1            -24.8032140068      -30.9087211819       -0.3344402338  SOLV      1272            0.0000000000
      3936      1283  TIP3      H2            -24.1264528539      -29.7824914332        0.3933048096  SOLV      1272            0.0000000000
      3937      1284  TIP3      OH2           -15.1371241394      -27.8509688095        5.8982659841  SOLV      1273            0.0000000000
      3938      1284  TIP3      H1            -14.8581253024      -27.3840924824        5.0821772147  SOLV      1273            0.0000000000
      3939      1284  TIP3      H2            -15.9496847568      -28.3182338474        5.5893675558  SOLV      1273            0.0000000000
      3940      1285  TIP3      OH2           -18.9842492644      -34.6265935517       -0.4957896245  SOLV      1274            0.0000000000
      3941      1285  TIP3      H1            -18.0510904408      -34.8286402238       -0.6548214852  SOLV      1274            0.0000000000
      3942      1285  TIP3      H2            -19.1723085192      -33.9392338064       -1.1658817326  SOLV      1274            0.0000000000
      3943      1286  TIP3      OH2           -22.3855764672      -28.6387668431       -1.9035729196  SOLV      1275            0.0000000000
      3944      1286  TIP3      H1            -22.9855642844      -27.8654481455       -1.9310154412  SOLV      1275            0.0000000000
      3945      1286  TIP3      H2            -22.9870446750      -29.3292599946       -1.5575489663  SOLV      1275            0.0000000000
      3946      1287  TIP3      OH2           -14.4019072389      -33.8606351706       -2.2649867002  SOLV      1276            0.0000000000
      3947      1287  TIP3      H1            -14.9812084862      -34.3719734407       -2.8773988558  SOLV      1276            0.0000000000
      3948      1287  TIP3      H2            -14.4345038649      -32.9924413219       -2.7145139006  SOLV      1276            0.0000000000
      3949      1288  TIP3      OH2           -12.2199630609      -25.1410562236        8.4594419464  SOLV      1277            0.0000000000
      3950      1288  TIP3      H1            -13.1898208082      -25.1870668861        8.3698526221  SOLV      1277            0.0000000000
      3951      1288  TIP3      H2            -11.9474420626      -25.4270787104        7.5542746535  SOLV      1277            0.0000000000
      3952      1289  TIP3      OH2           -17.2985184541      -25.5591696621       -3.2323695133  SOLV      1278            0.0000000000
      3953      1289  TIP3      H1            -17.6718488874      -26.1982842303       -2.6109467718  SOLV      1278            0.0000000000
      3954      1289  TIP3      H2            -17.3357479221      -26.0281283634       -4.0825303444  SOLV      1278            0.0000000000
      3955      1290  TIP3      OH2           -17.3612834311      -29.1802520264        4.9585920256  SOLV      1279            0.0000000000
      3956      1290  TIP3      H1            -18.2634003205      -29.4310667117        5.2536551257  SOLV      1279            0.0000000000
      3957      1290  TIP3      H2            -17.0644273238      -30.0263156543        4.5632902300  SOLV      1279            0.0000000000
      3958      1291  TIP3      OH2           -26.0564025325      -26.9138607370        2.6245289319  SOLV      1280            0.0000000000
      3959      1291  TIP3      H1            -25.8916500462      -26.1389545152        2.0515454460  SOLV      1280            0.0000000000
      3960      1291  TIP3      H2            -26.9237963965      -26.6858131608        2.9706151833  SOLV      1280            0.0000000000
      3961      1292  TIP3      OH2           -24.5380529770      -29.1389238186        1.9284366292  SOLV      1281            0.0000000000
      3962      1292  TIP3      H1            -24.9861489580      -28.3531774944        2.2832101006  SOLV      1281            0.0000000000
      3963      1292  TIP3      H2            -24.8634222791      -29.8640371516        2.5048944941  SOLV      1281            0.0000000000
      3964      1293  TIP3      OH2           -23.3976911658      -23.4153425011        7.3365046239  SOLV      1282            0.0000000000
      3965      1293  TIP3      H1            -23.0207313403      -22.7653864174        6.7112294781  SOLV      1282            0.0000000000
      3966      1293  TIP3      H2            -22.8749138140      -23.2217703314        8.1283892677  SOLV      1282            0.0000000000
      3967      1294  TIP3      OH2           -26.9443681151      -24.5782540118        1.1628242406  SOLV      1283            0.0000000000
      3968      1294  TIP3      H1            -27.8267982264      -24.5194011728        1.5688805183  SOLV      1283            0.0000000000
      3969      1294  TIP3      H2            -26.6417577558      -23.6424395390        1.2111370970  SOLV      1283            0.0000000000
      3970      1295  TIP3      OH2           -19.7831774760      -28.2760071062       -4.2439166282  SOLV      1284            0.0000000000
      3971      1295  TIP3      H1            -19.3310629934      -28.4494921597       -3.3848287402  SOLV      1284            0.0000000000
      3972      1295  TIP3      H2            -20.6769064821      -28.6032150775       -4.0540071568  SOLV      1284            0.0000000000
      3973      1296  TIP3      OH2           -17.2179624485      -22.0108952775        7.3148468166  SOLV      1285            0.0000000000
      3974      1296  TIP3      H1            -18.1318355637      -22.2701934952        7.0972108593  SOLV      1285            0.0000000000
      3975      1296  TIP3      H2            -17.1400525551      -21.2369002139        6.7181935640  SOLV      1285            0.0000000000
      3976      1297  TIP3      OH2           -16.4713756233      -23.5837264538       -6.0687303913  SOLV      1286            0.0000000000
      3977      1297  TIP3      H1            -16.1460368652      -22.8465639287       -6.6108693472  SOLV      1286            0.0000000000
      3978      1297  TIP3      H2            -17.2669617161      -23.1550805286       -5.6883726000  SOLV      1286            0.0000000000
      3979      1298  TIP3      OH2           -18.1849913416      -28.9493136576       -2.1138963917  SOLV      1287            0.0000000000
      3980      1298  TIP3      H1            -18.3104591672      -29.5849755437       -1.3764597302  SOLV      1287            0.0000000000
      3981      1298  TIP3      H2            -17.2099368551      -28.9671739183       -2.1899586944  SOLV      1287            0.0000000000
      3982      1299  TIP3      OH2           -26.6193573120      -28.5341018183       -1.1282952190  SOLV      1288            0.0000000000
      3983      1299  TIP3      H1            -25.6904635515      -28.6861683379       -1.2954327612  SOLV      1288            0.0000000000
      3984      1299  TIP3      H2            -26.7158688061      -27.5752347613       -1.3186540267  SOLV      1288            0.0000000000
      3985      1300  TIP3      OH2           -24.1354988670      -26.5517143153       -1.9977710372  SOLV      1289            0.0000000000
      3986      1300  TIP3      H1            -24.9877335066      -26.2658163537       -1.6035885996  SOLV      1289            0.0000000000
      3987      1300  TIP3      H2            -23.8837645848      -25.7439254675       -2.4656006583  SOLV      1289            0.0000000000
      3988      1301  TIP3      OH2           -26.6387033169      -25.7314136859       -1.3388656926  SOLV      1290            0.0000000000
      3989      1301  TIP3      H1            -26.9296245842      -25.0445918168       -1.9790500065  SOLV      1290            0.0000000000
      3990      1301  TIP3      H2            -26.7872438143      -25.2746642846       -0.4843427025  SOLV      1290            0.0000000000
      3991      1302  TIP3      OH2           -13.1577449792      -33.6748689674        9.8488246953  SOLV      1291            0.0000000000
      3992      1302  TIP3      H1            -14.1200332539      -33.4793636729        9.8828607115  SOLV      1291            0.0000000000
      3993      1302  TIP3      H2            -13.0132817317      -33.8286544059        8.9050790131  SOLV      1291            0.0000000000
      3994      1303  TIP3      OH2           -16.5095473211      -31.6041350326        3.8650798358  SOLV      1292            0.0000000000
      3995      1303  TIP3      H1            -17.2617049656      -32.2381668029        3.8916726704  SOLV      1292            0.0000000000
      3996      1303  TIP3      H2            -15.8218132812      -32.1173337956        4.3392789418  SOLV      1292            0.0000000000
      3997      1304  TIP3      OH2           -16.8970335244      -22.1419379910        3.3212658328  SOLV      1293            0.0000000000
      3998      1304  TIP3      H1            -17.3183684534      -21.6573979198        2.5745688490  SOLV      1293            0.0000000000
      3999      1304  TIP3      H2            -15.9509315439      -21.9398721416        3.1369987442  SOLV      1293            0.0000000000
      4000      1305  TIP3      OH2           -24.2116954321      -22.1012684956       13.3986823609  SOLV      1294            0.0000000000
      4001      1305  TIP3      H1            -23.3501417224      -22.5542063897       13.4901650905  SOLV      1294            0.0000000000
      4002      1305  TIP3      H2            -24.6090088211      -22.6678033665       12.7086885591  SOLV      1294            0.0000000000
      4003      1306  TIP3      OH2           -24.3648051283      -26.5562236131       -4.8382507474  SOLV      1295            0.0000000000
      4004      1306  TIP3      H1            -24.5726004083      -27.1259402440       -4.0844747411  SOLV      1295            0.0000000000
      4005      1306  TIP3      H2            -23.5194827179      -26.9165399512       -5.1394141119  SOLV      1295            0.0000000000
      4006      1307  TIP3      OH2           -17.9063118252      -23.7472399706       10.4904154089  SOLV      1296            0.0000000000
      4007      1307  TIP3      H1            -18.1671566186      -24.0091135472       11.4054197370  SOLV      1296            0.0000000000
      4008      1307  TIP3      H2            -17.2628438827      -23.0614278577       10.7049660326  SOLV      1296            0.0000000000
      4009      1308  TIP3      OH2           -19.9747301196      -25.8884608123       -5.7913794192  SOLV      1297            0.0000000000
      4010      1308  TIP3      H1            -19.9267798021      -26.7501150567       -5.3449543973  SOLV      1297            0.0000000000
      4011      1308  TIP3      H2            -19.6254443316      -26.0805427493       -6.6768300561  SOLV      1297            0.0000000000
      4012      1309  TIP3      OH2           -21.4789563736      -26.5928182804       12.6715309466  SOLV      1298            0.0000000000
      4013      1309  TIP3      H1            -22.1035149277      -26.5457799364       11.9248023565  SOLV      1298            0.0000000000
      4014      1309  TIP3      H2            -21.3690457351      -27.5503873806       12.8076348143  SOLV      1298            0.0000000000
      4015      1310  TIP3      OH2           -17.1668155263      -26.1288647107        9.2879623848  SOLV      1299            0.0000000000
      4016      1310  TIP3      H1            -16.6333398146      -26.3163913648        8.5395514195  SOLV      1299            0.0000000000
      4017      1310  TIP3      H2            -16.4454097636      -25.5315940476        9.7751456840  SOLV      1299            0.0000000000
      4018      1311  TIP3      OH2           -18.0799928385      -27.5626147811       12.7727601116  SOLV      1300            0.0000000000
      4019      1311  TIP3      H1            -17.2762231827      -27.7166635605       12.2613308212  SOLV      1300            0.0000000000
      4020      1311  TIP3      H2            -17.9385158020      -28.2022903458       13.5015878980  SOLV      1300            0.0000000000
      4021      1312  TIP3      OH2           -16.5125940712      -30.8981383278       -6.1587262527  SOLV      1301            0.0000000000
      4022      1312  TIP3      H1            -17.1632139167      -31.5360334979       -6.4833956375  SOLV      1301            0.0000000000
      4023      1312  TIP3      H2            -17.0459048110      -30.0719395895       -6.1551816999  SOLV      1301            0.0000000000
      4024      1313  TIP3      OH2           -15.7653277152      -31.3474837901       12.9292098572  SOLV      1302            0.0000000000
      4025      1313  TIP3      H1            -15.6144416778      -31.7314024404       13.8053336360  SOLV      1302            0.0000000000
      4026      1313  TIP3      H2            -15.5104603056      -30.4268193139       13.0938498433  SOLV      1302            0.0000000000
      4027      1314  TIP3      OH2           -15.5472443260      -28.3049109376       10.7997115292  SOLV      1303            0.0000000000
      4028      1314  TIP3      H1            -16.1097086981      -27.6338852112       10.3279878577  SOLV      1303            0.0000000000
      4029      1314  TIP3      H2            -14.6583206435      -28.1158616170       10.4357934403  SOLV      1303            0.0000000000
      4030      1315  TIP3      OH2           -26.8831990569      -23.6306715225       -3.1750046959  SOLV      1304            0.0000000000
      4031      1315  TIP3      H1            -25.9255519725      -23.6932408264       -3.3468344911  SOLV      1304            0.0000000000
      4032      1315  TIP3      H2            -27.1631569211      -23.1806260550       -3.9890363098  SOLV      1304            0.0000000000
      4033      1316  TIP3      OH2           -14.3243605633      -21.2846616810        2.9789735495  SOLV      1305            0.0000000000
      4034      1316  TIP3      H1            -14.0896768210      -20.9289247811        3.8559408769  SOLV      1305            0.0000000000
      4035      1316  TIP3      H2            -13.7134902668      -20.8078181217        2.3962782394  SOLV      1305            0.0000000000
      4036      1317  TIP3      OH2           -14.0673929094      -21.0145022573        5.7823481903  SOLV      1306            0.0000000000
      4037      1317  TIP3      H1            -14.4495192454      -21.9185646413        5.7634239832  SOLV      1306            0.0000000000
      4038      1317  TIP3      H2            -13.3308630849      -21.1637111292        6.3942903385  SOLV      1306            0.0000000000
      4039      1318  TIP3      OH2           -13.6168261752      -24.2756624735       11.4853683698  SOLV      1307            0.0000000000
      4040      1318  TIP3      H1            -14.3314679245      -24.1425709315       12.1448114767  SOLV      1307            0.0000000000
      4041      1318  TIP3      H2            -13.2021980091      -23.3891379707       11.4958907252  SOLV      1307            0.0000000000
      4042      1319  TIP3      OH2           -15.3800295552      -29.1857558410       -2.3634483134  SOLV      1308            0.0000000000
      4043      1319  TIP3      H1            -14.7372856490      -28.4918925403       -2.6105351053  SOLV      1308            0.0000000000
      4044      1319  TIP3      H2            -14.9627963026      -29.5435704997       -1.5467686187  SOLV      1308            0.0000000000
      4045      1320  TIP3      OH2           -14.1433566901      -30.4230983465       -0.2627145107  SOLV      1309            0.0000000000
      4046      1320  TIP3      H1            -14.8227799335      -30.8512897973        0.3087457034  SOLV      1309            0.0000000000
      4047      1320  TIP3      H2            -13.5029598175      -30.0823997196        0.3950259439  SOLV      1309            0.0000000000
      4048      1321  TIP3      OH2           -13.5941891048      -26.5146623417        4.0348335347  SOLV      1310            0.0000000000
      4049      1321  TIP3      H1            -13.0406382612      -27.1918279681        3.5960049843  SOLV      1310            0.0000000000
      4050      1321  TIP3      H2            -13.5886664068      -25.7895222865        3.3790157773  SOLV      1310            0.0000000000
      4051      1322  TIP3      OH2           -15.2779108944      -23.4944162153        5.9822510502  SOLV      1311            0.0000000000
      4052      1322  TIP3      H1            -16.0217986130      -23.0533733049        6.4369201555  SOLV      1311            0.0000000000
      4053      1322  TIP3      H2            -15.7383323038      -23.9562566178        5.2489044227  SOLV      1311            0.0000000000
      4054      1323  TIP3      OH2           -14.8423784536      -31.4376512335       -3.8930968424  SOLV      1312            0.0000000000
      4055      1323  TIP3      H1            -15.4674627969      -31.2706752010       -4.6248242340  SOLV      1312            0.0000000000
      4056      1323  TIP3      H2            -15.0650160098      -30.6918358302       -3.2949723981  SOLV      1312            0.0000000000
      4057      1324  TIP3      OH2           -16.0979600523      -34.8334562292       -4.2093566615  SOLV      1313            0.0000000000
      4058      1324  TIP3      H1            -16.2029819194      -33.9574121116       -4.5858534066  SOLV      1313            0.0000000000
      4059      1324  TIP3      H2            -16.7799406667      -35.3053906570       -4.7251616443  SOLV      1313            0.0000000000
      4060      1325  TIP3      OH2           -16.0267792709      -31.8071711430        1.1409048257  SOLV      1314            0.0000000000
      4061      1325  TIP3      H1            -16.0214955178      -32.7778898294        1.0103936892  SOLV      1314            0.0000000000
      4062      1325  TIP3      H2            -16.1656533208      -31.7234245472        2.1088995077  SOLV      1314            0.0000000000
      4063      1326  TIP3      OH2           -13.1771140618      -27.5446240652        9.7538547559  SOLV      1315            0.0000000000
      4064      1326  TIP3      H1            -12.4660724680      -28.2207965289        9.6292377562  SOLV      1315            0.0000000000
      4065      1326  TIP3      H2            -12.8912514276      -26.8520050696        9.1448934684  SOLV      1315            0.0000000000
      4066      1327  TIP3      OH2           -11.3423202470      -29.4729096353        9.7855620268  SOLV      1316            0.0000000000
      4067      1327  TIP3      H1            -12.0791708902      -29.9796349623       10.1971661838  SOLV      1316            0.0000000000
      4068      1327  TIP3      H2            -10.6451443208      -30.1526399913        9.8807452774  SOLV      1316            0.0000000000
      4069      1328  TIP3      OH2           -15.9579494292      -34.4671631744        0.1473867934  SOLV      1317            0.0000000000
      4070      1328  TIP3      H1            -15.8872353510      -35.4335194931        0.1457211849  SOLV      1317            0.0000000000
      4071      1328  TIP3      H2            -15.4013906454      -34.2357853625       -0.6190473484  SOLV      1317            0.0000000000
      4072      1329  TIP3      OH2           -14.4792097569      -33.0294301849        5.0702205194  SOLV      1318            0.0000000000
      4073      1329  TIP3      H1            -13.6170384951      -32.7832230657        4.6666864144  SOLV      1318            0.0000000000
      4074      1329  TIP3      H2            -14.3809460842      -32.6049477666        5.9451188609  SOLV      1318            0.0000000000
      4075      1330  TIP3      OH2           -13.9367520871      -31.4266637767        7.3387802452  SOLV      1319            0.0000000000
      4076      1330  TIP3      H1            -14.6744950225      -31.0201046696        7.8436325326  SOLV      1319            0.0000000000
      4077      1330  TIP3      H2            -13.5591263921      -30.6491759174        6.8776320949  SOLV      1319            0.0000000000
      4078      1331  TIP3      OH2           -18.5240437982      -22.5805886731       -0.4770631491  SOLV      1320            0.0000000000
      4079      1331  TIP3      H1            -17.9844563058      -22.6722384732       -1.2897502426  SOLV      1320            0.0000000000
      4080      1331  TIP3      H2            -18.0421349466      -21.8861136668        0.0036139275  SOLV      1320            0.0000000000
      4081      1332  TIP3      OH2           -25.6327071479      -24.2859377917        8.6991875974  SOLV      1321            0.0000000000
      4082      1332  TIP3      H1            -26.0753101752      -23.4692929718        8.3900272053  SOLV      1321            0.0000000000
      4083      1332  TIP3      H2            -24.7858065585      -24.1756286927        8.2240826761  SOLV      1321            0.0000000000
      4084      1333  TIP3      OH2           -21.3315281727      -21.6769604795       10.2511043300  SOLV      1322            0.0000000000
      4085      1333  TIP3      H1            -20.9757506451      -21.4079100714       11.1299346542  SOLV      1322            0.0000000000
      4086      1333  TIP3      H2            -20.6617415824      -21.2362628992        9.6994249652  SOLV      1322            0.0000000000
      4087      1334  TIP3      OH2           -19.4325270879      -20.1923411102        8.9158282205  SOLV      1323            0.0000000000
      4088      1334  TIP3      H1            -18.5265919618      -20.4576863436        8.7034806821  SOLV      1323            0.0000000000
      4089      1334  TIP3      H2            -19.3191206629      -19.8276774664        9.8179056576  SOLV      1323            0.0000000000
      4090      1335  TIP3      OH2           -28.8652844686      -21.0966051780        8.8350751066  SOLV      1324            0.0000000000
      4091      1335  TIP3      H1            -29.7232794082      -21.0788997876        8.3471688401  SOLV      1324            0.0000000000
      4092      1335  TIP3      H2            -28.8432459812      -21.9929420853        9.1807785678  SOLV      1324            0.0000000000
      4093      1336  TIP3      OH2           -26.5157899915      -21.8628438430        7.6321648171  SOLV      1325            0.0000000000
      4094      1336  TIP3      H1            -27.2654738426      -21.4094796022        8.0729192060  SOLV      1325            0.0000000000
      4095      1336  TIP3      H2            -26.6503063615      -21.5686395081        6.7074816843  SOLV      1325            0.0000000000
      4096      1337  TIP3      OH2           -22.3421906241      -21.5487377408        5.6022877997  SOLV      1326            0.0000000000
      4097      1337  TIP3      H1            -23.0441574207      -21.3476936896        4.9510664852  SOLV      1326            0.0000000000
      4098      1337  TIP3      H2            -22.2224284955      -20.6714989867        6.0297697298  SOLV      1326            0.0000000000
      4099      1338  TIP3      OH2           -19.6689919032      -22.2595634207        5.9787898925  SOLV      1327            0.0000000000
      4100      1338  TIP3      H1            -20.6055571969      -21.9949300859        5.8866099829  SOLV      1327            0.0000000000
      4101      1338  TIP3      H2            -19.2194199405      -21.4699471537        5.6067822077  SOLV      1327            0.0000000000
      4102      1339  TIP3      OH2           -17.6591704390      -20.2812954469        5.2421517733  SOLV      1328            0.0000000000
      4103      1339  TIP3      H1            -17.7784846948      -19.4054384950        4.8115622279  SOLV      1328            0.0000000000
      4104      1339  TIP3      H2            -17.3709028963      -20.8342336442        4.4859584566  SOLV      1328            0.0000000000
      4105      1340  TIP3      OH2           -27.7969073029      -25.0277225982        4.8128488007  SOLV      1329            0.0000000000
      4106      1340  TIP3      H1            -27.8008032300      -25.7703409765        5.4434463100  SOLV      1329            0.0000000000
      4107      1340  TIP3      H2            -26.9374393995      -24.5941881043        4.9907018504  SOLV      1329            0.0000000000
      4108      1341  TIP3      OH2           -25.1952345807      -23.9961122572        5.1869264676  SOLV      1330            0.0000000000
      4109      1341  TIP3      H1            -24.9356567984      -24.9405185295        5.1086410310  SOLV      1330            0.0000000000
      4110      1341  TIP3      H2            -24.6822464895      -23.7571392937        5.9785564238  SOLV      1330            0.0000000000
      4111      1342  TIP3      OH2           -24.2313153628      -24.0466361197       -3.6885094183  SOLV      1331            0.0000000000
      4112      1342  TIP3      H1            -23.3558763432      -23.8339985839       -4.0812163615  SOLV      1331            0.0000000000
      4113      1342  TIP3      H2            -24.4668407687      -24.8048513376       -4.2659785052  SOLV      1331            0.0000000000
      4114      1343  TIP3      OH2           -17.0245545387      -22.8806930320       -2.7964537112  SOLV      1332            0.0000000000
      4115      1343  TIP3      H1            -17.0740640596      -23.8572838188       -2.9307208786  SOLV      1332            0.0000000000
      4116      1343  TIP3      H2            -17.4964716930      -22.5638704919       -3.5941955387  SOLV      1332            0.0000000000
      4117      1344  TIP3      OH2           -14.7219345991      -21.4768426046        8.8640660342  SOLV      1333            0.0000000000
      4118      1344  TIP3      H1            -15.5810961839      -21.8007009482        8.5494934183  SOLV      1333            0.0000000000
      4119      1344  TIP3      H2            -14.9197151954      -20.5149501607        8.9584126749  SOLV      1333            0.0000000000
      4120      1345  TIP3      OH2            -2.1066870042      -27.6717230489       -3.3700648144  SOLV      1334            0.0000000000
      4121      1345  TIP3      H1             -2.4364965336      -26.7781683743       -3.5984107699  SOLV      1334            0.0000000000
      4122      1345  TIP3      H2             -2.8653154179      -28.2141813689       -3.6495912438  SOLV      1334            0.0000000000
      4123      1346  TIP3      OH2            -2.1040032754      -27.7403398680        0.5553419902  SOLV      1335            0.0000000000
      4124      1346  TIP3      H1             -1.7584745800      -27.9345212966        1.4466375829  SOLV      1335            0.0000000000
      4125      1346  TIP3      H2             -2.5360252503      -28.5820607184        0.3321257081  SOLV      1335            0.0000000000
      4126      1347  TIP3      OH2            -9.1918977462      -28.7976304826        4.1367716805  SOLV      1336            0.0000000000
      4127      1347  TIP3      H1             -8.8949565666      -29.4736652350        4.7778469002  SOLV      1336            0.0000000000
      4128      1347  TIP3      H2             -8.4069047652      -28.2362429411        4.0987778770  SOLV      1336            0.0000000000
      4129      1348  TIP3      OH2             0.3711629514      -24.6805953941       -2.6381949118  SOLV      1337            0.0000000000
      4130      1348  TIP3      H1              0.1267467623      -25.3295595524       -1.9643487138  SOLV      1337            0.0000000000
      4131      1348  TIP3      H2              0.6287122574      -23.9120583344       -2.1005683932  SOLV      1337            0.0000000000
      4132      1349  TIP3      OH2            -9.3995145889      -24.6662448992        1.3737910306  SOLV      1338            0.0000000000
      4133      1349  TIP3      H1             -9.4928743085      -25.6438795221        1.3798731125  SOLV      1338            0.0000000000
      4134      1349  TIP3      H2             -8.4304955842      -24.5859235545        1.3329251973  SOLV      1338            0.0000000000
      4135      1350  TIP3      OH2           -12.3654494752      -32.4838004510       -0.8267607452  SOLV      1339            0.0000000000
      4136      1350  TIP3      H1            -12.9496001188      -31.7241348697       -0.6464881688  SOLV      1339            0.0000000000
      4137      1350  TIP3      H2            -13.0189713362      -33.1533517602       -1.0871246265  SOLV      1339            0.0000000000
      4138      1351  TIP3      OH2           -11.7912126005      -29.7703974740        1.0697711484  SOLV      1340            0.0000000000
      4139      1351  TIP3      H1            -11.2825136963      -30.5529059434        1.3788805406  SOLV      1340            0.0000000000
      4140      1351  TIP3      H2            -11.2197137379      -29.4278553787        0.3715540608  SOLV      1340            0.0000000000
      4141      1352  TIP3      OH2            -3.1452804478      -20.0786826397       -2.4893269728  SOLV      1341            0.0000000000
      4142      1352  TIP3      H1             -2.7311287478      -20.8175977683       -2.9813896511  SOLV      1341            0.0000000000
      4143      1352  TIP3      H2             -3.3242313175      -20.4789807117       -1.6331009238  SOLV      1341            0.0000000000
      4144      1353  TIP3      OH2            -4.1756004785      -25.4587218263        0.9796359657  SOLV      1342            0.0000000000
      4145      1353  TIP3      H1             -3.7693690225      -26.2223239551        0.5369938373  SOLV      1342            0.0000000000
      4146      1353  TIP3      H2             -3.3563197917      -24.9908648543        1.2489125269  SOLV      1342            0.0000000000
      4147      1354  TIP3      OH2             5.9465313993      -32.0571468668        0.8623623394  SOLV      1343            0.0000000000
      4148      1354  TIP3      H1              6.1339822901      -31.2213299140        1.3502050797  SOLV      1343            0.0000000000
      4149      1354  TIP3      H2              6.1633782357      -31.7930463885       -0.0455797969  SOLV      1343            0.0000000000
      4150      1355  TIP3      OH2             0.0085939060      -30.5007626817        1.3501741804  SOLV      1344            0.0000000000
      4151      1355  TIP3      H1              0.1277548188      -31.3955297108        1.6848405938  SOLV      1344            0.0000000000
      4152      1355  TIP3      H2             -0.3677317917      -30.6592389967        0.4600004233  SOLV      1344            0.0000000000
      4153      1356  TIP3      OH2            -6.5446841383      -33.7919415921        1.0336294918  SOLV      1345            0.0000000000
      4154      1356  TIP3      H1             -6.8951076650      -33.2666077611        0.2832845535  SOLV      1345            0.0000000000
      4155      1356  TIP3      H2             -6.6529704167      -34.7159023563        0.7244948664  SOLV      1345            0.0000000000
      4156      1357  TIP3      OH2             0.3257844846      -33.0076438891       -2.7156601120  SOLV      1346            0.0000000000
      4157      1357  TIP3      H1              1.0478622823      -33.1607207828       -2.0626972115  SOLV      1346            0.0000000000
      4158      1357  TIP3      H2              0.8143639255      -32.5355058939       -3.4068294921  SOLV      1346            0.0000000000
      4159      1358  TIP3      OH2           -10.2902769084      -31.8512827799        2.0331538060  SOLV      1347            0.0000000000
      4160      1358  TIP3      H1             -9.4408616951      -32.0048479197        2.4904879271  SOLV      1347            0.0000000000
      4161      1358  TIP3      H2            -10.1754618161      -32.4361985026        1.2560009048  SOLV      1347            0.0000000000
      4162      1359  TIP3      OH2            -5.9408665793      -29.8767350145        0.0027862960  SOLV      1348            0.0000000000
      4163      1359  TIP3      H1             -5.0014538691      -30.1117060456        0.1370745319  SOLV      1348            0.0000000000
      4164      1359  TIP3      H2             -6.3227360081      -30.7284981346       -0.3013560272  SOLV      1348            0.0000000000
      4165      1360  TIP3      OH2             6.4436068658      -29.9856430663        2.5777936601  SOLV      1349            0.0000000000
      4166      1360  TIP3      H1              5.6217473611      -29.4537279765        2.6151976717  SOLV      1349            0.0000000000
      4167      1360  TIP3      H2              6.9228216067      -29.7039501207        3.3764003441  SOLV      1349            0.0000000000
      4168      1361  TIP3      OH2            -6.6005809745      -34.0426993122        5.3736290669  SOLV      1350            0.0000000000
      4169      1361  TIP3      H1             -7.1775750829      -33.9433194129        4.5955972396  SOLV      1350            0.0000000000
      4170      1361  TIP3      H2             -7.2031252481      -33.7375708414        6.0812483329  SOLV      1350            0.0000000000
      4171      1362  TIP3      OH2            -3.1647638225      -25.4682622677       -4.7044800180  SOLV      1351            0.0000000000
      4172      1362  TIP3      H1             -3.6489105381      -25.6737870652       -5.5187791709  SOLV      1351            0.0000000000
      4173      1362  TIP3      H2             -3.6633663074      -24.6807958405       -4.3922541354  SOLV      1351            0.0000000000
      4174      1363  TIP3      OH2            -5.6182990487      -26.2536524594        3.2136406240  SOLV      1352            0.0000000000
      4175      1363  TIP3      H1             -6.2247874115      -25.5674037066        3.5726936401  SOLV      1352            0.0000000000
      4176      1363  TIP3      H2             -5.1858306744      -25.7752286758        2.4790474466  SOLV      1352            0.0000000000
      4177      1364  TIP3      OH2             2.4037161450      -32.9634388905       -0.9424602450  SOLV      1353            0.0000000000
      4178      1364  TIP3      H1              2.4424022368      -33.5697447971       -0.1783890347  SOLV      1353            0.0000000000
      4179      1364  TIP3      H2              2.8226164484      -32.1551453799       -0.5897295249  SOLV      1353            0.0000000000
      4180      1365  TIP3      OH2            -7.9554360055      -32.8240605858        3.1779698031  SOLV      1354            0.0000000000
      4181      1365  TIP3      H1             -7.3148812335      -32.1313011587        3.4418149937  SOLV      1354            0.0000000000
      4182      1365  TIP3      H2             -7.4604201884      -33.2401312729        2.4352896430  SOLV      1354            0.0000000000
      4183      1366  TIP3      OH2            -7.3036867390      -24.2840325292        4.2105448653  SOLV      1355            0.0000000000
      4184      1366  TIP3      H1             -7.5608054715      -23.4008729721        3.8722341823  SOLV      1355            0.0000000000
      4185      1366  TIP3      H2             -8.0935353326      -24.4744450283        4.7611540081  SOLV      1355            0.0000000000
      4186      1367  TIP3      OH2           -13.4159955090      -27.3928485759       -3.4060040392  SOLV      1356            0.0000000000
      4187      1367  TIP3      H1            -13.8487719078      -27.1118376326       -4.2291490580  SOLV      1356            0.0000000000
      4188      1367  TIP3      H2            -13.1187274664      -26.5327286609       -3.0399839044  SOLV      1356            0.0000000000
      4189      1368  TIP3      OH2             0.9999546052      -22.2434709854       -1.0426805067  SOLV      1357            0.0000000000
      4190      1368  TIP3      H1              0.1122290959      -22.3359329594       -0.6224848782  SOLV      1357            0.0000000000
      4191      1368  TIP3      H2              0.9044540890      -21.3709090630       -1.4733677844  SOLV      1357            0.0000000000
      4192      1369  TIP3      OH2            -1.9990868489      -21.8259869793       -4.3091527049  SOLV      1358            0.0000000000
      4193      1369  TIP3      H1             -1.4783663399      -22.6390589688       -4.4973250248  SOLV      1358            0.0000000000
      4194      1369  TIP3      H2             -1.3962530339      -21.1554919554       -4.7024300018  SOLV      1358            0.0000000000
      4195      1370  TIP3      OH2            -0.5650210984      -24.0171727831       -5.1608637760  SOLV      1359            0.0000000000
      4196      1370  TIP3      H1             -1.1914876826      -24.7404398848       -5.3130614231  SOLV      1359            0.0000000000
      4197      1370  TIP3      H2             -0.1339830849      -24.3081976581       -4.3275050143  SOLV      1359            0.0000000000
      4198      1371  TIP3      OH2             3.2472430980      -23.1533758523        2.4230771480  SOLV      1360            0.0000000000
      4199      1371  TIP3      H1              3.1029646420      -23.9284813947        1.8393336047  SOLV      1360            0.0000000000
      4200      1371  TIP3      H2              3.0480145650      -22.4063426570        1.8198206131  SOLV      1360            0.0000000000
      4201      1372  TIP3      OH2            -3.8207260852      -29.2183385437       -4.9390903715  SOLV      1361            0.0000000000
      4202      1372  TIP3      H1             -4.6479245752      -28.7224404629       -5.1122843362  SOLV      1361            0.0000000000
      4203      1372  TIP3      H2             -3.4146566425      -29.2327680012       -5.8214569527  SOLV      1361            0.0000000000
      4204      1373  TIP3      OH2            -4.2720792787      -31.3040429105       -7.8636681386  SOLV      1362            0.0000000000
      4205      1373  TIP3      H1             -3.5810054023      -30.8304469361       -7.3700531312  SOLV      1362            0.0000000000
      4206      1373  TIP3      H2             -3.7265296911      -31.9073103808       -8.4023911067  SOLV      1362            0.0000000000
      4207      1374  TIP3      OH2             5.1845481544      -26.7658173111        0.8798237237  SOLV      1363            0.0000000000
      4208      1374  TIP3      H1              4.3576284928      -26.2346654609        0.9227163493  SOLV      1363            0.0000000000
      4209      1374  TIP3      H2              5.4995513597      -26.5168479140       -0.0149754530  SOLV      1363            0.0000000000
      4210      1375  TIP3      OH2            -0.3339359928      -28.3656276251       -5.3007484043  SOLV      1364            0.0000000000
      4211      1375  TIP3      H1             -0.9079856752      -28.1058705254       -4.5392979290  SOLV      1364            0.0000000000
      4212      1375  TIP3      H2              0.5000117330      -28.5629138721       -4.8329453683  SOLV      1364            0.0000000000
      4213      1376  TIP3      OH2             1.8479392778      -27.8347791503        3.8240370058  SOLV      1365            0.0000000000
      4214      1376  TIP3      H1              1.8524561505      -27.0139468442        4.3520774554  SOLV      1365            0.0000000000
      4215      1376  TIP3      H2              0.9577804929      -27.7890679137        3.4153577501  SOLV      1365            0.0000000000
      4216      1377  TIP3      OH2            -8.0230238379      -28.4236859968       -1.1099604798  SOLV      1366            0.0000000000
      4217      1377  TIP3      H1             -8.4474194508      -29.0159154074       -1.7686965075  SOLV      1366            0.0000000000
      4218      1377  TIP3      H2             -7.2702180992      -28.9703645232       -0.8001894840  SOLV      1366            0.0000000000
      4219      1378  TIP3      OH2            -6.7211900527      -24.2648512691        0.3372249490  SOLV      1367            0.0000000000
      4220      1378  TIP3      H1             -6.9207503236      -24.6307535224       -0.5365213836  SOLV      1367            0.0000000000
      4221      1378  TIP3      H2             -5.8369324565      -24.6419500461        0.5225917861  SOLV      1367            0.0000000000
      4222      1379  TIP3      OH2            -6.6830819355      -28.6864165894        2.4348140045  SOLV      1368            0.0000000000
      4223      1379  TIP3      H1             -6.3632251942      -28.9305783262        1.5423621646  SOLV      1368            0.0000000000
      4224      1379  TIP3      H2             -6.2509385764      -27.8222824649        2.5952410730  SOLV      1368            0.0000000000
      4225      1380  TIP3      OH2            -1.3653721724      -22.3219469005        0.2283755488  SOLV      1369            0.0000000000
      4226      1380  TIP3      H1             -1.5447508452      -21.5166604242        0.7459800034  SOLV      1369            0.0000000000
      4227      1380  TIP3      H2             -1.5606660682      -23.0419519343        0.8606490060  SOLV      1369            0.0000000000
      4228      1381  TIP3      OH2            -5.2750099535      -23.1518091145        5.6918053958  SOLV      1370            0.0000000000
      4229      1381  TIP3      H1             -5.8848013219      -22.5307863039        6.1472417581  SOLV      1370            0.0000000000
      4230      1381  TIP3      H2             -5.9247726055      -23.6734691189        5.1757281498  SOLV      1370            0.0000000000
      4231      1382  TIP3      OH2            -1.9268240359      -29.8744737855       -6.9816804891  SOLV      1371            0.0000000000
      4232      1382  TIP3      H1             -1.3588800250      -29.2395779733       -6.4870170708  SOLV      1371            0.0000000000
      4233      1382  TIP3      H2             -1.6738069968      -29.6558549183       -7.9114533887  SOLV      1371            0.0000000000
      4234      1383  TIP3      OH2            -7.7414551855      -27.5738085522        6.7411442486  SOLV      1372            0.0000000000
      4235      1383  TIP3      H1             -7.6928695596      -26.6897408379        7.1581481257  SOLV      1372            0.0000000000
      4236      1383  TIP3      H2             -8.6921268605      -27.7724642051        6.8737453354  SOLV      1372            0.0000000000
      4237      1384  TIP3      OH2            -4.4661630962      -23.0628894024       -4.2660847091  SOLV      1373            0.0000000000
      4238      1384  TIP3      H1             -3.6714631960      -22.5088512925       -4.1822683789  SOLV      1373            0.0000000000
      4239      1384  TIP3      H2             -5.1012039418      -22.4630071882       -4.6806988362  SOLV      1373            0.0000000000
      4240      1385  TIP3      OH2            -7.3302131283      -21.5037590365        6.5595644275  SOLV      1374            0.0000000000
      4241      1385  TIP3      H1             -7.6886553318      -21.4592638927        5.6552991834  SOLV      1374            0.0000000000
      4242      1385  TIP3      H2             -8.1348708213      -21.7113052614        7.0903812489  SOLV      1374            0.0000000000
      4243      1386  TIP3      OH2            -9.3645269991      -29.9806593880       -3.0544425378  SOLV      1375            0.0000000000
      4244      1386  TIP3      H1            -10.0677848189      -29.5410280725       -3.5767546500  SOLV      1375            0.0000000000
      4245      1386  TIP3      H2             -9.7080540292      -30.8779764207       -2.9836248007  SOLV      1375            0.0000000000
      4246      1387  TIP3      OH2             1.1941821205      -23.7364796772      -11.0379253016  SOLV      1376            0.0000000000
      4247      1387  TIP3      H1              1.2560206589      -22.7652112817      -11.1676027008  SOLV      1376            0.0000000000
      4248      1387  TIP3      H2              2.1253370495      -24.0074638715      -11.1713037034  SOLV      1376            0.0000000000
      4249      1388  TIP3      OH2           -11.5686567333      -26.1305029316        6.0271489714  SOLV      1377            0.0000000000
      4250      1388  TIP3      H1            -12.2431448008      -26.3428856049        5.3511227592  SOLV      1377            0.0000000000
      4251      1388  TIP3      H2            -11.1864227298      -27.0082801577        6.2354289070  SOLV      1377            0.0000000000
      4252      1389  TIP3      OH2           -13.0058527497      -24.2231963516        2.3593793619  SOLV      1378            0.0000000000
      4253      1389  TIP3      H1            -12.0437169012      -24.2556118019        2.2636353461  SOLV      1378            0.0000000000
      4254      1389  TIP3      H2            -13.1181753670      -23.4215990862        2.8934236607  SOLV      1378            0.0000000000
      4255      1390  TIP3      OH2             5.6302452875      -19.6550319122        2.9409405122  SOLV      1379            0.0000000000
      4256      1390  TIP3      H1              5.6206802180      -20.6170320417        3.1046079096  SOLV      1379            0.0000000000
      4257      1390  TIP3      H2              4.7902590987      -19.3999066116        3.3876095364  SOLV      1379            0.0000000000
      4258      1391  TIP3      OH2            -3.3094997141      -21.8588834810        4.2579255057  SOLV      1380            0.0000000000
      4259      1391  TIP3      H1             -3.3559256878      -20.9283937863        4.5709122407  SOLV      1380            0.0000000000
      4260      1391  TIP3      H2             -4.0260044790      -22.2657115841        4.7949066816  SOLV      1380            0.0000000000
      4261      1392  TIP3      OH2            -5.6436356974      -20.5627528578       -6.2241386356  SOLV      1381            0.0000000000
      4262      1392  TIP3      H1             -6.1604424786      -20.7419708187       -7.0294319253  SOLV      1381            0.0000000000
      4263      1392  TIP3      H2             -5.9994511020      -19.7033374492       -5.9343902023  SOLV      1381            0.0000000000
      4264      1393  TIP3      OH2           -11.3049834932      -22.0922594572       -2.3772508200  SOLV      1382            0.0000000000
      4265      1393  TIP3      H1            -10.8505658315      -22.1721683669       -1.5076853107  SOLV      1382            0.0000000000
      4266      1393  TIP3      H2            -11.8308280543      -22.9068835728       -2.3893890469  SOLV      1382            0.0000000000
      4267      1394  TIP3      OH2            -3.6808785505      -21.5197613299       -9.8538332895  SOLV      1383            0.0000000000
      4268      1394  TIP3      H1             -3.1075975950      -22.2380763449      -10.2005904944  SOLV      1383            0.0000000000
      4269      1394  TIP3      H2             -3.3408630319      -21.4212342761       -8.9392962231  SOLV      1383            0.0000000000
      4270      1395  TIP3      OH2            -3.1450318562      -21.0445706992       -7.1673232192  SOLV      1384            0.0000000000
      4271      1395  TIP3      H1             -4.0379458604      -20.9448800213       -6.7632883844  SOLV      1384            0.0000000000
      4272      1395  TIP3      H2             -2.6474571505      -21.4181495693       -6.4240992773  SOLV      1384            0.0000000000
      4273      1396  TIP3      OH2             4.6037310014      -28.3878859016        5.7481377012  SOLV      1385            0.0000000000
      4274      1396  TIP3      H1              3.7060778956      -28.2732132813        5.4089306613  SOLV      1385            0.0000000000
      4275      1396  TIP3      H2              4.7270763696      -29.3501756683        5.6654121712  SOLV      1385            0.0000000000
      4276      1397  TIP3      OH2            -9.4995115778      -24.3228164038        5.8341984188  SOLV      1386            0.0000000000
      4277      1397  TIP3      H1             -9.0252537004      -24.4658269055        6.6775536191  SOLV      1386            0.0000000000
      4278      1397  TIP3      H2            -10.2552204949      -24.9397938936        5.9215536632  SOLV      1386            0.0000000000
      4279      1398  TIP3      OH2             2.2384641074      -30.2809827575        5.0381422422  SOLV      1387            0.0000000000
      4280      1398  TIP3      H1              1.6642156091      -30.3363207704        5.8337422014  SOLV      1387            0.0000000000
      4281      1398  TIP3      H2              1.9153571910      -29.4644497369        4.6027397674  SOLV      1387            0.0000000000
      4282      1399  TIP3      OH2            -1.1302729429      -29.4613377137       -9.5322046082  SOLV      1388            0.0000000000
      4283      1399  TIP3      H1             -1.5498821991      -29.6262341631      -10.3998844291  SOLV      1388            0.0000000000
      4284      1399  TIP3      H2             -0.3513215894      -28.9383630524       -9.7956732227  SOLV      1388            0.0000000000
      4285      1400  TIP3      OH2            -6.1583138451      -30.8678162333        3.9598319386  SOLV      1389            0.0000000000
      4286      1400  TIP3      H1             -6.7076268435      -30.6895315224        4.7543340920  SOLV      1389            0.0000000000
      4287      1400  TIP3      H2             -6.3639977409      -30.0720403835        3.4162131479  SOLV      1389            0.0000000000
      4288      1401  TIP3      OH2            -7.4109802959      -32.0762464932       -0.9308562470  SOLV      1390            0.0000000000
      4289      1401  TIP3      H1             -8.3447378891      -32.3362873258       -0.7728366480  SOLV      1390            0.0000000000
      4290      1401  TIP3      H2             -7.2692496624      -32.4700989197       -1.8189541736  SOLV      1390            0.0000000000
      4291      1402  TIP3      OH2            -2.4198871464      -31.2088553034       -3.5902710035  SOLV      1391            0.0000000000
      4292      1402  TIP3      H1             -2.9608001148      -30.5085922533       -4.0159976934  SOLV      1391            0.0000000000
      4293      1402  TIP3      H2             -1.9628674049      -31.5990130493       -4.3555404297  SOLV      1391            0.0000000000
      4294      1403  TIP3      OH2            -0.6335958421      -28.3492228126        7.0443051620  SOLV      1392            0.0000000000
      4295      1403  TIP3      H1             -0.8901088853      -29.0037320849        7.7309130722  SOLV      1392            0.0000000000
      4296      1403  TIP3      H2              0.2908060334      -28.1736747588        7.3161861330  SOLV      1392            0.0000000000
      4297      1404  TIP3      OH2            -0.8418953982      -30.9440832433       -1.2520130972  SOLV      1393            0.0000000000
      4298      1404  TIP3      H1             -1.5057945411      -30.6722499903       -1.9182240165  SOLV      1393            0.0000000000
      4299      1404  TIP3      H2             -0.5446023735      -31.7736495855       -1.6771984452  SOLV      1393            0.0000000000
      4300      1405  TIP3      OH2            -7.9553341585      -30.4577899069        5.9780917722  SOLV      1394            0.0000000000
      4301      1405  TIP3      H1             -7.7432611515      -29.7789032522        6.6352478838  SOLV      1394            0.0000000000
      4302      1405  TIP3      H2             -8.0362578193      -31.2607219787        6.5478743540  SOLV      1394            0.0000000000
      4303      1406  TIP3      OH2            -7.0599911753      -34.8736158985       -6.7438838347  SOLV      1395            0.0000000000
      4304      1406  TIP3      H1             -7.2329835284      -35.1439781941       -5.8253825481  SOLV      1395            0.0000000000
      4305      1406  TIP3      H2             -7.9691921339      -34.6524592529       -7.0292795209  SOLV      1395            0.0000000000
      4306      1407  TIP3      OH2           -11.7869907658      -35.3161167464        1.3725341168  SOLV      1396            0.0000000000
      4307      1407  TIP3      H1            -11.4566282072      -34.8678179830        2.1743134409  SOLV      1396            0.0000000000
      4308      1407  TIP3      H2            -11.5416754450      -36.2190673274        1.5547784595  SOLV      1396            0.0000000000
      4309      1408  TIP3      OH2           -12.0417931649      -35.3990511822       -2.6551004886  SOLV      1397            0.0000000000
      4310      1408  TIP3      H1            -11.9087213332      -34.9484554363       -3.5238428381  SOLV      1397            0.0000000000
      4311      1408  TIP3      H2            -12.8479896485      -34.9255445290       -2.3848364878  SOLV      1397            0.0000000000
      4312      1409  TIP3      OH2            -0.7879791921      -28.4306120821        2.9056389127  SOLV      1398            0.0000000000
      4313      1409  TIP3      H1             -0.4476726147      -29.1536639488        2.3297762008  SOLV      1398            0.0000000000
      4314      1409  TIP3      H2             -1.1021314127      -28.9596996416        3.6707288604  SOLV      1398            0.0000000000
      4315      1410  TIP3      OH2            -4.0074523542      -33.5217503057       -0.1418354933  SOLV      1399            0.0000000000
      4316      1410  TIP3      H1             -4.8537519929      -33.6302370120        0.3333362324  SOLV      1399            0.0000000000
      4317      1410  TIP3      H2             -3.3766368043      -33.7212094905        0.5793289226  SOLV      1399            0.0000000000
      4318      1411  TIP3      OH2            -9.8292149558      -33.2541595480       -0.3491956463  SOLV      1400            0.0000000000
      4319      1411  TIP3      H1            -10.7422903002      -32.9484547490       -0.5771380718  SOLV      1400            0.0000000000
      4320      1411  TIP3      H2             -9.9596761709      -34.2076642506       -0.4099935945  SOLV      1400            0.0000000000
      4321      1412  TIP3      OH2            -7.0351611534      -33.3587926307       -3.3164142257  SOLV      1401            0.0000000000
      4322      1412  TIP3      H1             -6.0844569812      -33.1478874530       -3.4345684544  SOLV      1401            0.0000000000
      4323      1412  TIP3      H2             -7.4666584981      -32.9774727991       -4.1148970907  SOLV      1401            0.0000000000
      4324      1413  TIP3      OH2            -8.6099260409      -32.6316580310       -5.4602390245  SOLV      1402            0.0000000000
      4325      1413  TIP3      H1             -9.2752442662      -33.1739276520       -5.9233967064  SOLV      1402            0.0000000000
      4326      1413  TIP3      H2             -8.0427237292      -32.3880192034       -6.2228708535  SOLV      1402            0.0000000000
      4327      1414  TIP3      OH2             2.5963381226      -16.2201624131        3.9575924895  SOLV      1403            0.0000000000
      4328      1414  TIP3      H1              2.5727476373      -16.0150755504        3.0075089116  SOLV      1403            0.0000000000
      4329      1414  TIP3      H2              3.4111156741      -15.7633929039        4.2488947545  SOLV      1403            0.0000000000
      4330      1415  TIP3      OH2            -7.8867249691      -25.1025177231        8.0983022558  SOLV      1404            0.0000000000
      4331      1415  TIP3      H1             -7.0953569716      -24.8060238821        8.5903463603  SOLV      1404            0.0000000000
      4332      1415  TIP3      H2             -8.5477106263      -25.1044438616        8.8183476300  SOLV      1404            0.0000000000
      4333      1416  TIP3      OH2            -3.2762294683      -30.5034029894        0.7356327418  SOLV      1405            0.0000000000
      4334      1416  TIP3      H1             -2.8222178205      -31.1578368411        0.1849483719  SOLV      1405            0.0000000000
      4335      1416  TIP3      H2             -3.3253398792      -30.9648634707        1.5911684933  SOLV      1405            0.0000000000
      4336      1417  TIP3      OH2            -3.5006508693      -31.4540917399        3.6446442345  SOLV      1406            0.0000000000
      4337      1417  TIP3      H1             -4.4127701935      -31.0991091994        3.7254497273  SOLV      1406            0.0000000000
      4338      1417  TIP3      H2             -2.9619631181      -30.7736059708        4.0951690276  SOLV      1406            0.0000000000
      4339      1418  TIP3      OH2            -6.1169426817      -27.7229092140       -5.4773860638  SOLV      1407            0.0000000000
      4340      1418  TIP3      H1             -6.8607103205      -28.3516397579       -5.6115947173  SOLV      1407            0.0000000000
      4341      1418  TIP3      H2             -6.3360438269      -27.3672482831       -4.5810108079  SOLV      1407            0.0000000000
      4342      1419  TIP3      OH2             2.8441131170      -25.3357096148        0.7545774645  SOLV      1408            0.0000000000
      4343      1419  TIP3      H1              3.0616028910      -24.8136664737       -0.0453295690  SOLV      1408            0.0000000000
      4344      1419  TIP3      H2              1.9859225589      -25.7455919505        0.5074226163  SOLV      1408            0.0000000000
      4345      1420  TIP3      OH2            -1.6595238645      -34.2079772427       -7.5439069644  SOLV      1409            0.0000000000
      4346      1420  TIP3      H1             -2.2670442603      -34.7775475871       -7.0517070837  SOLV      1409            0.0000000000
      4347      1420  TIP3      H2             -1.4334517895      -33.5220530942       -6.8820212080  SOLV      1409            0.0000000000
      4348      1421  TIP3      OH2            -2.1361258014      -24.4951035634        4.4976575061  SOLV      1410            0.0000000000
      4349      1421  TIP3      H1             -1.8450805455      -24.6509436942        5.4043067750  SOLV      1410            0.0000000000
      4350      1421  TIP3      H2             -2.5327515435      -23.6073503931        4.5498479826  SOLV      1410            0.0000000000
      4351      1422  TIP3      OH2            -0.8804045906      -32.1507901149       -5.8601709270  SOLV      1411            0.0000000000
      4352      1422  TIP3      H1              0.0447444386      -31.9220130899       -5.6614679943  SOLV      1411            0.0000000000
      4353      1422  TIP3      H2             -1.1935134055      -31.3436087890       -6.3227049311  SOLV      1411            0.0000000000
      4354      1423  TIP3      OH2            -9.1765579081      -27.4177374709        1.2301388264  SOLV      1412            0.0000000000
      4355      1423  TIP3      H1             -8.7872121163      -27.7306142329        0.3883293538  SOLV      1412            0.0000000000
      4356      1423  TIP3      H2             -8.7819111066      -28.0272392470        1.8717190587  SOLV      1412            0.0000000000
      4357      1424  TIP3      OH2            -4.6676983309      -26.1848406858       -7.2143687164  SOLV      1413            0.0000000000
      4358      1424  TIP3      H1             -5.1645999380      -25.3331824405       -7.1902071380  SOLV      1413            0.0000000000
      4359      1424  TIP3      H2             -5.2265994161      -26.7484141821       -6.6354354469  SOLV      1413            0.0000000000
      4360      1425  TIP3      OH2           -10.3512710619      -28.2642316283        7.3786201270  SOLV      1414            0.0000000000
      4361      1425  TIP3      H1            -10.2067390924      -28.3942319788        8.3365074838  SOLV      1414            0.0000000000
      4362      1425  TIP3      H2            -11.0563238214      -28.9140208747        7.2054942260  SOLV      1414            0.0000000000
      4363      1426  TIP3      OH2            -3.0993474721      -27.0586110983        7.5719125214  SOLV      1415            0.0000000000
      4364      1426  TIP3      H1             -3.7501438521      -27.6725790763        7.1904443915  SOLV      1415            0.0000000000
      4365      1426  TIP3      H2             -2.2577897895      -27.4062486067        7.2135199104  SOLV      1415            0.0000000000
      4366      1427  TIP3      OH2            -0.5543194539      -21.8948220706        3.4513753928  SOLV      1416            0.0000000000
      4367      1427  TIP3      H1             -1.5192203240      -21.9049475421        3.5829161635  SOLV      1416            0.0000000000
      4368      1427  TIP3      H2             -0.2738821881      -21.3721315123        4.2340932195  SOLV      1416            0.0000000000
      4369      1428  TIP3      OH2             3.5372706175      -31.1548259314       -7.4614026627  SOLV      1417            0.0000000000
      4370      1428  TIP3      H1              2.9937357741      -31.6198748397       -8.1442653905  SOLV      1417            0.0000000000
      4371      1428  TIP3      H2              3.4724371845      -30.2612700406       -7.8695269104  SOLV      1417            0.0000000000
      4372      1429  TIP3      OH2             5.7404380106      -22.5502954636        3.3168804771  SOLV      1418            0.0000000000
      4373      1429  TIP3      H1              4.7628277012      -22.6110380594        3.2255513290  SOLV      1418            0.0000000000
      4374      1429  TIP3      H2              6.0096070574      -22.8540271543        2.4212673452  SOLV      1418            0.0000000000
      4375      1430  TIP3      OH2             0.6591494728      -22.9878846475       -8.3300121779  SOLV      1419            0.0000000000
      4376      1430  TIP3      H1              0.2577403974      -23.6111642596       -7.7085768417  SOLV      1419            0.0000000000
      4377      1430  TIP3      H2              0.6700886884      -23.4814688775       -9.1686561298  SOLV      1419            0.0000000000
      4378      1431  TIP3      OH2             0.5080246553      -26.6822988034       -0.0922384243  SOLV      1420            0.0000000000
      4379      1431  TIP3      H1             -0.4248550507      -26.9313480083        0.0645409981  SOLV      1420            0.0000000000
      4380      1431  TIP3      H2              0.8321564896      -27.4919954332       -0.5335147951  SOLV      1420            0.0000000000
      4381      1432  TIP3      OH2            -8.1800768811      -24.4029649205       -2.4899222130  SOLV      1421            0.0000000000
      4382      1432  TIP3      H1             -8.2289514807      -23.5889719877       -3.0271320059  SOLV      1421            0.0000000000
      4383      1432  TIP3      H2             -9.1123348182      -24.5713484490       -2.3180984504  SOLV      1421            0.0000000000
      4384      1433  TIP3      OH2           -12.4946049107      -31.3840634048       -5.3835156225  SOLV      1422            0.0000000000
      4385      1433  TIP3      H1            -12.0381454625      -30.5435721299       -5.1646411145  SOLV      1422            0.0000000000
      4386      1433  TIP3      H2            -13.2647148681      -31.3394453258       -4.7771611423  SOLV      1422            0.0000000000
      4387      1434  TIP3      OH2            -6.8755328603      -26.7706583955       -3.0639482383  SOLV      1423            0.0000000000
      4388      1434  TIP3      H1             -7.2202126124      -25.8745712323       -2.8723499949  SOLV      1423            0.0000000000
      4389      1434  TIP3      H2             -7.2404612589      -27.2795008376       -2.3154673257  SOLV      1423            0.0000000000
      4390      1435  TIP3      OH2            -5.4672630192      -21.0026411642        2.1952838825  SOLV      1424            0.0000000000
      4391      1435  TIP3      H1             -5.0670080004      -20.2637077213        1.6935589413  SOLV      1424            0.0000000000
      4392      1435  TIP3      H2             -4.6961791330      -21.3485361120        2.6711406124  SOLV      1424            0.0000000000
      4393      1436  TIP3      OH2            -9.0089874215      -22.0373171699       -3.9561417535  SOLV      1425            0.0000000000
      4394      1436  TIP3      H1             -9.8707425485      -21.9444629452       -3.5019724515  SOLV      1425            0.0000000000
      4395      1436  TIP3      H2             -8.6825259191      -21.1094091594       -3.9206719714  SOLV      1425            0.0000000000
      4396      1437  TIP3      OH2            -1.6572450546      -24.6299414810        1.8155802330  SOLV      1426            0.0000000000
      4397      1437  TIP3      H1             -1.7709679110      -24.6275593799        2.7936836611  SOLV      1426            0.0000000000
      4398      1437  TIP3      H2             -0.8624681632      -25.1698031214        1.7201119151  SOLV      1426            0.0000000000
      4399      1438  TIP3      OH2            -1.8573060938      -25.6722195954       -9.3939975091  SOLV      1427            0.0000000000
      4400      1438  TIP3      H1             -1.3364953726      -25.9460620984       -8.6019029732  SOLV      1427            0.0000000000
      4401      1438  TIP3      H2             -2.7428477439      -25.9796555838       -9.1409167034  SOLV      1427            0.0000000000
      4402      1439  TIP3      OH2             0.8613408636      -19.3465491201        2.2848915599  SOLV      1428            0.0000000000
      4403      1439  TIP3      H1              0.0603225371      -19.9038459296        2.2459128831  SOLV      1428            0.0000000000
      4404      1439  TIP3      H2              0.6799559961      -18.7028231356        1.5657858848  SOLV      1428            0.0000000000
      4405      1440  TIP3      OH2             1.5101723158      -20.9768045618      -11.1965686716  SOLV      1429            0.0000000000
      4406      1440  TIP3      H1              1.8294244185      -20.2370979113      -11.7385669695  SOLV      1429            0.0000000000
      4407      1440  TIP3      H2              0.7126956889      -20.5529010817      -10.8134257878  SOLV      1429            0.0000000000
      4408      1441  TIP3      OH2            -7.9047997703      -32.7202314211        7.5275352698  SOLV      1430            0.0000000000
      4409      1441  TIP3      H1             -8.6585612249      -33.3463326730        7.4313082415  SOLV      1430            0.0000000000
      4410      1441  TIP3      H2             -7.4196341730      -33.1184681544        8.2605319008  SOLV      1430            0.0000000000
      4411      1442  TIP3      OH2            -0.2349878498      -26.4618772610       -7.3328160372  SOLV      1431            0.0000000000
      4412      1442  TIP3      H1             -0.3579662813      -27.0504666228       -6.5626836401  SOLV      1431            0.0000000000
      4413      1442  TIP3      H2              0.7403004842      -26.4391150991       -7.3837005980  SOLV      1431            0.0000000000
      4414      1443  TIP3      OH2           -11.1094269921      -22.3640773494        3.7690827294  SOLV      1432            0.0000000000
      4415      1443  TIP3      H1            -10.5657542367      -23.0531577830        4.1828743903  SOLV      1432            0.0000000000
      4416      1443  TIP3      H2            -10.8896508416      -21.5946189146        4.3096520334  SOLV      1432            0.0000000000
      4417      1444  TIP3      OH2            -8.2092100995      -25.9222579255       -9.3662450340  SOLV      1433            0.0000000000
      4418      1444  TIP3      H1             -8.1208355631      -26.8572312874       -9.6287907950  SOLV      1433            0.0000000000
      4419      1444  TIP3      H2             -8.4365648167      -26.0088607198       -8.4185713916  SOLV      1433            0.0000000000
      4420      1445  TIP3      OH2            -8.8026827644      -25.8494462575       -6.6605495652  SOLV      1434            0.0000000000
      4421      1445  TIP3      H1             -8.0885581829      -26.1238435016       -6.0721541498  SOLV      1434            0.0000000000
      4422      1445  TIP3      H2             -8.7742904750      -24.8694248935       -6.5670521301  SOLV      1434            0.0000000000
      4423      1446  TIP3      OH2           -11.4503198772      -28.9225402560       -4.5863498650  SOLV      1435            0.0000000000
      4424      1446  TIP3      H1            -12.1112921368      -28.4607815231       -4.0259280230  SOLV      1435            0.0000000000
      4425      1446  TIP3      H2            -11.3022586497      -28.2387798245       -5.2673297723  SOLV      1435            0.0000000000
      4426      1447  TIP3      OH2           -12.6421532900       29.8733988842       -8.3273004104  SOLV      1436            0.0000000000
      4427      1447  TIP3      H1            -11.7284959962       30.1607222898       -8.2311785337  SOLV      1436            0.0000000000
      4428      1447  TIP3      H2            -12.6393279647       29.0661392251       -7.7992968864  SOLV      1436            0.0000000000
      4429      1448  TIP3      OH2            -1.1439239090      -34.8427454827       -4.4034338895  SOLV      1437            0.0000000000
      4430      1448  TIP3      H1             -0.8411878741      -34.4470967003       -5.2255626714  SOLV      1437            0.0000000000
      4431      1448  TIP3      H2             -0.8620451271      -34.1791294228       -3.7557903937  SOLV      1437            0.0000000000
      4432      1449  TIP3      OH2            -6.0897703812      -23.8812577909       -7.1688783138  SOLV      1438            0.0000000000
      4433      1449  TIP3      H1             -6.9695718719      -23.6549936961       -6.8072535775  SOLV      1438            0.0000000000
      4434      1449  TIP3      H2             -5.9519350445      -23.1241534923       -7.7574039674  SOLV      1438            0.0000000000
      4435      1450  TIP3      OH2            -4.3088942865      -33.2116996579       -2.8821294790  SOLV      1439            0.0000000000
      4436      1450  TIP3      H1             -3.6158165052      -32.5491021109       -3.0616940408  SOLV      1439            0.0000000000
      4437      1450  TIP3      H2             -4.1790928472      -33.3611427519       -1.9183571745  SOLV      1439            0.0000000000
      4438      1451  TIP3      OH2            -1.4648750125      -30.0399514837        4.9967117208  SOLV      1440            0.0000000000
      4439      1451  TIP3      H1             -1.2181698978      -29.4932459187        5.7728512396  SOLV      1440            0.0000000000
      4440      1451  TIP3      H2             -1.0392004235      -30.8900709370        5.1842950079  SOLV      1440            0.0000000000
      4441      1452  TIP3      OH2            -8.6325968108      -23.1343139553       -6.4591609469  SOLV      1441            0.0000000000
      4442      1452  TIP3      H1             -8.9271544656      -22.4289995227       -7.0788665718  SOLV      1441            0.0000000000
      4443      1452  TIP3      H2             -8.8016231387      -22.7069846943       -5.5904341433  SOLV      1441            0.0000000000
      4444      1453  TIP3      OH2            -7.8756478198      -35.8121716277       -4.2136864648  SOLV      1442            0.0000000000
      4445      1453  TIP3      H1             -7.5892658104      -35.0117798344       -3.7183130391  SOLV      1442            0.0000000000
      4446      1453  TIP3      H2             -7.2108773201      -36.4829136178       -3.9510447760  SOLV      1442            0.0000000000
      4447      1454  TIP3      OH2             4.7822219515      -31.1852844513        4.7136200936  SOLV      1443            0.0000000000
      4448      1454  TIP3      H1              3.8561852893      -30.8589054746        4.6883515961  SOLV      1443            0.0000000000
      4449      1454  TIP3      H2              4.9933913391      -31.2758395670        3.7740480553  SOLV      1443            0.0000000000
      4450      1455  TIP3      OH2             1.3372254053      -29.1327050927       -1.2871973123  SOLV      1444            0.0000000000
      4451      1455  TIP3      H1              0.5534493977      -29.7005447550       -1.1505565600  SOLV      1444            0.0000000000
      4452      1455  TIP3      H2              2.0219472260      -29.6110255967       -0.7732369163  SOLV      1444            0.0000000000
      4453      1456  TIP3      OH2           -11.4501305525      -26.8880520906       -6.5708544585  SOLV      1445            0.0000000000
      4454      1456  TIP3      H1            -10.7397896592      -26.2228951820       -6.4980161496  SOLV      1445            0.0000000000
      4455      1456  TIP3      H2            -11.0279957791      -27.4853911657       -7.2272286331  SOLV      1445            0.0000000000
      4456      1457  TIP3      OH2           -12.0543260535      -34.0863459087       -5.0029967383  SOLV      1446            0.0000000000
      4457      1457  TIP3      H1            -12.1269347003      -33.1143064711       -5.1464801155  SOLV      1446            0.0000000000
      4458      1457  TIP3      H2            -12.2902635924      -34.4576102490       -5.8513472586  SOLV      1446            0.0000000000
      4459      1458  TIP3      OH2             1.0779543022      -19.5278248639       -1.7918139696  SOLV      1447            0.0000000000
      4460      1458  TIP3      H1              0.6433906580      -19.0652794138       -2.5442171889  SOLV      1447            0.0000000000
      4461      1458  TIP3      H2              2.0215059498      -19.3510479530       -2.0009882865  SOLV      1447            0.0000000000
      4462      1459  TIP3      OH2           -12.8515166667      -24.7082912642       -2.7248675039  SOLV      1448            0.0000000000
      4463      1459  TIP3      H1            -13.4543147680      -24.3978353607       -2.0391185457  SOLV      1448            0.0000000000
      4464      1459  TIP3      H2            -13.1964878221      -24.2484516441       -3.5203510538  SOLV      1448            0.0000000000
      4465      1460  TIP3      OH2           -11.1747893596      -19.2021089186        8.0025399115  SOLV      1449            0.0000000000
      4466      1460  TIP3      H1            -10.3168475107      -19.1817757325        8.4845294872  SOLV      1449            0.0000000000
      4467      1460  TIP3      H2            -11.3687177575      -20.1533936370        8.0105315105  SOLV      1449            0.0000000000
      4468      1461  TIP3      OH2            -6.4386146911      -19.7063519103        8.4797513597  SOLV      1450            0.0000000000
      4469      1461  TIP3      H1             -5.4862867069      -19.8629418834        8.5264389021  SOLV      1450            0.0000000000
      4470      1461  TIP3      H2             -6.6909442831      -20.3181549377        7.7577727948  SOLV      1450            0.0000000000
      4471      1462  TIP3      OH2            -6.6007002708      -23.9064093320      -10.2901689141  SOLV      1451            0.0000000000
      4472      1462  TIP3      H1             -7.1590943214      -24.6148239306       -9.8902514153  SOLV      1451            0.0000000000
      4473      1462  TIP3      H2             -5.8500821721      -24.4323886656      -10.6144383511  SOLV      1451            0.0000000000
      4474      1463  TIP3      OH2             0.0053056739      -20.5693844554        5.7787021232  SOLV      1452            0.0000000000
      4475      1463  TIP3      H1             -0.0598355538      -21.2628657666        6.4753824167  SOLV      1452            0.0000000000
      4476      1463  TIP3      H2              0.7566219754      -20.0333376017        6.0974109632  SOLV      1452            0.0000000000
      4477      1464  TIP3      OH2            -2.2362458618      -23.5036375694      -11.1116054406  SOLV      1453            0.0000000000
      4478      1464  TIP3      H1             -1.8824884152      -24.1951551149      -10.5160247065  SOLV      1453            0.0000000000
      4479      1464  TIP3      H2             -1.6521153726      -23.5622958554      -11.8891806895  SOLV      1453            0.0000000000
      4480      1465  TIP3      OH2            -9.9170177392      -25.1870995259       10.0063277433  SOLV      1454            0.0000000000
      4481      1465  TIP3      H1             -9.7740202479      -26.1459272420       10.1058275017  SOLV      1454            0.0000000000
      4482      1465  TIP3      H2            -10.7898820155      -25.1600006468        9.5577568360  SOLV      1454            0.0000000000
      4483      1466  TIP3      OH2           -10.1039022804      -28.7740555303       -7.9975396573  SOLV      1455            0.0000000000
      4484      1466  TIP3      H1             -9.5289893313      -29.0636676550       -7.2650480050  SOLV      1455            0.0000000000
      4485      1466  TIP3      H2             -9.4406712011      -28.7167736946       -8.7203028845  SOLV      1455            0.0000000000
      4486      1467  TIP3      OH2            -3.8229423083      -24.3058225548        7.7604520607  SOLV      1456            0.0000000000
      4487      1467  TIP3      H1             -4.2687975325      -24.1126267816        6.9116839479  SOLV      1456            0.0000000000
      4488      1467  TIP3      H2             -3.5244194889      -25.2332602614        7.6443803217  SOLV      1456            0.0000000000
      4489      1468  TIP3      OH2            -4.8585888523      -26.6840781099       -9.9248348378  SOLV      1457            0.0000000000
      4490      1468  TIP3      H1             -4.9276636096      -26.5735818417       -8.9556351150  SOLV      1457            0.0000000000
      4491      1468  TIP3      H2             -4.8998998484      -27.6647943158       -9.9968591961  SOLV      1457            0.0000000000
      4492      1469  TIP3      OH2             1.0776520853      -24.2112235901        3.8260541099  SOLV      1458            0.0000000000
      4493      1469  TIP3      H1              1.8247529228      -23.7559245560        3.3942704764  SOLV      1458            0.0000000000
      4494      1469  TIP3      H2              0.3668081955      -23.5546576147        3.6961312327  SOLV      1458            0.0000000000
      4495      1470  TIP3      OH2            -8.6431525800      -27.8589102038        9.8541994321  SOLV      1459            0.0000000000
      4496      1470  TIP3      H1             -7.8298997495      -28.2782677683        9.5537677842  SOLV      1459            0.0000000000
      4497      1470  TIP3      H2             -8.3790210425      -27.5324976812       10.7410144542  SOLV      1459            0.0000000000
      4498      1471  TIP3      OH2            -8.1056033557      -29.6080642801       -5.8487491202  SOLV      1460            0.0000000000
      4499      1471  TIP3      H1             -8.3933341415      -30.0543967321       -5.0345070713  SOLV      1460            0.0000000000
      4500      1471  TIP3      H2             -7.7212146030      -30.3548130736       -6.3561789747  SOLV      1460            0.0000000000
      4501      1472  TIP3      OH2            -5.2891891836      -28.7930613679        6.5243732270  SOLV      1461            0.0000000000
      4502      1472  TIP3      H1             -6.1328090727      -28.2955271500        6.4971448788  SOLV      1461            0.0000000000
      4503      1472  TIP3      H2             -4.8866563804      -28.5716021195        5.6552468194  SOLV      1461            0.0000000000
      4504      1473  TIP3      OH2            -7.0355865999      -31.6089322063       -7.4465338049  SOLV      1462            0.0000000000
      4505      1473  TIP3      H1             -7.2909215499      -31.6020373432       -8.3925074246  SOLV      1462            0.0000000000
      4506      1473  TIP3      H2             -6.0599096128      -31.6234913183       -7.5182016121  SOLV      1462            0.0000000000
      4507      1474  TIP3      OH2            -0.1849770324      -24.9868598148        7.7675130534  SOLV      1463            0.0000000000
      4508      1474  TIP3      H1              0.5760841599      -25.3656640866        7.3196581664  SOLV      1463            0.0000000000
      4509      1474  TIP3      H2             -0.2926856056      -25.5906420185        8.5276482151  SOLV      1463            0.0000000000
      4510      1475  TIP3      OH2             1.2083391215      -28.4481654174      -10.7631110192  SOLV      1464            0.0000000000
      4511      1475  TIP3      H1              0.9511747552      -28.8731744266      -11.6041437990  SOLV      1464            0.0000000000
      4512      1475  TIP3      H2              0.8741795959      -27.5380910603      -10.9483596662  SOLV      1464            0.0000000000
      4513      1476  TIP3      OH2            -4.0528167227      -30.6585000389        7.9849012571  SOLV      1465            0.0000000000
      4514      1476  TIP3      H1             -4.1935809784      -31.4786992293        7.4525002236  SOLV      1465            0.0000000000
      4515      1476  TIP3      H2             -4.5264422683      -30.0102916179        7.4047585531  SOLV      1465            0.0000000000
      4516      1477  TIP3      OH2            -4.3837710485      -32.5814785955        6.1330556569  SOLV      1466            0.0000000000
      4517      1477  TIP3      H1             -4.0833469344      -32.2829389253        5.2588399525  SOLV      1466            0.0000000000
      4518      1477  TIP3      H2             -5.2468720850      -32.9944197518        5.9296016667  SOLV      1466            0.0000000000
      4519      1478  TIP3      OH2            -3.8564793043      -27.9598290993        4.4036571590  SOLV      1467            0.0000000000
      4520      1478  TIP3      H1             -2.9981911622      -27.7101831846        4.0597576433  SOLV      1467            0.0000000000
      4521      1478  TIP3      H2             -4.4462930826      -27.2846442299        3.9956600229  SOLV      1467            0.0000000000
      4522      1479  TIP3      OH2             1.8822791332      -28.1831122308        8.1799950658  SOLV      1468            0.0000000000
      4523      1479  TIP3      H1              2.2048145833      -28.8851237126        8.7835426793  SOLV      1468            0.0000000000
      4524      1479  TIP3      H2              2.7027664574      -27.7099347013        7.9749781675  SOLV      1468            0.0000000000
      4525      1480  TIP3      OH2             2.3751428557      -25.6760039784        5.6797286317  SOLV      1469            0.0000000000
      4526      1480  TIP3      H1              1.7893387354      -25.1094616568        5.1234688201  SOLV      1469            0.0000000000
      4527      1480  TIP3      H2              3.2453050026      -25.4527737857        5.2783090288  SOLV      1469            0.0000000000
      4528      1481  TIP3      OH2            -5.2571177181      -29.5512636653       10.1804706961  SOLV      1470            0.0000000000
      4529      1481  TIP3      H1             -6.0504447244      -30.1182002975       10.2280917129  SOLV      1470            0.0000000000
      4530      1481  TIP3      H2             -4.8545334877      -29.8697183068        9.3446916416  SOLV      1470            0.0000000000
      4531      1482  TIP3      OH2            -1.3973177149      -30.4137221195        8.5801359839  SOLV      1471            0.0000000000
      4532      1482  TIP3      H1             -1.5273283934      -30.5068755925        9.5555728207  SOLV      1471            0.0000000000
      4533      1482  TIP3      H2             -2.3367794381      -30.5374410198        8.3251308452  SOLV      1471            0.0000000000
      4534      1483  TIP3      OH2             0.8629560783      -31.2995338682        7.2265072178  SOLV      1472            0.0000000000
      4535      1483  TIP3      H1              0.0757332210      -30.9826620600        7.7154071838  SOLV      1472            0.0000000000
      4536      1483  TIP3      H2              1.1922260519      -31.9500364908        7.8875729516  SOLV      1472            0.0000000000
      4537      1484  TIP3      OH2            -7.2923972491      -31.3534053422       10.3473463611  SOLV      1473            0.0000000000
      4538      1484  TIP3      H1             -6.8896528710      -32.1554172251        9.9598080395  SOLV      1473            0.0000000000
      4539      1484  TIP3      H2             -7.2136296766      -31.5573703848       11.2926232047  SOLV      1473            0.0000000000
      4540      1485  TIP3      OH2            -8.9275720149      -21.1127737774       -8.3367245135  SOLV      1474            0.0000000000
      4541      1485  TIP3      H1             -7.9826961757      -21.1971558910       -8.5596895207  SOLV      1474            0.0000000000
      4542      1485  TIP3      H2             -9.2303980608      -20.5863546542       -9.1001273250  SOLV      1474            0.0000000000
      4543      1486  TIP3      OH2           -14.1315333447      -27.2731369295       -6.2782569407  SOLV      1475            0.0000000000
      4544      1486  TIP3      H1            -13.1778337922      -27.0462130367       -6.3607713743  SOLV      1475            0.0000000000
      4545      1486  TIP3      H2            -14.1518682146      -28.1614717072       -6.6892840820  SOLV      1475            0.0000000000
      4546      1487  TIP3      OH2           -14.9841373809      -21.1896577945       -2.0243756939  SOLV      1476            0.0000000000
      4547      1487  TIP3      H1            -15.6538633101      -21.7875523201       -2.4225380884  SOLV      1476            0.0000000000
      4548      1487  TIP3      H2            -14.5480902999      -21.7997083975       -1.3930602790  SOLV      1476            0.0000000000
      4549      1488  TIP3      OH2           -13.6425342646      -22.7583239823       -0.1860273599  SOLV      1477            0.0000000000
      4550      1488  TIP3      H1            -13.7835657636      -23.4250896406        0.5057512930  SOLV      1477            0.0000000000
      4551      1488  TIP3      H2            -13.1274450023      -22.0992378057        0.3156380503  SOLV      1477            0.0000000000
      4552      1489  TIP3      OH2             3.6773818299      -18.7457071289       -2.1509812630  SOLV      1478            0.0000000000
      4553      1489  TIP3      H1              3.8901091629      -18.4001366138       -1.2642769209  SOLV      1478            0.0000000000
      4554      1489  TIP3      H2              4.2753109499      -18.2377991622       -2.7194227579  SOLV      1478            0.0000000000
      4555      1490  TIP3      OH2             3.9118439775      -18.4608832779        0.6633351485  SOLV      1479            0.0000000000
      4556      1490  TIP3      H1              3.4382672949      -19.3202124443        0.6326962666  SOLV      1479            0.0000000000
      4557      1490  TIP3      H2              4.6425539413      -18.7005960468        1.2555948325  SOLV      1479            0.0000000000
      4558      1491  TIP3      OH2             4.3871022105      -21.6966152107        6.3816431960  SOLV      1480            0.0000000000
      4559      1491  TIP3      H1              3.6655754387      -21.5974809996        7.0352522841  SOLV      1480            0.0000000000
      4560      1491  TIP3      H2              4.8083095603      -20.8136063807        6.4236050616  SOLV      1480            0.0000000000
      4561      1492  TIP3      OH2             2.5814904045      -26.6001932057       -7.4457426134  SOLV      1481            0.0000000000
      4562      1492  TIP3      H1              3.2215587099      -25.9106463991       -7.7004600553  SOLV      1481            0.0000000000
      4563      1492  TIP3      H2              3.0134767612      -26.9843000029       -6.6534289771  SOLV      1481            0.0000000000
      4564      1493  TIP3      OH2             3.8821361281      -27.9416868764       -5.4211847471  SOLV      1482            0.0000000000
      4565      1493  TIP3      H1              3.1736362613      -28.2960108058       -4.8349166998  SOLV      1482            0.0000000000
      4566      1493  TIP3      H2              4.4956255129      -27.5224725138       -4.7834499989  SOLV      1482            0.0000000000
      4567      1494  TIP3      OH2             4.4047618966      -23.9239011628       -1.0702028443  SOLV      1483            0.0000000000
      4568      1494  TIP3      H1              4.9234086530      -24.5896709931       -1.5555814432  SOLV      1483            0.0000000000
      4569      1494  TIP3      H2              4.3355833490      -23.1967333362       -1.7198964696  SOLV      1483            0.0000000000
      4570      1495  TIP3      OH2             2.6372753049      -20.9544792119        0.8393462669  SOLV      1484            0.0000000000
      4571      1495  TIP3      H1              1.9265916965      -20.5371601400        1.3652671287  SOLV      1484            0.0000000000
      4572      1495  TIP3      H2              2.1301313621      -21.4053492615        0.1310121006  SOLV      1484            0.0000000000
      4573      1496  TIP3      OH2             3.2064652214      -28.8096335264       -8.9502631962  SOLV      1485            0.0000000000
      4574      1496  TIP3      H1              2.4807691172      -28.7990397883       -9.6197024329  SOLV      1485            0.0000000000
      4575      1496  TIP3      H2              2.9191714990      -28.0495835129       -8.4007638915  SOLV      1485            0.0000000000
      4576      1497  TIP3      OH2             1.9923548656      -32.0350716893       -9.5039683232  SOLV      1486            0.0000000000
      4577      1497  TIP3      H1              1.4702045263      -31.5912841256      -10.1830269206  SOLV      1486            0.0000000000
      4578      1497  TIP3      H2              1.6007593703      -32.9343278389       -9.5127298055  SOLV      1486            0.0000000000
      4579      1498  TIP3      OH2             1.9684406173      -29.2233937447       -3.9568926373  SOLV      1487            0.0000000000
      4580      1498  TIP3      H1              1.9189578630      -30.1907373857       -4.0703320663  SOLV      1487            0.0000000000
      4581      1498  TIP3      H2              1.7657090412      -29.1163770157       -3.0002906955  SOLV      1487            0.0000000000
      4582      1499  TIP3      OH2           -11.8323697907      -28.5707143888        3.5472717000  SOLV      1488            0.0000000000
      4583      1499  TIP3      H1            -11.8700271468      -28.9355990717        2.6360881330  SOLV      1488            0.0000000000
      4584      1499  TIP3      H2            -10.8563175913      -28.5705704605        3.6932959647  SOLV      1488            0.0000000000
      4585      1500  TIP3      OH2             4.7935752432      -24.9865845250        4.6166250038  SOLV      1489            0.0000000000
      4586      1500  TIP3      H1              5.5036730785      -25.6527937162        4.4738696528  SOLV      1489            0.0000000000
      4587      1500  TIP3      H2              5.0448742008      -24.2823616653        3.9992082720  SOLV      1489            0.0000000000
      4588      1501  TIP3      OH2             6.5919099372      -26.9498784566        4.6039980626  SOLV      1490            0.0000000000
      4589      1501  TIP3      H1              5.8693859500      -27.4210154645        5.0737568710  SOLV      1490            0.0000000000
      4590      1501  TIP3      H2              7.2933286066      -27.6251622068        4.7052875499  SOLV      1490            0.0000000000
      4591      1502  TIP3      OH2             1.0383020778      -34.5623381453       -9.0302682965  SOLV      1491            0.0000000000
      4592      1502  TIP3      H1              1.2650257081      -34.6892379958       -8.1008707624  SOLV      1491            0.0000000000
      4593      1502  TIP3      H2              0.1169871409      -34.8658447111       -9.0149457096  SOLV      1491            0.0000000000
      4594      1503  TIP3      OH2             1.8504408017      -31.9129737012       -5.0021083782  SOLV      1492            0.0000000000
      4595      1503  TIP3      H1              1.7760695997      -32.8666144389       -5.1969499168  SOLV      1492            0.0000000000
      4596      1503  TIP3      H2              2.4553483441      -31.6229457624       -5.7154615907  SOLV      1492            0.0000000000
      4597      1504  TIP3      OH2             3.4453998830      -30.4459367653       -0.0563894835  SOLV      1493            0.0000000000
      4598      1504  TIP3      H1              4.3177493748      -30.2097764629       -0.4377828566  SOLV      1493            0.0000000000
      4599      1504  TIP3      H2              3.5269582026      -30.0297518584        0.8250410101  SOLV      1493            0.0000000000
      4600      1505  TIP3      OH2             3.9612207188      -28.8507502957        2.2348675058  SOLV      1494            0.0000000000
      4601      1505  TIP3      H1              3.1995672037      -28.4682566368        2.7180041409  SOLV      1494            0.0000000000
      4602      1505  TIP3      H2              4.3324105284      -28.0596387387        1.7901276929  SOLV      1494            0.0000000000
      4603      1506  TIP3      OH2            -9.9947234337      -31.7729433837       10.1215768102  SOLV      1495            0.0000000000
      4604      1506  TIP3      H1             -9.0276587360      -31.6796038745        9.9871565653  SOLV      1495            0.0000000000
      4605      1506  TIP3      H2            -10.0115152696      -32.1164896765       11.0226340882  SOLV      1495            0.0000000000
      4606      1507  TIP3      OH2           -10.0898236014      -34.7204312470        3.5443104174  SOLV      1496            0.0000000000
      4607      1507  TIP3      H1             -9.3430362027      -35.3124438978        3.3214517920  SOLV      1496            0.0000000000
      4608      1507  TIP3      H2             -9.6040262899      -33.8810846254        3.6083680372  SOLV      1496            0.0000000000
      4609      1508  TIP3      OH2           -12.0230410804      -32.0843526369        4.2377865985  SOLV      1497            0.0000000000
      4610      1508  TIP3      H1            -11.5234076106      -32.0479156071        3.3991002942  SOLV      1497            0.0000000000
      4611      1508  TIP3      H2            -11.7034118870      -31.2986448749        4.6921277867  SOLV      1497            0.0000000000
      4612      1509  TIP3      OH2            -0.5234067294      -20.0019789334       -5.6190472451  SOLV      1498            0.0000000000
      4613      1509  TIP3      H1              0.0131396390      -20.0734865693       -6.4327680112  SOLV      1498            0.0000000000
      4614      1509  TIP3      H2             -0.0679917776      -19.2932308423       -5.1342425235  SOLV      1498            0.0000000000
      4615      1510  TIP3      OH2            -9.5125550275      -21.9562843234        8.1956012997  SOLV      1499            0.0000000000
      4616      1510  TIP3      H1            -10.4587451094      -22.1506353586        8.0435107340  SOLV      1499            0.0000000000
      4617      1510  TIP3      H2             -9.4329316468      -22.1056632719        9.1446836417  SOLV      1499            0.0000000000
      4618      1511  TIP3      OH2            -7.7234342423      -21.5864999747        3.6992151478  SOLV      1500            0.0000000000
      4619      1511  TIP3      H1             -8.2236872063      -20.8313725882        3.3268189182  SOLV      1500            0.0000000000
      4620      1511  TIP3      H2             -6.8773686888      -21.4393642716        3.2270746348  SOLV      1500            0.0000000000
      4621      1512  TIP3      OH2            -3.3672694937      -19.2047477084        5.0421146728  SOLV      1501            0.0000000000
      4622      1512  TIP3      H1             -2.9572382352      -19.2129251674        5.9343823318  SOLV      1501            0.0000000000
      4623      1512  TIP3      H2             -2.7156767964      -18.6638406313        4.5473094578  SOLV      1501            0.0000000000
      4624      1513  TIP3      OH2            -1.5593567240      -17.6367341715        3.7018767901  SOLV      1502            0.0000000000
      4625      1513  TIP3      H1             -0.8479141100      -18.1547356008        3.3019414733  SOLV      1502            0.0000000000
      4626      1513  TIP3      H2             -1.0468643344      -17.0570306675        4.3079002335  SOLV      1502            0.0000000000
      4627      1514  TIP3      OH2           -10.9868199048      -19.0676994527        3.9844410633  SOLV      1503            0.0000000000
      4628      1514  TIP3      H1            -11.8991627566      -18.7826637034        3.7424911528  SOLV      1503            0.0000000000
      4629      1514  TIP3      H2            -10.8348605040      -18.5107991751        4.7558867449  SOLV      1503            0.0000000000
      4630      1515  TIP3      OH2            -8.6491689947      -19.2577941082        2.5352322224  SOLV      1504            0.0000000000
      4631      1515  TIP3      H1             -9.5184363372      -19.1495330374        2.9826611619  SOLV      1504            0.0000000000
      4632      1515  TIP3      H2             -8.8533772745      -18.9252557131        1.6383699719  SOLV      1504            0.0000000000
      4633      1516  TIP3      OH2            -4.3864965240      -19.0192105510        0.4976770084  SOLV      1505            0.0000000000
      4634      1516  TIP3      H1             -5.1073967992      -18.8342852107       -0.1343316882  SOLV      1505            0.0000000000
      4635      1516  TIP3      H2             -4.2789016514      -18.1438965449        0.9273536388  SOLV      1505            0.0000000000
      4636      1517  TIP3      OH2            -1.7015151511      -19.6121940169        1.0177915252  SOLV      1506            0.0000000000
      4637      1517  TIP3      H1             -2.6524757448      -19.4594730379        0.8457249427  SOLV      1506            0.0000000000
      4638      1517  TIP3      H2             -1.3046242094      -18.8476949291        0.5753895337  SOLV      1506            0.0000000000
      4639      1518  TIP3      OH2             0.4108121526      -17.6627474409        0.1428916215  SOLV      1507            0.0000000000
      4640      1518  TIP3      H1              0.2141427315      -16.8335240329       -0.3388922371  SOLV      1507            0.0000000000
      4641      1518  TIP3      H2              0.6258045843      -18.2777860769       -0.5930000830  SOLV      1507            0.0000000000
      4642      1519  TIP3      OH2           -11.9008062520      -21.1358824696        1.3576598938  SOLV      1508            0.0000000000
      4643      1519  TIP3      H1            -11.6421422769      -21.4268438501        2.2586887437  SOLV      1508            0.0000000000
      4644      1519  TIP3      H2            -11.1601665257      -21.5346707563        0.8473218405  SOLV      1508            0.0000000000
      4645      1520  TIP3      OH2            -9.9217158427      -22.3757903291       -0.0264620028  SOLV      1509            0.0000000000
      4646      1520  TIP3      H1             -9.7868602995      -23.2199648420        0.4657204398  SOLV      1509            0.0000000000
      4647      1520  TIP3      H2             -9.0073504430      -22.0214670012       -0.0393986919  SOLV      1509            0.0000000000
      4648      1521  TIP3      OH2            -7.2457025076      -21.4900875965        0.0379830341  SOLV      1510            0.0000000000
      4649      1521  TIP3      H1             -6.9750458565      -22.4280580276       -0.0292618781  SOLV      1510            0.0000000000
      4650      1521  TIP3      H2             -6.7667965574      -21.2431656170        0.8506494191  SOLV      1510            0.0000000000
      4651      1522  TIP3      OH2           -14.0349673201      -23.3390292722       -4.7590759944  SOLV      1511            0.0000000000
      4652      1522  TIP3      H1            -14.9025489158      -23.6544813540       -5.0775811074  SOLV      1511            0.0000000000
      4653      1522  TIP3      H2            -14.0993525269      -22.4060086239       -5.0420388589  SOLV      1511            0.0000000000
      4654      1523  TIP3      OH2            -6.2747046087      -21.5886046382       -8.8838273271  SOLV      1512            0.0000000000
      4655      1523  TIP3      H1             -5.4101873599      -21.3352311254       -9.2684570530  SOLV      1512            0.0000000000
      4656      1523  TIP3      H2             -6.5012901887      -22.3341967312       -9.4860182956  SOLV      1512            0.0000000000
      4657      1524  TIP3      OH2             0.9672278494      -20.3026615024       -7.9470062660  SOLV      1513            0.0000000000
      4658      1524  TIP3      H1              0.8888387898      -21.2803324265       -8.0565873071  SOLV      1513            0.0000000000
      4659      1524  TIP3      H2              0.4624082753      -19.9902434404       -8.7259354346  SOLV      1513            0.0000000000
      4660      1525  TIP3      OH2           -13.2557275873      -23.1994736607       -8.3357860498  SOLV      1514            0.0000000000
      4661      1525  TIP3      H1            -13.2239733258      -22.9681882820       -7.3972331152  SOLV      1514            0.0000000000
      4662      1525  TIP3      H2            -12.3764752240      -23.6238607351       -8.4771942565  SOLV      1514            0.0000000000
      4663      1526  TIP3      OH2             3.1408094453      -18.9200364389        3.8915788077  SOLV      1515            0.0000000000
      4664      1526  TIP3      H1              2.3402683093      -19.2150211157        3.4106228066  SOLV      1515            0.0000000000
      4665      1526  TIP3      H2              2.9343742541      -17.9708741553        4.0077039911  SOLV      1515            0.0000000000
      4666      1527  TIP3      OH2            15.7845581944      -25.1587225827       -8.4344592055  SOLV      1516            0.0000000000
      4667      1527  TIP3      H1             15.4893388069      -24.2449801507       -8.6304521503  SOLV      1516            0.0000000000
      4668      1527  TIP3      H2             15.0628257448      -25.6566038677       -8.8573753543  SOLV      1516            0.0000000000
      4669      1528  TIP3      OH2            15.7513460004      -25.0866062638       -4.5922786635  SOLV      1517            0.0000000000
      4670      1528  TIP3      H1             16.0972221765      -25.3367141458       -3.7088087287  SOLV      1517            0.0000000000
      4671      1528  TIP3      H2             15.7045652912      -25.9332307771       -5.0417373673  SOLV      1517            0.0000000000
      4672      1529  TIP3      OH2             8.8247063056      -26.2368748944       -1.0238665155  SOLV      1518            0.0000000000
      4673      1529  TIP3      H1              9.1277319923      -26.9560660393       -0.4356391209  SOLV      1518            0.0000000000
      4674      1529  TIP3      H2              9.4580064342      -25.5476700833       -0.7838238932  SOLV      1518            0.0000000000
      4675      1530  TIP3      OH2            18.2854012078      -22.0804336329       -7.7675577197  SOLV      1519            0.0000000000
      4676      1530  TIP3      H1             18.1810987344      -22.7468508222       -7.0766643737  SOLV      1519            0.0000000000
      4677      1530  TIP3      H2             18.5958851742      -21.3093401750       -7.2591961188  SOLV      1519            0.0000000000
      4678      1531  TIP3      OH2             8.5588721426      -22.1226903239       -3.7902227505  SOLV      1520            0.0000000000
      4679      1531  TIP3      H1              8.4498835276      -23.0930144278       -3.7268312810  SOLV      1520            0.0000000000
      4680      1531  TIP3      H2              9.5292600964      -22.0416742888       -3.7961296535  SOLV      1520            0.0000000000
      4681      1532  TIP3      OH2             5.4760250423      -30.2004290192       -5.7373837188  SOLV      1521            0.0000000000
      4682      1532  TIP3      H1              5.0242404645      -29.3503591863       -5.5488505327  SOLV      1521            0.0000000000
      4683      1532  TIP3      H2              4.8228466589      -30.5879642622       -6.3475493862  SOLV      1521            0.0000000000
      4684      1533  TIP3      OH2             6.2088219451      -27.1937719823       -4.0973362568  SOLV      1522            0.0000000000
      4685      1533  TIP3      H1              6.7348527222      -27.9640948470       -3.7867435227  SOLV      1522            0.0000000000
      4686      1533  TIP3      H2              6.8687473193      -26.6670175507       -4.5622894677  SOLV      1522            0.0000000000
      4687      1534  TIP3      OH2            14.7876017108      -17.5300566914       -7.6179483214  SOLV      1523            0.0000000000
      4688      1534  TIP3      H1             15.2042877021      -18.2549485779       -8.1269854586  SOLV      1523            0.0000000000
      4689      1534  TIP3      H2             14.7113397290      -17.9163231930       -6.7398437487  SOLV      1523            0.0000000000
      4690      1535  TIP3      OH2            13.8019221768      -22.9219138622       -4.1469854011  SOLV      1524            0.0000000000
      4691      1535  TIP3      H1             14.2840303919      -23.6845404015       -4.5170483505  SOLV      1524            0.0000000000
      4692      1535  TIP3      H2             14.5826596478      -22.3915109891       -3.8773321395  SOLV      1524            0.0000000000
      4693      1536  TIP3      OH2            23.5720663878      -29.6092471395       -4.1802286521  SOLV      1525            0.0000000000
      4694      1536  TIP3      H1             24.1392009612      -28.9120593342       -3.8148778242  SOLV      1525            0.0000000000
      4695      1536  TIP3      H2             24.2093188127      -30.0723581253       -4.7485392969  SOLV      1525            0.0000000000
      4696      1537  TIP3      OH2            17.9802134463      -28.2379666646       -3.6667032541  SOLV      1526            0.0000000000
      4697      1537  TIP3      H1             18.9368793849      -28.3702953267       -3.7335578975  SOLV      1526            0.0000000000
      4698      1537  TIP3      H2             17.7337206079      -28.2147243750       -4.6245087778  SOLV      1526            0.0000000000
      4699      1538  TIP3      OH2            11.4155992589      -31.1887229015       -4.1101558548  SOLV      1527            0.0000000000
      4700      1538  TIP3      H1             11.0641024959      -30.7108830197       -4.8882038029  SOLV      1527            0.0000000000
      4701      1538  TIP3      H2             11.3537938694      -32.1300766263       -4.3795727164  SOLV      1527            0.0000000000
      4702      1539  TIP3      OH2            18.3947287348      -30.3859207659       -7.8882476018  SOLV      1528            0.0000000000
      4703      1539  TIP3      H1             19.0887779106      -30.5424848008       -7.2048907662  SOLV      1528            0.0000000000
      4704      1539  TIP3      H2             18.9291047959      -29.9957536550       -8.6017701044  SOLV      1528            0.0000000000
      4705      1540  TIP3      OH2             7.7300081661      -29.2592139707       -3.1565834705  SOLV      1529            0.0000000000
      4706      1540  TIP3      H1              8.5408764991      -29.4089086132       -2.6298602369  SOLV      1529            0.0000000000
      4707      1540  TIP3      H2              7.8932472827      -29.8609523362       -3.9067147722  SOLV      1529            0.0000000000
      4708      1541  TIP3      OH2            12.0069086570      -27.3515614815       -5.2240829181  SOLV      1530            0.0000000000
      4709      1541  TIP3      H1             12.8942980116      -27.4940212475       -5.5606217750  SOLV      1530            0.0000000000
      4710      1541  TIP3      H2             11.5519924367      -28.1877861257       -5.4870871591  SOLV      1530            0.0000000000
      4711      1542  TIP3      OH2            24.6790840648      -27.5499889636       -2.5670297221  SOLV      1531            0.0000000000
      4712      1542  TIP3      H1             23.7758748170      -27.1792729623       -2.6524941088  SOLV      1531            0.0000000000
      4713      1542  TIP3      H2             24.8597508711      -27.3536587737       -1.6370967133  SOLV      1531            0.0000000000
      4714      1543  TIP3      OH2            11.3879734852      -31.4414074439        0.2437692923  SOLV      1532            0.0000000000
      4715      1543  TIP3      H1             10.7602811422      -31.2933863581       -0.4839962741  SOLV      1532            0.0000000000
      4716      1543  TIP3      H2             10.8317450987      -31.1853955461        1.0097031639  SOLV      1532            0.0000000000
      4717      1544  TIP3      OH2            14.5356763301      -23.0211815635       -9.6949365632  SOLV      1533            0.0000000000
      4718      1544  TIP3      H1             14.5877144594      -22.8897150977      -10.6437182826  SOLV      1533            0.0000000000
      4719      1544  TIP3      H2             14.1985133067      -22.1415636399       -9.4109836524  SOLV      1533            0.0000000000
      4720      1545  TIP3      OH2            12.3177382346      -23.7013519604       -1.9181624135  SOLV      1534            0.0000000000
      4721      1545  TIP3      H1             11.7317545282      -23.0030191373       -1.5454973458  SOLV      1534            0.0000000000
      4722      1545  TIP3      H2             12.7785987893      -23.2121556124       -2.6287655400  SOLV      1534            0.0000000000
      4723      1546  TIP3      OH2            20.2802867495      -30.3667415778       -5.9424486134  SOLV      1535            0.0000000000
      4724      1546  TIP3      H1             20.4138546589      -31.0086839495       -5.2207822534  SOLV      1535            0.0000000000
      4725      1546  TIP3      H2             21.0063233737      -29.7372612316       -5.7922255660  SOLV      1535            0.0000000000
      4726      1547  TIP3      OH2            10.0196486951      -30.2348230520       -1.9414759207  SOLV      1536            0.0000000000
      4727      1547  TIP3      H1             10.6558521386      -29.5534207756       -1.6475060340  SOLV      1536            0.0000000000
      4728      1547  TIP3      H2             10.5261100530      -30.6368424082       -2.6825285788  SOLV      1536            0.0000000000
      4729      1548  TIP3      OH2            10.6460628082      -21.7235414722       -0.9331358043  SOLV      1537            0.0000000000
      4730      1548  TIP3      H1             10.4124895837      -20.8297867032       -1.2635658011  SOLV      1537            0.0000000000
      4731      1548  TIP3      H2              9.8593640770      -21.8876459854       -0.3682818124  SOLV      1537            0.0000000000
      4732      1549  TIP3      OH2             4.6059052871      -24.8831025268       -8.5707230000  SOLV      1538            0.0000000000
      4733      1549  TIP3      H1              4.0661380001      -24.6170657918       -9.3353915310  SOLV      1538            0.0000000000
      4734      1549  TIP3      H2              4.8304742736      -24.0037238411       -8.1868121697  SOLV      1538            0.0000000000
      4735      1550  TIP3      OH2            18.9222794505      -19.6876242719       -6.1790526518  SOLV      1539            0.0000000000
      4736      1550  TIP3      H1             18.0265525456      -19.7559167709       -5.7755804911  SOLV      1539            0.0000000000
      4737      1550  TIP3      H2             18.8692622732      -18.8073990093       -6.6036122773  SOLV      1539            0.0000000000
      4738      1551  TIP3      OH2            15.9222650673      -19.2615098144       -9.4602636894  SOLV      1540            0.0000000000
      4739      1551  TIP3      H1             16.4349291064      -20.0804043708       -9.6606461846  SOLV      1540            0.0000000000
      4740      1551  TIP3      H2             16.5359312330      -18.5928883327       -9.8412525012  SOLV      1540            0.0000000000
      4741      1552  TIP3      OH2            17.3170072020      -21.4584435188      -10.2830294018  SOLV      1541            0.0000000000
      4742      1552  TIP3      H1             17.3057901933      -22.2899604933      -10.7760210912  SOLV      1541            0.0000000000
      4743      1552  TIP3      H2             17.7356892889      -21.7300183851       -9.4345462515  SOLV      1541            0.0000000000
      4744      1553  TIP3      OH2            21.1883688026      -20.5918687595       -2.6861435623  SOLV      1542            0.0000000000
      4745      1553  TIP3      H1             21.0929773822      -21.3539460904       -3.2975200963  SOLV      1542            0.0000000000
      4746      1553  TIP3      H2             21.0205117200      -19.8342097862       -3.2869381558  SOLV      1542            0.0000000000
      4747      1554  TIP3      OH2            14.1478929333      -26.6583178549      -10.1431807513  SOLV      1543            0.0000000000
      4748      1554  TIP3      H1             13.3257765511      -26.8211818233      -10.6159890590  SOLV      1543            0.0000000000
      4749      1554  TIP3      H2             14.7988635054      -26.7215541227      -10.8730728785  SOLV      1543            0.0000000000
      4750      1555  TIP3      OH2            13.6948513196      -28.6492344531      -12.8148781991  SOLV      1544            0.0000000000
      4751      1555  TIP3      H1             14.4578634678      -28.1684642034      -12.4521461860  SOLV      1544            0.0000000000
      4752      1555  TIP3      H2             14.1808998889      -29.3006038573      -13.3625778083  SOLV      1544            0.0000000000
      4753      1556  TIP3      OH2            23.1344974962      -24.2014877857       -4.2154733617  SOLV      1545            0.0000000000
      4754      1556  TIP3      H1             22.3017028767      -23.6816642926       -4.2082436188  SOLV      1545            0.0000000000
      4755      1556  TIP3      H2             23.4291365204      -24.0418173161       -5.1385392096  SOLV      1545            0.0000000000
      4756      1557  TIP3      OH2            17.6089686786      -25.7598709437      -10.4010947692  SOLV      1546            0.0000000000
      4757      1557  TIP3      H1             17.0848874612      -25.5392391333       -9.5971339327  SOLV      1546            0.0000000000
      4758      1557  TIP3      H2             18.4598187099      -26.0266475112       -9.9882293394  SOLV      1546            0.0000000000
      4759      1558  TIP3      OH2            19.8696740247      -25.2646734726       -1.2711248709  SOLV      1547            0.0000000000
      4760      1558  TIP3      H1             19.9678622850      -24.5059699990       -0.6574588818  SOLV      1547            0.0000000000
      4761      1558  TIP3      H2             19.1209114314      -24.9560842865       -1.8069114843  SOLV      1547            0.0000000000
      4762      1559  TIP3      OH2             9.9091609669      -25.8806756164       -6.1650569407  SOLV      1548            0.0000000000
      4763      1559  TIP3      H1              9.5024562012      -26.5221876239       -6.7745195335  SOLV      1548            0.0000000000
      4764      1559  TIP3      H2             10.6607060205      -26.3958678259       -5.7983093585  SOLV      1548            0.0000000000
      4765      1560  TIP3      OH2            11.2431301984      -21.7303615030       -4.7809852696  SOLV      1549            0.0000000000
      4766      1560  TIP3      H1             11.0862874519      -22.0374934570       -5.6820037717  SOLV      1549            0.0000000000
      4767      1560  TIP3      H2             12.1367676535      -22.0855547648       -4.5901269180  SOLV      1549            0.0000000000
      4768      1561  TIP3      OH2            11.3959929641      -26.1705021169       -2.6948064595  SOLV      1550            0.0000000000
      4769      1561  TIP3      H1             11.6808464706      -26.3016572631       -3.6157431062  SOLV      1550            0.0000000000
      4770      1561  TIP3      H2             11.7338917163      -25.2738717076       -2.4794483591  SOLV      1550            0.0000000000
      4771      1562  TIP3      OH2            16.5331066383      -19.7496013443       -4.9154490762  SOLV      1551            0.0000000000
      4772      1562  TIP3      H1             16.4017845868      -18.9256816686       -4.4102381444  SOLV      1551            0.0000000000
      4773      1562  TIP3      H2             16.3709178545      -20.4469361795       -4.2517555211  SOLV      1551            0.0000000000
      4774      1563  TIP3      OH2            12.6848418036      -20.5864019491        0.5563042093  SOLV      1552            0.0000000000
      4775      1563  TIP3      H1             12.0839873628      -19.9655264072        1.0234782068  SOLV      1552            0.0000000000
      4776      1563  TIP3      H2             12.0283848890      -21.1040752761        0.0475787715  SOLV      1552            0.0000000000
      4777      1564  TIP3      OH2            15.9994220232      -27.2074152603      -12.0586044403  SOLV      1553            0.0000000000
      4778      1564  TIP3      H1             16.6535475562      -26.6341816504      -11.5956480485  SOLV      1553            0.0000000000
      4779      1564  TIP3      H2             16.2486278203      -27.0324294130      -13.0013380173  SOLV      1553            0.0000000000
      4780      1565  TIP3      OH2            10.2012423906      -25.0194890934        1.5386461863  SOLV      1554            0.0000000000
      4781      1565  TIP3      H1             10.2865844347      -24.1469694639        1.9774507162  SOLV      1554            0.0000000000
      4782      1565  TIP3      H2              9.2684679167      -25.2231851201        1.7641022191  SOLV      1554            0.0000000000
      4783      1566  TIP3      OH2            13.4775518659      -20.4863370062       -9.4291449945  SOLV      1555            0.0000000000
      4784      1566  TIP3      H1             14.2974168413      -19.9674339933       -9.3425733955  SOLV      1555            0.0000000000
      4785      1566  TIP3      H2             12.8624780990      -19.8350263515       -9.7958378351  SOLV      1555            0.0000000000
      4786      1567  TIP3      OH2            10.6219074777      -18.9508547107        1.4310846628  SOLV      1556            0.0000000000
      4787      1567  TIP3      H1             10.2666784102      -18.8900259800        0.5276950508  SOLV      1556            0.0000000000
      4788      1567  TIP3      H2              9.8129570981      -19.1457277431        1.9593441807  SOLV      1556            0.0000000000
      4789      1568  TIP3      OH2             8.7474489113      -27.3616648792       -8.3826934263  SOLV      1557            0.0000000000
      4790      1568  TIP3      H1              7.7854715790      -27.1863565078       -8.5505119531  SOLV      1557            0.0000000000
      4791      1568  TIP3      H2              8.7682624464      -28.2862865306       -8.3557246829  SOLV      1557            0.0000000000
      4792      1569  TIP3      OH2            19.1674612571      -21.1691534302      -16.1417271102  SOLV      1558            0.0000000000
      4793      1569  TIP3      H1             19.2076758387      -20.2015955112      -16.3093228584  SOLV      1558            0.0000000000
      4794      1569  TIP3      H2             20.1135605790      -21.4062606290      -16.2450869535  SOLV      1558            0.0000000000
      4795      1570  TIP3      OH2             6.4055747551      -23.5692673306        0.8958663844  SOLV      1559            0.0000000000
      4796      1570  TIP3      H1              5.7029267354      -23.7525860871        0.2366923792  SOLV      1559            0.0000000000
      4797      1570  TIP3      H2              6.7552423728      -24.4589808798        1.0977393853  SOLV      1559            0.0000000000
      4798      1571  TIP3      OH2             4.9493107207      -21.6364187508       -2.7985794677  SOLV      1560            0.0000000000
      4799      1571  TIP3      H1              5.9153579354      -21.6007022825       -2.8208596677  SOLV      1560            0.0000000000
      4800      1571  TIP3      H2              4.7406073642      -20.8521786898       -2.2667112020  SOLV      1560            0.0000000000
      4801      1572  TIP3      OH2            23.5612866666      -17.0842897767       -2.1979393006  SOLV      1561            0.0000000000
      4802      1572  TIP3      H1             23.5540883255      -18.0504593994       -2.0620575050  SOLV      1561            0.0000000000
      4803      1572  TIP3      H2             22.7250173275      -16.8364970077       -1.7424511264  SOLV      1561            0.0000000000
      4804      1573  TIP3      OH2            14.6383275784      -19.2909496732       -0.8882108842  SOLV      1562            0.0000000000
      4805      1573  TIP3      H1             14.6053735973      -18.3630169887       -0.5655757546  SOLV      1562            0.0000000000
      4806      1573  TIP3      H2             13.9384176149      -19.7005203886       -0.3322771917  SOLV      1562            0.0000000000
      4807      1574  TIP3      OH2            12.3063287596      -18.0298550830      -11.3237829932  SOLV      1563            0.0000000000
      4808      1574  TIP3      H1             11.8267596972      -18.1796766091      -12.1581476550  SOLV      1563            0.0000000000
      4809      1574  TIP3      H2             11.9778646654      -17.1534549626      -11.0506831247  SOLV      1563            0.0000000000
      4810      1575  TIP3      OH2             6.6555359336      -19.5065299604       -7.5006784397  SOLV      1564            0.0000000000
      4811      1575  TIP3      H1              7.1326477368      -19.5792319037       -6.6432726664  SOLV      1564            0.0000000000
      4812      1575  TIP3      H2              6.0405842102      -20.2508731036       -7.4324840672  SOLV      1564            0.0000000000
      4813      1576  TIP3      OH2            14.2711616134      -18.9730163620      -14.9850106235  SOLV      1565            0.0000000000
      4814      1576  TIP3      H1             14.8483608465      -19.6833348798      -15.3416852093  SOLV      1565            0.0000000000
      4815      1576  TIP3      H2             14.6369983352      -18.8574442211      -14.0825471209  SOLV      1565            0.0000000000
      4816      1577  TIP3      OH2            14.8103278682      -18.4741860418      -12.3013596465  SOLV      1566            0.0000000000
      4817      1577  TIP3      H1             13.9340326479      -18.3888934599      -11.8626198155  SOLV      1566            0.0000000000
      4818      1577  TIP3      H2             15.3603758252      -18.7860507913      -11.5658233131  SOLV      1566            0.0000000000
      4819      1578  TIP3      OH2            22.5608875971      -25.8312218763        0.6432148995  SOLV      1567            0.0000000000
      4820      1578  TIP3      H1             21.7602136866      -25.7158890022        0.1198184145  SOLV      1567            0.0000000000
      4821      1578  TIP3      H2             22.7702119936      -26.7744443151        0.4749731977  SOLV      1567            0.0000000000
      4822      1579  TIP3      OH2             8.4649496971      -21.7599277746        0.6962548091  SOLV      1568            0.0000000000
      4823      1579  TIP3      H1              8.9324756023      -21.8824501728        1.5462561281  SOLV      1568            0.0000000000
      4824      1579  TIP3      H2              7.7065509752      -22.3729104831        0.7974757825  SOLV      1568            0.0000000000
      4825      1580  TIP3      OH2            20.0246136562      -27.8379156690       -0.2149078107  SOLV      1569            0.0000000000
      4826      1580  TIP3      H1             19.6052519546      -27.8322539566        0.6758796926  SOLV      1569            0.0000000000
      4827      1580  TIP3      H2             19.8630286894      -26.9236682937       -0.5290119243  SOLV      1569            0.0000000000
      4828      1581  TIP3      OH2            16.8387661856      -26.7734334741      -14.5652356825  SOLV      1570            0.0000000000
      4829      1581  TIP3      H1             16.4101788710      -26.9546056549      -15.4268235085  SOLV      1570            0.0000000000
      4830      1581  TIP3      H2             17.6657728577      -26.3500250366      -14.8599251593  SOLV      1570            0.0000000000
      4831      1582  TIP3      OH2            11.9818604497      -28.3595011286       -1.1980296595  SOLV      1571            0.0000000000
      4832      1582  TIP3      H1             11.4380553365      -28.1812659786       -0.3972102989  SOLV      1571            0.0000000000
      4833      1582  TIP3      H2             11.7589515961      -27.5540630619       -1.7252620581  SOLV      1571            0.0000000000
      4834      1583  TIP3      OH2            10.5036444677      -29.4812059380       -6.1188000873  SOLV      1572            0.0000000000
      4835      1583  TIP3      H1              9.5927712698      -29.8056440183       -5.9630393787  SOLV      1572            0.0000000000
      4836      1583  TIP3      H2             10.7038087357      -29.9073393728       -6.9848120781  SOLV      1572            0.0000000000
      4837      1584  TIP3      OH2            15.6824858888      -28.5721684621       -8.7481197558  SOLV      1573            0.0000000000
      4838      1584  TIP3      H1             15.1316336445      -27.8998724131       -9.1925523157  SOLV      1573            0.0000000000
      4839      1584  TIP3      H2             16.1568626910      -28.9776724732       -9.5012820033  SOLV      1573            0.0000000000
      4840      1585  TIP3      OH2            17.2978075389      -25.7922932280        1.8787914638  SOLV      1574            0.0000000000
      4841      1585  TIP3      H1             17.0731876710      -26.4468655844        2.5773850735  SOLV      1574            0.0000000000
      4842      1585  TIP3      H2             18.2224310157      -25.5910964866        2.1342936713  SOLV      1574            0.0000000000
      4843      1586  TIP3      OH2            17.2563568087      -28.3578572360       -6.4405001421  SOLV      1575            0.0000000000
      4844      1586  TIP3      H1             16.6067668255      -28.1518177570       -7.1435814051  SOLV      1575            0.0000000000
      4845      1586  TIP3      H2             17.6044532039      -29.1896326842       -6.8307670409  SOLV      1575            0.0000000000
      4846      1587  TIP3      OH2            10.0882585919      -27.9472014612        0.7799212569  SOLV      1576            0.0000000000
      4847      1587  TIP3      H1             10.2215033392      -27.2377469865        1.4270814468  SOLV      1576            0.0000000000
      4848      1587  TIP3      H2              9.9854241129      -28.7281044880        1.3766338125  SOLV      1576            0.0000000000
      4849      1588  TIP3      OH2            11.0549743930      -32.1723834346      -11.9127449243  SOLV      1577            0.0000000000
      4850      1588  TIP3      H1             11.7455697426      -32.6174456458      -11.3700737179  SOLV      1577            0.0000000000
      4851      1588  TIP3      H2             10.3085351056      -32.7826311154      -11.8164430855  SOLV      1577            0.0000000000
      4852      1589  TIP3      OH2             6.8486714640      -33.3945678987       -3.9411738340  SOLV      1578            0.0000000000
      4853      1589  TIP3      H1              7.0571669738      -32.9403345388       -3.0731360488  SOLV      1578            0.0000000000
      4854      1589  TIP3      H2              6.1621530684      -32.7856061317       -4.2380215735  SOLV      1578            0.0000000000
      4855      1590  TIP3      OH2             5.8975353908      -32.7049400096       -7.6715734879  SOLV      1579            0.0000000000
      4856      1590  TIP3      H1              6.0421783131      -32.3463622393       -8.5810124858  SOLV      1579            0.0000000000
      4857      1590  TIP3      H2              5.0571916913      -32.2426790135       -7.5015543796  SOLV      1579            0.0000000000
      4858      1591  TIP3      OH2            16.9948877380      -25.9860492585       -2.3070471409  SOLV      1580            0.0000000000
      4859      1591  TIP3      H1             17.5854226008      -26.6318564316       -2.7264721735  SOLV      1580            0.0000000000
      4860      1591  TIP3      H2             16.8298138496      -26.4019648956       -1.4353810782  SOLV      1580            0.0000000000
      4861      1592  TIP3      OH2            14.0290669011      -30.8975424250       -5.0292237442  SOLV      1581            0.0000000000
      4862      1592  TIP3      H1             13.1340311378      -31.0079719885       -4.6395457498  SOLV      1581            0.0000000000
      4863      1592  TIP3      H2             14.4041057959      -31.7685427280       -4.9191366727  SOLV      1581            0.0000000000
      4864      1593  TIP3      OH2             8.1084069744      -30.7263998300       -5.5977467361  SOLV      1582            0.0000000000
      4865      1593  TIP3      H1              7.1563253918      -30.4851089984       -5.6594048212  SOLV      1582            0.0000000000
      4866      1593  TIP3      H2              8.1290746306      -31.4842436046       -6.1930745408  SOLV      1582            0.0000000000
      4867      1594  TIP3      OH2            10.8184217609      -30.7689357518       -8.4875022986  SOLV      1583            0.0000000000
      4868      1594  TIP3      H1             11.7996379181      -30.6793098781       -8.5711465866  SOLV      1583            0.0000000000
      4869      1594  TIP3      H2             10.5005896274      -30.5415928819       -9.3855348824  SOLV      1583            0.0000000000
      4870      1595  TIP3      OH2             9.1427979961      -29.9905428249      -10.6682716562  SOLV      1584            0.0000000000
      4871      1595  TIP3      H1              8.6262562613      -30.5534998229      -11.2737190217  SOLV      1584            0.0000000000
      4872      1595  TIP3      H2              9.8128635953      -29.6579680090      -11.3084680239  SOLV      1584            0.0000000000
      4873      1596  TIP3      OH2            20.5538638913      -13.6361957123       -1.2003889654  SOLV      1585            0.0000000000
      4874      1596  TIP3      H1             20.5199253525      -13.3775775236       -2.1387878693  SOLV      1585            0.0000000000
      4875      1596  TIP3      H2             21.3513840160      -13.1597183051       -0.8964338165  SOLV      1585            0.0000000000
      4876      1597  TIP3      OH2            10.0870890208      -22.5625927775        2.9566604184  SOLV      1586            0.0000000000
      4877      1597  TIP3      H1             10.8757299861      -22.2556202412        3.4466567637  SOLV      1586            0.0000000000
      4878      1597  TIP3      H2              9.4260081031      -22.5550567794        3.6780382571  SOLV      1586            0.0000000000
      4879      1598  TIP3      OH2            15.1526890100      -28.4838731951       -4.1456865650  SOLV      1587            0.0000000000
      4880      1598  TIP3      H1             15.0431112725      -29.0801521734       -4.9198662605  SOLV      1587            0.0000000000
      4881      1598  TIP3      H2             14.2653563046      -28.5270048655       -3.7696283490  SOLV      1587            0.0000000000
      4882      1599  TIP3      OH2            14.6916682513      -28.9218709387       -1.4802410195  SOLV      1588            0.0000000000
      4883      1599  TIP3      H1             13.7513309074      -28.6340610119       -1.5000009478  SOLV      1588            0.0000000000
      4884      1599  TIP3      H2             15.0737203665      -28.2742922635       -0.8449897610  SOLV      1588            0.0000000000
      4885      1600  TIP3      OH2            20.8076022845      -22.7383818412       -4.3794697649  SOLV      1589            0.0000000000
      4886      1600  TIP3      H1             21.0807138747      -22.2412493449       -5.1822410911  SOLV      1589            0.0000000000
      4887      1600  TIP3      H2             19.9590404222      -23.1417332876       -4.6613433007  SOLV      1589            0.0000000000
      4888      1601  TIP3      OH2            16.3399130544      -32.2341284042      -12.0813275648  SOLV      1590            0.0000000000
      4889      1601  TIP3      H1             15.3858113269      -32.2797217424      -11.9184675752  SOLV      1590            0.0000000000
      4890      1601  TIP3      H2             16.5290413580      -31.2876804608      -11.9478658910  SOLV      1590            0.0000000000
      4891      1602  TIP3      OH2            15.7536035482      -21.9947007557       -0.5973023545  SOLV      1591            0.0000000000
      4892      1602  TIP3      H1             16.1862586360      -22.0565562234        0.2617725563  SOLV      1591            0.0000000000
      4893      1602  TIP3      H2             15.4127325296      -21.0818903206       -0.5954834210  SOLV      1591            0.0000000000
      4894      1603  TIP3      OH2            17.0816413934      -29.5937274668      -10.9825750922  SOLV      1592            0.0000000000
      4895      1603  TIP3      H1             18.0461587195      -29.5272403263      -10.8564306485  SOLV      1592            0.0000000000
      4896      1603  TIP3      H2             16.8821505766      -28.8172345779      -11.5361164501  SOLV      1592            0.0000000000
      4897      1604  TIP3      OH2             8.6835491937      -24.9343991549       -3.8205522970  SOLV      1593            0.0000000000
      4898      1604  TIP3      H1              9.1541007048      -25.2019556056       -4.6327745412  SOLV      1593            0.0000000000
      4899      1604  TIP3      H2              9.1246582831      -25.4560483264       -3.1306106666  SOLV      1593            0.0000000000
      4900      1605  TIP3      OH2            13.2961505044      -23.5883276453      -12.4536198480  SOLV      1594            0.0000000000
      4901      1605  TIP3      H1             12.8236187940      -22.7203294094      -12.4603439164  SOLV      1594            0.0000000000
      4902      1605  TIP3      H2             12.9866710832      -23.9531221076      -11.6187846888  SOLV      1594            0.0000000000
      4903      1606  TIP3      OH2             7.6227047413      -25.7363206615        2.2357643430  SOLV      1595            0.0000000000
      4904      1606  TIP3      H1              7.7682849505      -25.8315166462        3.1983853848  SOLV      1595            0.0000000000
      4905      1606  TIP3      H2              6.8941003741      -26.3670622914        2.1002058771  SOLV      1595            0.0000000000
      4906      1607  TIP3      OH2            14.8636087192      -24.4965769134        2.4458387554  SOLV      1596            0.0000000000
      4907      1607  TIP3      H1             14.2368797942      -25.1463614609        2.0924880156  SOLV      1596            0.0000000000
      4908      1607  TIP3      H2             15.7213895798      -24.8244438974        2.1044853634  SOLV      1596            0.0000000000
      4909      1608  TIP3      OH2            17.3819742373      -19.4017141132       -1.6273969341  SOLV      1597            0.0000000000
      4910      1608  TIP3      H1             16.4160351388      -19.3412357396       -1.5141506687  SOLV      1597            0.0000000000
      4911      1608  TIP3      H2             17.6827976716      -18.8437932953       -0.8770307505  SOLV      1597            0.0000000000
      4912      1609  TIP3      OH2            21.4600014416      -28.5972920437      -12.5078138117  SOLV      1598            0.0000000000
      4913      1609  TIP3      H1             20.9493833517      -29.1144640631      -13.1702350424  SOLV      1598            0.0000000000
      4914      1609  TIP3      H2             21.4386455952      -27.7257258516      -12.9598029692  SOLV      1598            0.0000000000
      4915      1610  TIP3      OH2            23.6883491315      -19.9707332788       -1.8197498992  SOLV      1599            0.0000000000
      4916      1610  TIP3      H1             22.7107093067      -20.0387978922       -1.8893062657  SOLV      1599            0.0000000000
      4917      1610  TIP3      H2             23.9401316877      -20.2848046149       -2.7174087805  SOLV      1599            0.0000000000
      4918      1611  TIP3      OH2            18.5149436438      -20.4074493404      -13.5086309092  SOLV      1600            0.0000000000
      4919      1611  TIP3      H1             18.2792918117      -21.1234949118      -12.9061207364  SOLV      1600            0.0000000000
      4920      1611  TIP3      H2             18.6643265423      -20.8670646429      -14.3551166089  SOLV      1600            0.0000000000
      4921      1612  TIP3      OH2            18.4458086428      -24.0629755651       -5.1732152973  SOLV      1601            0.0000000000
      4922      1612  TIP3      H1             17.4964214731      -24.2598753524       -5.0828815383  SOLV      1601            0.0000000000
      4923      1612  TIP3      H2             18.7652131384      -24.8710352643       -5.6303488297  SOLV      1601            0.0000000000
      4924      1613  TIP3      OH2             9.8040971839      -21.9184402063       -7.7159310486  SOLV      1602            0.0000000000
      4925      1613  TIP3      H1              9.8111352133      -21.0698007789       -8.2014558414  SOLV      1602            0.0000000000
      4926      1613  TIP3      H2              8.9085684183      -21.9067989311       -7.3599130480  SOLV      1602            0.0000000000
      4927      1614  TIP3      OH2             5.4426908381      -28.8061944270      -10.5305940992  SOLV      1603            0.0000000000
      4928      1614  TIP3      H1              5.7907061126      -27.9170870204      -10.3718844101  SOLV      1603            0.0000000000
      4929      1614  TIP3      H2              4.6331417739      -28.8042421900       -9.9674675500  SOLV      1603            0.0000000000
      4930      1615  TIP3      OH2            10.3524680648      -24.6602899343       -8.6412843244  SOLV      1604            0.0000000000
      4931      1615  TIP3      H1             10.4622250322      -23.6895375898       -8.6160327721  SOLV      1604            0.0000000000
      4932      1615  TIP3      H2             10.5235642503      -24.8724183717       -7.7060928850  SOLV      1604            0.0000000000
      4933      1616  TIP3      OH2            12.5056287904      -18.4392768679       -2.9456942596  SOLV      1605            0.0000000000
      4934      1616  TIP3      H1             12.9061421012      -17.6971017112       -3.4440836524  SOLV      1605            0.0000000000
      4935      1616  TIP3      H2             13.2739907772      -18.7675528557       -2.4513640752  SOLV      1605            0.0000000000
      4936      1617  TIP3      OH2             8.9677570433      -19.4892510220       -9.0836060455  SOLV      1606            0.0000000000
      4937      1617  TIP3      H1              8.1000736563      -19.3843599750       -8.6451399462  SOLV      1606            0.0000000000
      4938      1617  TIP3      H2              9.2957203312      -18.5616096300       -9.0621209318  SOLV      1606            0.0000000000
      4939      1618  TIP3      OH2            16.2942370889      -22.0552586698       -3.2860954193  SOLV      1607            0.0000000000
      4940      1618  TIP3      H1             16.1850900287      -22.0798486693       -2.3085920422  SOLV      1607            0.0000000000
      4941      1618  TIP3      H2             17.1689955728      -22.4505170472       -3.3880367722  SOLV      1607            0.0000000000
      4942      1619  TIP3      OH2            16.1833876540      -23.1419984360      -14.4913935703  SOLV      1608            0.0000000000
      4943      1619  TIP3      H1             16.7198100633      -23.3722578664      -13.6999017504  SOLV      1608            0.0000000000
      4944      1619  TIP3      H2             15.3043057735      -23.4248954021      -14.2003228271  SOLV      1608            0.0000000000
      4945      1620  TIP3      OH2            18.8116687637      -16.7786769446       -2.8527180609  SOLV      1609            0.0000000000
      4946      1620  TIP3      H1             17.9923006627      -17.3022112082       -2.9290478060  SOLV      1609            0.0000000000
      4947      1620  TIP3      H2             18.6747640582      -16.1187173250       -3.5680939263  SOLV      1609            0.0000000000
      4948      1621  TIP3      OH2            19.4651357581      -18.4133078605      -16.3242184464  SOLV      1610            0.0000000000
      4949      1621  TIP3      H1             19.8384558895      -17.6809880612      -16.8426956478  SOLV      1610            0.0000000000
      4950      1621  TIP3      H2             18.6703684454      -17.9632069448      -15.9680322790  SOLV      1610            0.0000000000
      4951      1622  TIP3      OH2            10.0869505660      -30.1908619442        2.3747700360  SOLV      1611            0.0000000000
      4952      1622  TIP3      H1              9.3316922530      -30.8188535202        2.3021820577  SOLV      1611            0.0000000000
      4953      1622  TIP3      H2             10.5414556976      -30.5273292800        3.1579670054  SOLV      1611            0.0000000000
      4954      1623  TIP3      OH2            17.7416234315      -23.7455576739      -12.2805920073  SOLV      1612            0.0000000000
      4955      1623  TIP3      H1             17.6466119783      -24.4686313057      -11.6251997786  SOLV      1612            0.0000000000
      4956      1623  TIP3      H2             18.7047043654      -23.8078271929      -12.4611480503  SOLV      1612            0.0000000000
      4957      1624  TIP3      OH2             6.8802079504      -19.8017376184       -1.3721854003  SOLV      1613            0.0000000000
      4958      1624  TIP3      H1              7.4041518046      -20.4782955212       -0.9146856030  SOLV      1613            0.0000000000
      4959      1624  TIP3      H2              7.0653315341      -19.0202575568       -0.8359845086  SOLV      1613            0.0000000000
      4960      1625  TIP3      OH2             9.7605128413      -23.3336064160      -14.5631629747  SOLV      1614            0.0000000000
      4961      1625  TIP3      H1              9.8743671432      -24.2274368026      -14.9354680357  SOLV      1614            0.0000000000
      4962      1625  TIP3      H2              9.8214722029      -23.5019495376      -13.6189802598  SOLV      1614            0.0000000000
      4963      1626  TIP3      OH2             6.7444782998      -26.0907753634       -9.7621147220  SOLV      1615            0.0000000000
      4964      1626  TIP3      H1              5.9934345495      -25.7686634948       -9.2147263377  SOLV      1615            0.0000000000
      4965      1626  TIP3      H2              6.6314030896      -25.4963138505      -10.5356976483  SOLV      1615            0.0000000000
      4966      1627  TIP3      OH2            17.6978002683      -29.9249155817       -1.2944552230  SOLV      1616            0.0000000000
      4967      1627  TIP3      H1             18.5840727288      -29.6003121968       -1.0493479335  SOLV      1616            0.0000000000
      4968      1627  TIP3      H2             17.7501060907      -30.8186901149       -0.9176492409  SOLV      1616            0.0000000000
      4969      1628  TIP3      OH2            16.7192451497      -32.2265633543       -9.2864531963  SOLV      1617            0.0000000000
      4970      1628  TIP3      H1             16.7353161775      -32.2317615776      -10.2578512580  SOLV      1617            0.0000000000
      4971      1628  TIP3      H2             17.2397240831      -31.4330056919       -9.0786624951  SOLV      1617            0.0000000000
      4972      1629  TIP3      OH2            11.7543654581      -21.3959525845      -12.3416718793  SOLV      1618            0.0000000000
      4973      1629  TIP3      H1             10.8525776232      -21.2168693009      -11.9961573670  SOLV      1618            0.0000000000
      4974      1629  TIP3      H2             11.9298822432      -20.5542038324      -12.7879193655  SOLV      1618            0.0000000000
      4975      1630  TIP3      OH2            13.4826062439      -30.3289666130       -7.9731090126  SOLV      1619            0.0000000000
      4976      1630  TIP3      H1             14.2839704768      -30.0243455192       -8.4285814300  SOLV      1619            0.0000000000
      4977      1630  TIP3      H2             13.8577521904      -30.8302089030       -7.2397459054  SOLV      1619            0.0000000000
      4978      1631  TIP3      OH2            16.5834655765      -27.5298653009       -0.0768110148  SOLV      1620            0.0000000000
      4979      1631  TIP3      H1             16.7167334797      -26.8532902073        0.6277250211  SOLV      1620            0.0000000000
      4980      1631  TIP3      H2             17.0758257924      -28.2728327352        0.3088684328  SOLV      1620            0.0000000000
      4981      1632  TIP3      OH2             9.2466784490      -20.6232053422      -11.6271123999  SOLV      1621            0.0000000000
      4982      1632  TIP3      H1              8.9792927533      -19.8995526506      -12.2324770965  SOLV      1621            0.0000000000
      4983      1632  TIP3      H2              9.1195417783      -20.2053523143      -10.7505568323  SOLV      1621            0.0000000000
      4984      1633  TIP3      OH2            10.3691627410      -33.5099332477       -8.9428470761  SOLV      1622            0.0000000000
      4985      1633  TIP3      H1             10.5230123667      -32.5605455448       -8.7648445795  SOLV      1622            0.0000000000
      4986      1633  TIP3      H2             11.2728609523      -33.7502157021       -9.2585086872  SOLV      1622            0.0000000000
      4987      1634  TIP3      OH2            22.7446980883      -28.3832333375       -0.4877740624  SOLV      1623            0.0000000000
      4988      1634  TIP3      H1             21.7847451085      -28.2310264553       -0.5572159950  SOLV      1623            0.0000000000
      4989      1634  TIP3      H2             22.8786056859      -29.0241333378       -1.2034381351  SOLV      1623            0.0000000000
      4990      1635  TIP3      OH2            19.2377143882      -26.4487245114       -6.3729661388  SOLV      1624            0.0000000000
      4991      1635  TIP3      H1             18.5578216403      -27.1519910816       -6.4127559016  SOLV      1624            0.0000000000
      4992      1635  TIP3      H2             20.0014255660      -26.9117237820       -5.9545736523  SOLV      1624            0.0000000000
      4993      1636  TIP3      OH2             6.4913533155      -24.1972660270      -11.7450042472  SOLV      1625            0.0000000000
      4994      1636  TIP3      H1              6.6988100354      -23.2536893600      -11.8532154499  SOLV      1625            0.0000000000
      4995      1636  TIP3      H2              7.1106150842      -24.6184283075      -12.3668180268  SOLV      1625            0.0000000000
      4996      1637  TIP3      OH2             5.8596251010      -31.5225738037      -10.0970135005  SOLV      1626            0.0000000000
      4997      1637  TIP3      H1              5.8542816646      -30.5483622709      -10.2100493729  SOLV      1626            0.0000000000
      4998      1637  TIP3      H2              5.5416688625      -31.8172395103      -10.9546625666  SOLV      1626            0.0000000000
      4999      1638  TIP3      OH2            19.0383733065      -16.9868442619       -6.9381457768  SOLV      1627            0.0000000000
      5000      1638  TIP3      H1             18.6133181139      -16.5159686259       -7.6901306446  SOLV      1627            0.0000000000
      5001      1638  TIP3      H2             19.9829418012      -16.7800805878       -7.1247314636  SOLV      1627            0.0000000000
      5002      1639  TIP3      OH2             5.0552812290      -22.2386745394       -7.8597096407  SOLV      1628            0.0000000000
      5003      1639  TIP3      H1              4.5165037134      -21.8801833230       -7.1458227767  SOLV      1628            0.0000000000
      5004      1639  TIP3      H2              4.7315842189      -21.7289150008       -8.6342318046  SOLV      1628            0.0000000000
      5005      1640  TIP3      OH2             6.8035042109      -16.6322724124        2.8694871769  SOLV      1629            0.0000000000
      5006      1640  TIP3      H1              7.6578712930      -16.5986160375        3.3585584412  SOLV      1629            0.0000000000
      5007      1640  TIP3      H2              6.6233919176      -17.5862043068        2.8771785167  SOLV      1629            0.0000000000
      5008      1641  TIP3      OH2            11.5135198259      -17.1369085963        3.3455850303  SOLV      1630            0.0000000000
      5009      1641  TIP3      H1             12.4692383056      -17.2648362167        3.4072053907  SOLV      1630            0.0000000000
      5010      1641  TIP3      H2             11.2869120450      -17.7598814766        2.6254628998  SOLV      1630            0.0000000000
      5011      1642  TIP3      OH2            11.3640425050      -21.2895824529      -15.4682619839  SOLV      1631            0.0000000000
      5012      1642  TIP3      H1             10.8321118321      -22.0127688559      -15.0659959877  SOLV      1631            0.0000000000
      5013      1642  TIP3      H2             12.1244001445      -21.7877789665      -15.8187766743  SOLV      1631            0.0000000000
      5014      1643  TIP3      OH2            17.9521526365      -18.0069681358        0.6552755607  SOLV      1632            0.0000000000
      5015      1643  TIP3      H1             17.8988970563      -18.7000378579        1.3530198190  SOLV      1632            0.0000000000
      5016      1643  TIP3      H2             18.7154589112      -17.4754885626        0.9554802713  SOLV      1632            0.0000000000
      5017      1644  TIP3      OH2            15.7062548884      -20.9597022345      -16.2581096333  SOLV      1633            0.0000000000
      5018      1644  TIP3      H1             16.1653920053      -21.5835254561      -15.6651248262  SOLV      1633            0.0000000000
      5019      1644  TIP3      H2             16.2699481233      -20.9623637392      -17.0569315613  SOLV      1633            0.0000000000
      5020      1645  TIP3      OH2             8.0594893780      -22.6105251944        4.8663934561  SOLV      1634            0.0000000000
      5021      1645  TIP3      H1              8.1744792468      -23.5636958425        5.0139434662  SOLV      1634            0.0000000000
      5022      1645  TIP3      H2              7.1793727265      -22.5786959518        4.4314399841  SOLV      1634            0.0000000000
      5023      1646  TIP3      OH2             8.2397578251      -26.1777577011      -12.8118948582  SOLV      1635            0.0000000000
      5024      1646  TIP3      H1              8.1208427292      -27.1347503629      -12.8061909349  SOLV      1635            0.0000000000
      5025      1646  TIP3      H2              8.8266856203      -26.0894548310      -13.5966043520  SOLV      1635            0.0000000000
      5026      1647  TIP3      OH2            14.1387263728      -21.7368436694        2.6332889314  SOLV      1636            0.0000000000
      5027      1647  TIP3      H1             13.7190415513      -21.5347906055        1.7740893738  SOLV      1636            0.0000000000
      5028      1647  TIP3      H2             14.4586702975      -22.6554780983        2.5098349281  SOLV      1636            0.0000000000
      5029      1648  TIP3      OH2            12.9686035583      -24.1611891939      -15.1084297714  SOLV      1637            0.0000000000
      5030      1648  TIP3      H1             13.0287816333      -24.0252091719      -14.1410282907  SOLV      1637            0.0000000000
      5031      1648  TIP3      H2             13.0389523402      -25.1418540851      -15.1564890094  SOLV      1637            0.0000000000
      5032      1649  TIP3      OH2            19.0124447545      -21.6562093603       -1.3576776585  SOLV      1638            0.0000000000
      5033      1649  TIP3      H1             19.7962567620      -21.2372316708       -1.7656557746  SOLV      1638            0.0000000000
      5034      1649  TIP3      H2             18.3589363503      -20.9339743647       -1.4547752295  SOLV      1638            0.0000000000
      5035      1650  TIP3      OH2             9.3339469578      -25.3205981010        4.7136092800  SOLV      1639            0.0000000000
      5036      1650  TIP3      H1             10.1579398192      -25.7492977255        4.4594399072  SOLV      1639            0.0000000000
      5037      1650  TIP3      H2              9.5707359983      -24.9652995208        5.5973662114  SOLV      1639            0.0000000000
      5038      1651  TIP3      OH2            12.6791808586      -26.2502552853        1.3137628782  SOLV      1640            0.0000000000
      5039      1651  TIP3      H1             11.8467029234      -25.7353771983        1.3122034229  SOLV      1640            0.0000000000
      5040      1651  TIP3      H2             13.0925395413      -25.9923214604        0.4619641042  SOLV      1640            0.0000000000
      5041      1652  TIP3      OH2            10.8944227029      -28.7647126447      -12.4223539960  SOLV      1641            0.0000000000
      5042      1652  TIP3      H1             10.6340807243      -28.9432501600      -13.3416330521  SOLV      1641            0.0000000000
      5043      1652  TIP3      H2             11.8659383889      -28.8720557222      -12.4802873251  SOLV      1641            0.0000000000
      5044      1653  TIP3      OH2            17.7545345440      -22.4522102129        2.6107827614  SOLV      1642            0.0000000000
      5045      1653  TIP3      H1             18.5985453064      -22.7291445901        2.2398721578  SOLV      1642            0.0000000000
      5046      1653  TIP3      H2             17.6824599842      -23.0359438436        3.3906717650  SOLV      1642            0.0000000000
      5047      1654  TIP3      OH2            19.1197895011      -25.9082503426      -15.8856871714  SOLV      1643            0.0000000000
      5048      1654  TIP3      H1             18.9519228924      -26.3855155320      -16.7240388789  SOLV      1643            0.0000000000
      5049      1654  TIP3      H2             18.7728597610      -25.0137169967      -16.1224313808  SOLV      1643            0.0000000000
      5050      1655  TIP3      OH2            13.8788384156      -28.0907979245        2.8470142564  SOLV      1644            0.0000000000
      5051      1655  TIP3      H1             13.7654763104      -28.9247359331        2.3320310986  SOLV      1644            0.0000000000
      5052      1655  TIP3      H2             13.3995759469      -27.4605934662        2.2529677342  SOLV      1644            0.0000000000
      5053      1656  TIP3      OH2            13.5705545966      -29.9840411881        0.9600624576  SOLV      1645            0.0000000000
      5054      1656  TIP3      H1             13.6936464499      -29.5734981619        0.1020346761  SOLV      1645            0.0000000000
      5055      1656  TIP3      H2             12.7234659723      -30.4627265407        0.8363474600  SOLV      1645            0.0000000000
      5056      1657  TIP3      OH2            14.1336974431      -25.4340290514       -0.8272477913  SOLV      1646            0.0000000000
      5057      1657  TIP3      H1             14.9782612432      -25.0521487453       -1.0785615695  SOLV      1646            0.0000000000
      5058      1657  TIP3      H2             13.5082698960      -24.7555904455       -1.1706035475  SOLV      1646            0.0000000000
      5059      1658  TIP3      OH2            19.8350286949      -25.6327254800        3.0245485148  SOLV      1647            0.0000000000
      5060      1658  TIP3      H1             20.1429213997      -26.3166939807        3.6577456718  SOLV      1647            0.0000000000
      5061      1658  TIP3      H2             20.6771856665      -25.2229484830        2.7713678673  SOLV      1647            0.0000000000
      5062      1659  TIP3      OH2            20.3312011461      -23.1287273840        0.4894560216  SOLV      1648            0.0000000000
      5063      1659  TIP3      H1             19.7481618620      -22.5481997749       -0.0545172937  SOLV      1648            0.0000000000
      5064      1659  TIP3      H2             21.2089918632      -22.8777088916        0.1190455375  SOLV      1648            0.0000000000
      5065      1660  TIP3      OH2            12.6808088515      -26.9649459544        5.0310262427  SOLV      1649            0.0000000000
      5066      1660  TIP3      H1             11.8980091373      -27.5470031957        5.0898229723  SOLV      1649            0.0000000000
      5067      1660  TIP3      H2             13.1018864728      -27.3070901908        4.2141614460  SOLV      1649            0.0000000000
      5068      1661  TIP3      OH2            16.5200001260      -27.8251010774        3.4659506608  SOLV      1650            0.0000000000
      5069      1661  TIP3      H1             16.4191398560      -27.9024790754        4.4468333306  SOLV      1650            0.0000000000
      5070      1661  TIP3      H2             15.5755385828      -27.9591671072        3.2395788541  SOLV      1650            0.0000000000
      5071      1662  TIP3      OH2            18.7289519897      -28.7044456447        2.0896217557  SOLV      1651            0.0000000000
      5072      1662  TIP3      H1             18.0036022002      -28.3914358037        2.6658848658  SOLV      1651            0.0000000000
      5073      1662  TIP3      H2             19.1257485087      -29.3669628038        2.6997191917  SOLV      1651            0.0000000000
      5074      1663  TIP3      OH2            10.6698257875      -28.7883217264        5.2006525610  SOLV      1652            0.0000000000
      5075      1663  TIP3      H1             11.0920724680      -29.6073585878        4.8769371349  SOLV      1652            0.0000000000
      5076      1663  TIP3      H2             10.7226847954      -28.9289486680        6.1599957117  SOLV      1652            0.0000000000
      5077      1664  TIP3      OH2             9.0117613426      -18.5943523330      -13.5215782659  SOLV      1653            0.0000000000
      5078      1664  TIP3      H1              9.9696246351      -18.6569575680      -13.6898286105  SOLV      1653            0.0000000000
      5079      1664  TIP3      H2              8.7496646046      -18.0244545501      -14.2693966873  SOLV      1653            0.0000000000
      5080      1665  TIP3      OH2             3.7800392527      -24.7108408718      -11.4057717792  SOLV      1654            0.0000000000
      5081      1665  TIP3      H1              4.7290408175      -24.5116099042      -11.5372225159  SOLV      1654            0.0000000000
      5082      1665  TIP3      H2              3.7011768973      -25.5948547396      -11.8250622918  SOLV      1654            0.0000000000
      5083      1666  TIP3      OH2             3.0036078829      -18.6334151187       -7.1631122134  SOLV      1655            0.0000000000
      5084      1666  TIP3      H1              2.3173870982      -19.2139529480       -7.5611629141  SOLV      1655            0.0000000000
      5085      1666  TIP3      H2              3.4190158698      -19.2524012517       -6.5281193132  SOLV      1655            0.0000000000
      5086      1667  TIP3      OH2             4.3696612596      -20.2203017818       -5.3498025938  SOLV      1656            0.0000000000
      5087      1667  TIP3      H1              4.1909415618      -20.8650041713       -4.6449329491  SOLV      1656            0.0000000000
      5088      1667  TIP3      H2              4.8532244814      -19.5448068320       -4.8379310502  SOLV      1656            0.0000000000
      5089      1668  TIP3      OH2            21.5873980304      -16.1066724534       -7.2994992893  SOLV      1657            0.0000000000
      5090      1668  TIP3      H1             21.8491235223      -15.7970643748       -6.4133826825  SOLV      1657            0.0000000000
      5091      1668  TIP3      H2             22.2440450899      -15.6785490537       -7.8689512960  SOLV      1657            0.0000000000
      5092      1669  TIP3      OH2            21.8521424037      -15.9032719067       -4.4728485999  SOLV      1658            0.0000000000
      5093      1669  TIP3      H1             21.4215787310      -16.7839177594       -4.5013508095  SOLV      1658            0.0000000000
      5094      1669  TIP3      H2             22.6265753931      -16.1175505649       -3.9289954136  SOLV      1658            0.0000000000
      5095      1670  TIP3      OH2            22.3292212463      -19.1266467876        1.2457086301  SOLV      1659            0.0000000000
      5096      1670  TIP3      H1             21.6216711557      -19.0282204495        1.9140800350  SOLV      1659            0.0000000000
      5097      1670  TIP3      H2             22.7637093663      -18.2506821549        1.2905321054  SOLV      1659            0.0000000000
      5098      1671  TIP3      OH2            20.5020202850      -23.9902757062      -12.6109260316  SOLV      1660            0.0000000000
      5099      1671  TIP3      H1             21.1792527076      -23.3457383898      -12.9041301633  SOLV      1660            0.0000000000
      5100      1671  TIP3      H2             20.9477515838      -24.3717078955      -11.8195619547  SOLV      1660            0.0000000000
      5101      1672  TIP3      OH2            21.7680743510      -25.2851714513      -10.5699081301  SOLV      1661            0.0000000000
      5102      1672  TIP3      H1             21.1416630276      -25.6932392571       -9.9364827383  SOLV      1661            0.0000000000
      5103      1672  TIP3      H2             22.4901052883      -24.9640634478       -9.9822632363  SOLV      1661            0.0000000000
      5104      1673  TIP3      OH2            22.3162023958      -21.3897856992       -6.2524639313  SOLV      1662            0.0000000000
      5105      1673  TIP3      H1             22.8750390713      -22.0684809370       -6.6815508107  SOLV      1662            0.0000000000
      5106      1673  TIP3      H2             22.3235449146      -20.6668400359       -6.9099098190  SOLV      1662            0.0000000000
      5107      1674  TIP3      OH2            20.5941859403      -18.4148619693       -4.2811253960  SOLV      1663            0.0000000000
      5108      1674  TIP3      H1             19.8814883399      -17.9789942180       -3.7748312472  SOLV      1663            0.0000000000
      5109      1674  TIP3      H2             20.0989198303      -18.8606574557       -4.9994894791  SOLV      1663            0.0000000000
      5110      1675  TIP3      OH2            21.1163825471      -26.2815710977      -14.0428378156  SOLV      1664            0.0000000000
      5111      1675  TIP3      H1             20.3925090497      -26.1892327352      -14.6997944428  SOLV      1664            0.0000000000
      5112      1675  TIP3      H2             20.9270322914      -25.5053925743      -13.4765330701  SOLV      1664            0.0000000000
      5113      1676  TIP3      OH2            19.8985955332      -29.5750540997      -14.5229588542  SOLV      1665            0.0000000000
      5114      1676  TIP3      H1             19.3968703622      -28.9131147417      -15.0039151931  SOLV      1665            0.0000000000
      5115      1676  TIP3      H2             19.4863854383      -30.4069118557      -14.7757281228  SOLV      1665            0.0000000000
      5116      1677  TIP3      OH2            19.8570004468      -26.6606605965       -9.0980441830  SOLV      1666            0.0000000000
      5117      1677  TIP3      H1             19.9542309210      -27.6259142888       -9.1896784028  SOLV      1666            0.0000000000
      5118      1677  TIP3      H2             19.7488483221      -26.5407915999       -8.1329041573  SOLV      1666            0.0000000000
      5119      1678  TIP3      OH2             6.1581658457      -26.0318616971       -1.5905974975  SOLV      1667            0.0000000000
      5120      1678  TIP3      H1              6.1035861211      -26.3658346617       -2.5088038614  SOLV      1667            0.0000000000
      5121      1678  TIP3      H2              7.1347426260      -26.0139095567       -1.4578481432  SOLV      1667            0.0000000000
      5122      1679  TIP3      OH2            22.7572507125      -22.4429531482       -0.5319677436  SOLV      1668            0.0000000000
      5123      1679  TIP3      H1             23.4801002820      -23.1034647072       -0.6236288896  SOLV      1668            0.0000000000
      5124      1679  TIP3      H2             23.0285526654      -21.7528169071       -1.1576397603  SOLV      1668            0.0000000000
      5125      1680  TIP3      OH2            24.6023818602      -24.4002366603       -0.3977433311  SOLV      1669            0.0000000000
      5126      1680  TIP3      H1             23.8901265918      -24.9102054248        0.0440317121  SOLV      1669            0.0000000000
      5127      1680  TIP3      H2             25.3568267326      -25.0091025491       -0.2289914384  SOLV      1669            0.0000000000
      5128      1681  TIP3      OH2            19.8869107362      -29.3979482479      -10.1239680919  SOLV      1670            0.0000000000
      5129      1681  TIP3      H1             19.9926701546      -30.3597710479      -10.2634186664  SOLV      1670            0.0000000000
      5130      1681  TIP3      H2             20.5218666787      -29.0601749123      -10.7876229622  SOLV      1670            0.0000000000
      5131      1682  TIP3      OH2            21.3673256924      -27.6653661522       -5.2013123325  SOLV      1671            0.0000000000
      5132      1682  TIP3      H1             22.1953005004      -27.4533034969       -5.6943100010  SOLV      1671            0.0000000000
      5133      1682  TIP3      H2             21.7065936082      -27.5385234448       -4.2977964411  SOLV      1671            0.0000000000
      5134      1683  TIP3      OH2            22.1624839242      -26.3437658645       -2.8067221107  SOLV      1672            0.0000000000
      5135      1683  TIP3      H1             21.4003844682      -25.9186179356       -2.3779358357  SOLV      1672            0.0000000000
      5136      1683  TIP3      H2             22.5393429884      -25.5961779171       -3.3223762356  SOLV      1672            0.0000000000
      5137      1684  TIP3      OH2             7.9670268331      -29.2301215078        4.9546124232  SOLV      1673            0.0000000000
      5138      1684  TIP3      H1              8.9390739342      -29.1443433632        4.8473963802  SOLV      1673            0.0000000000
      5139      1684  TIP3      H2              7.9270607076      -29.5443151660        5.8661188818  SOLV      1673            0.0000000000
      5140      1685  TIP3      OH2             7.8346152253      -32.1891627994       -1.7354994129  SOLV      1674            0.0000000000
      5141      1685  TIP3      H1              8.6690005689      -32.7018825691       -1.7815525977  SOLV      1674            0.0000000000
      5142      1685  TIP3      H2              8.1801640933      -31.3132657972       -1.5145801043  SOLV      1674            0.0000000000
      5143      1686  TIP3      OH2             5.9621156180      -29.5387604140       -0.8831992695  SOLV      1675            0.0000000000
      5144      1686  TIP3      H1              6.4557980857      -29.3492450246       -1.6990221167  SOLV      1675            0.0000000000
      5145      1686  TIP3      H2              6.1230694513      -28.7487578760       -0.3522304420  SOLV      1675            0.0000000000
      5146      1687  TIP3      OH2            17.3815348788      -17.4327884664      -10.7666207281  SOLV      1676            0.0000000000
      5147      1687  TIP3      H1             17.9399397056      -17.5051518848      -11.5675095484  SOLV      1676            0.0000000000
      5148      1687  TIP3      H2             17.8599692574      -16.7624562714      -10.2474740051  SOLV      1676            0.0000000000
      5149      1688  TIP3      OH2             8.4096272606      -19.4045708328        3.0499787942  SOLV      1677            0.0000000000
      5150      1688  TIP3      H1              7.4585725770      -19.5941921886        2.9344189161  SOLV      1677            0.0000000000
      5151      1688  TIP3      H2              8.5221546051      -19.5302273520        3.9997779916  SOLV      1677            0.0000000000
      5152      1689  TIP3      OH2            10.2480516582      -19.0332147161       -1.4490382577  SOLV      1678            0.0000000000
      5153      1689  TIP3      H1              9.7465134425      -18.2738905598       -1.8121280980  SOLV      1678            0.0000000000
      5154      1689  TIP3      H2             11.0976621162      -18.8734479483       -1.9106385733  SOLV      1678            0.0000000000
      5155      1690  TIP3      OH2            14.5953062698      -16.6339745978       -0.0966680874  SOLV      1679            0.0000000000
      5156      1690  TIP3      H1             15.0037264290      -16.6445828809        0.7968289797  SOLV      1679            0.0000000000
      5157      1690  TIP3      H2             15.2535119252      -16.0973177564       -0.5883591090  SOLV      1679            0.0000000000
      5158      1691  TIP3      OH2            16.4100674338      -15.0678207816       -1.4324283982  SOLV      1680            0.0000000000
      5159      1691  TIP3      H1             17.1309139261      -15.5625654114       -1.8459946910  SOLV      1680            0.0000000000
      5160      1691  TIP3      H2             16.9184461949      -14.4840627503       -0.8262740251  SOLV      1680            0.0000000000
      5161      1692  TIP3      OH2             6.9627257652      -16.4887681554       -1.1485017151  SOLV      1681            0.0000000000
      5162      1692  TIP3      H1              6.0478355632      -16.1946737348       -1.3655717618  SOLV      1681            0.0000000000
      5163      1692  TIP3      H2              7.1390165039      -15.9375872326       -0.3779905662  SOLV      1681            0.0000000000
      5164      1693  TIP3      OH2             9.3059784532      -16.7064397084       -2.5986592181  SOLV      1682            0.0000000000
      5165      1693  TIP3      H1              8.4385104027      -16.5880374878       -2.1507727008  SOLV      1682            0.0000000000
      5166      1693  TIP3      H2              9.1083059976      -16.3639718290       -3.4932505294  SOLV      1682            0.0000000000
      5167      1694  TIP3      OH2            13.5750400086      -16.4453561861       -4.6237694040  SOLV      1683            0.0000000000
      5168      1694  TIP3      H1             12.8715222151      -16.2491429745       -5.2701787014  SOLV      1683            0.0000000000
      5169      1694  TIP3      H2             13.6981199175      -15.5693204779       -4.1996544405  SOLV      1683            0.0000000000
      5170      1695  TIP3      OH2            16.2693689867      -17.0712375589       -4.1121607228  SOLV      1684            0.0000000000
      5171      1695  TIP3      H1             15.3290593804      -16.8683777459       -4.2865965403  SOLV      1684            0.0000000000
      5172      1695  TIP3      H2             16.7131970658      -16.3246184594       -4.5492745285  SOLV      1684            0.0000000000
      5173      1696  TIP3      OH2            18.2835570203      -15.1560560258       -4.9992023457  SOLV      1685            0.0000000000
      5174      1696  TIP3      H1             18.1662867462      -14.2958644971       -5.4583356413  SOLV      1685            0.0000000000
      5175      1696  TIP3      H2             18.5679726471      -15.7355194185       -5.7388112737  SOLV      1685            0.0000000000
      5176      1697  TIP3      OH2             6.0747082763      -18.5669237904       -3.7856029504  SOLV      1686            0.0000000000
      5177      1697  TIP3      H1              6.3258129422      -18.8605378488       -2.8832603435  SOLV      1686            0.0000000000
      5178      1697  TIP3      H2              6.8159374057      -18.9673192981       -4.2915884654  SOLV      1686            0.0000000000
      5179      1698  TIP3      OH2             8.0505500303      -19.8201783730       -5.1724945245  SOLV      1687            0.0000000000
      5180      1698  TIP3      H1              8.1802642914      -20.6550022970       -4.6632988155  SOLV      1687            0.0000000000
      5181      1698  TIP3      H2              8.9577744867      -19.4456898184       -5.1535279159  SOLV      1687            0.0000000000
      5182      1699  TIP3      OH2            10.7036901016      -18.9259496597       -5.0735474905  SOLV      1688            0.0000000000
      5183      1699  TIP3      H1             11.0059995411      -19.8525112365       -5.1285542292  SOLV      1688            0.0000000000
      5184      1699  TIP3      H2             11.1873320668      -18.6471040773       -4.2733546717  SOLV      1688            0.0000000000
      5185      1700  TIP3      OH2             3.9551983594      -20.7880774833       -9.8948789886  SOLV      1689            0.0000000000
      5186      1700  TIP3      H1              3.0747175306      -21.0764998631      -10.2059450239  SOLV      1689            0.0000000000
      5187      1700  TIP3      H2              3.9027451503      -19.8478101835      -10.1507385296  SOLV      1689            0.0000000000
      5188      1701  TIP3      OH2            11.6950281214      -19.0270377797      -13.9730693823  SOLV      1690            0.0000000000
      5189      1701  TIP3      H1             12.5615068366      -18.7714411982      -14.3541474090  SOLV      1690            0.0000000000
      5190      1701  TIP3      H2             11.4761708689      -19.7662648552      -14.5857639465  SOLV      1690            0.0000000000
      5191      1702  TIP3      OH2            18.8867937740      -17.7401532908      -13.0724593923  SOLV      1691            0.0000000000
      5192      1702  TIP3      H1             18.7894653549      -18.7133112169      -13.2001877486  SOLV      1691            0.0000000000
      5193      1702  TIP3      H2             18.4263962002      -17.4073761916      -13.8701963085  SOLV      1691            0.0000000000
      5194      1703  TIP3      OH2             4.6729715253      -20.6356049057      -13.4850427705  SOLV      1692            0.0000000000
      5195      1703  TIP3      H1              4.6948867495      -20.3236861510      -12.5690146628  SOLV      1692            0.0000000000
      5196      1703  TIP3      H2              5.5561678557      -21.0606123155      -13.5903329987  SOLV      1692            0.0000000000
      5197      1704  TIP3      OH2            21.0861088405      -16.3440617892       -1.2145225960  SOLV      1693            0.0000000000
      5198      1704  TIP3      H1             20.3029137483      -16.6357839621       -1.7234853507  SOLV      1693            0.0000000000
      5199      1704  TIP3      H2             20.9086556543      -15.3832901823       -1.1534141061  SOLV      1693            0.0000000000
      5200      1705  TIP3      OH2            26.8087928294      -23.5310458235       -6.1502637551  SOLV      1694            0.0000000000
      5201      1705  TIP3      H1             27.1225925420      -24.3282084636       -5.6779517212  SOLV      1694            0.0000000000
      5202      1705  TIP3      H2             27.5029686110      -22.9090746341       -5.8962916625  SOLV      1694            0.0000000000
      5203      1706  TIP3      OH2            26.1652204620      -19.5253605751       -8.9442050663  SOLV      1695            0.0000000000
      5204      1706  TIP3      H1             26.0331029538      -20.4701973424       -8.7893727732  SOLV      1695            0.0000000000
      5205      1706  TIP3      H2             27.1307608645      -19.4844275412       -8.8422717660  SOLV      1695            0.0000000000
      5206      1707  TIP3      OH2            23.5581395015      -27.4306288860      -11.0778793859  SOLV      1696            0.0000000000
      5207      1707  TIP3      H1             23.0495286319      -26.6190153566      -10.9130998677  SOLV      1696            0.0000000000
      5208      1707  TIP3      H2             22.8628665117      -28.0222980642      -11.4063230648  SOLV      1696            0.0000000000
      5209      1708  TIP3      OH2            24.1139186934      -24.6720698171       -9.2157160979  SOLV      1697            0.0000000000
      5210      1708  TIP3      H1             24.6048658088      -25.4864705669       -8.9637246537  SOLV      1697            0.0000000000
      5211      1708  TIP3      H2             24.8546358489      -24.1016036542       -9.4866881506  SOLV      1697            0.0000000000
      5212      1709  TIP3      OH2            25.7768075613      -26.6560795527       -8.2504978711  SOLV      1698            0.0000000000
      5213      1709  TIP3      H1             26.6813232837      -26.4931142814       -7.9614643559  SOLV      1698            0.0000000000
      5214      1709  TIP3      H2             25.9288369718      -27.2967033659       -8.9797217631  SOLV      1698            0.0000000000
      5215      1710  TIP3      OH2            27.9481699011      -19.5274101187       -6.2131070553  SOLV      1699            0.0000000000
      5216      1710  TIP3      H1             27.8657977200      -18.5739345823       -6.4083164159  SOLV      1699            0.0000000000
      5217      1710  TIP3      H2             27.4214493362      -19.5568901342       -5.3947048139  SOLV      1699            0.0000000000
      5218      1711  TIP3      OH2            22.5051462181      -22.2899087843      -13.6602391232  SOLV      1700            0.0000000000
      5219      1711  TIP3      H1             22.1283714610      -22.0065195705      -14.5118213447  SOLV      1700            0.0000000000
      5220      1711  TIP3      H2             22.8194127163      -21.4387165994      -13.2922316915  SOLV      1700            0.0000000000
      5221      1712  TIP3      OH2            28.0042600684      -22.5650952044       -3.1618636690  SOLV      1701            0.0000000000
      5222      1712  TIP3      H1             28.1016331730      -21.6113224707       -2.9746571927  SOLV      1701            0.0000000000
      5223      1712  TIP3      H2             27.0360236146      -22.6577302958       -3.1007625783  SOLV      1701            0.0000000000
      5224      1713  TIP3      OH2            28.0397213628      -15.8951988001       -3.6899216404  SOLV      1702            0.0000000000
      5225      1713  TIP3      H1             27.7684893438      -16.2243803956       -4.5559387797  SOLV      1702            0.0000000000
      5226      1713  TIP3      H2             27.3528058588      -16.2806947270       -3.0941620705  SOLV      1702            0.0000000000
      5227      1714  TIP3      OH2            24.2998537174      -20.9923828750       -4.2467989678  SOLV      1703            0.0000000000
      5228      1714  TIP3      H1             23.6456921974      -21.1978304420       -4.9451312827  SOLV      1703            0.0000000000
      5229      1714  TIP3      H2             24.6516704484      -21.8757760051       -4.0139671710  SOLV      1703            0.0000000000
      5230      1715  TIP3      OH2            22.9396110051      -19.0892315589       -7.9307180240  SOLV      1704            0.0000000000
      5231      1715  TIP3      H1             23.8977008198      -19.1058185564       -8.0720655256  SOLV      1704            0.0000000000
      5232      1715  TIP3      H2             22.8521812470      -18.3236759460       -7.3408985353  SOLV      1704            0.0000000000
      5233      1716  TIP3      OH2            24.4454876230      -16.9550593667      -12.5357904319  SOLV      1705            0.0000000000
      5234      1716  TIP3      H1             25.0028232613      -16.9590206243      -11.7254017536  SOLV      1705            0.0000000000
      5235      1716  TIP3      H2             23.8860225200      -17.7323554445      -12.3856236602  SOLV      1705            0.0000000000
      5236      1717  TIP3      OH2            26.2265056026      -19.0325325314       -4.1586114634  SOLV      1706            0.0000000000
      5237      1717  TIP3      H1             26.7655859591      -19.2382148540       -3.3706807698  SOLV      1706            0.0000000000
      5238      1717  TIP3      H2             25.5305526890      -19.7215591836       -4.1324323513  SOLV      1706            0.0000000000
      5239      1718  TIP3      OH2            27.7700544855      -25.4116918306       -4.1445026243  SOLV      1707            0.0000000000
      5240      1718  TIP3      H1             27.7302593734      -24.6496797516       -3.5480641838  SOLV      1707            0.0000000000
      5241      1718  TIP3      H2             27.5573566195      -26.1748941933       -3.5712922243  SOLV      1707            0.0000000000
      5242      1719  TIP3      OH2            24.2492003201      -30.1595796686       -8.7842197530  SOLV      1708            0.0000000000
      5243      1719  TIP3      H1             24.6199076551      -29.7881421603       -7.9558134600  SOLV      1708            0.0000000000
      5244      1719  TIP3      H2             24.4445387993      -31.0902515297       -8.6538759699  SOLV      1708            0.0000000000
      5245      1720  TIP3      OH2            23.7178706934      -30.3367888165      -12.9703871783  SOLV      1709            0.0000000000
      5246      1720  TIP3      H1             24.1010013130      -30.0056563419      -13.8021035688  SOLV      1709            0.0000000000
      5247      1720  TIP3      H2             23.0628819546      -29.6469138742      -12.7909310966  SOLV      1709            0.0000000000
      5248      1721  TIP3      OH2            26.0138163515      -28.4438120778      -10.4109239434  SOLV      1710            0.0000000000
      5249      1721  TIP3      H1             25.2552349812      -27.9698372085      -10.8276355441  SOLV      1710            0.0000000000
      5250      1721  TIP3      H2             25.5386318599      -29.1802660554      -10.0160402278  SOLV      1710            0.0000000000
      5251      1722  TIP3      OH2            27.9939574845      -19.9560160091       -2.0829386082  SOLV      1711            0.0000000000
      5252      1722  TIP3      H1             28.8195297150      -19.7722363617       -1.6169366357  SOLV      1711            0.0000000000
      5253      1722  TIP3      H2             27.3432505003      -19.9134440502       -1.3518904678  SOLV      1711            0.0000000000
      5254      1723  TIP3      OH2            26.3862348662      -23.0151476947       -9.0402943077  SOLV      1712            0.0000000000
      5255      1723  TIP3      H1             27.1447447075      -22.4630397181       -9.2958253683  SOLV      1712            0.0000000000
      5256      1723  TIP3      H2             26.7051470475      -23.3371462652       -8.1812251935  SOLV      1712            0.0000000000
      5257      1724  TIP3      OH2            25.3406360798      -23.1252666260       -2.7804523340  SOLV      1713            0.0000000000
      5258      1724  TIP3      H1             25.4102348106      -23.3513324151       -1.8330545093  SOLV      1713            0.0000000000
      5259      1724  TIP3      H2             24.6760513048      -23.7753409680       -3.0815761326  SOLV      1713            0.0000000000
      5260      1725  TIP3      OH2            27.1022675081      -19.3237287648      -12.8483607462  SOLV      1714            0.0000000000
      5261      1725  TIP3      H1             26.9164068101      -18.4558506430      -13.2558733943  SOLV      1714            0.0000000000
      5262      1725  TIP3      H2             26.2524766989      -19.5346949587      -12.4482111407  SOLV      1714            0.0000000000
      5263      1726  TIP3      OH2            23.2600125519      -26.2274890927      -15.8071260077  SOLV      1715            0.0000000000
      5264      1726  TIP3      H1             23.8061166917      -25.4568003716      -15.5416598035  SOLV      1715            0.0000000000
      5265      1726  TIP3      H2             22.5943222250      -26.2417204045      -15.0919746180  SOLV      1715            0.0000000000
      5266      1727  TIP3      OH2            26.5104091268      -16.8448755476      -14.2769688720  SOLV      1716            0.0000000000
      5267      1727  TIP3      H1             25.6363678683      -16.8848639624      -13.8340722011  SOLV      1716            0.0000000000
      5268      1727  TIP3      H2             26.5353772469      -15.8959561054      -14.5050534845  SOLV      1716            0.0000000000
      5269      1728  TIP3      OH2            27.4531093012      -27.7077531179       -2.4992344207  SOLV      1717            0.0000000000
      5270      1728  TIP3      H1             26.5157797571      -27.8818601437       -2.7203420143  SOLV      1717            0.0000000000
      5271      1728  TIP3      H2             27.8168390012      -28.6024836834       -2.5287325924  SOLV      1717            0.0000000000
      5272      1729  TIP3      OH2            24.7044419953      -17.1922783884       -6.4941851018  SOLV      1718            0.0000000000
      5273      1729  TIP3      H1             25.3122325098      -17.8530672777       -6.1261813648  SOLV      1718            0.0000000000
      5274      1729  TIP3      H2             24.9723761585      -16.4038029028       -6.0038235740  SOLV      1718            0.0000000000
      5275      1730  TIP3      OH2            24.5163807042      -23.8677184106      -14.9726728438  SOLV      1719            0.0000000000
      5276      1730  TIP3      H1             23.9486663958      -23.4733466347      -14.2815801284  SOLV      1719            0.0000000000
      5277      1730  TIP3      H2             24.6158405798      -23.1130208013      -15.5796377130  SOLV      1719            0.0000000000
      5278      1731  TIP3      OH2            24.5228966898      -21.7155665431      -16.8235185107  SOLV      1720            0.0000000000
      5279      1731  TIP3      H1             24.7245961058      -20.7684642636      -16.8356248189  SOLV      1720            0.0000000000
      5280      1731  TIP3      H2             25.2312053218      -22.0682794753      -17.3847981683  SOLV      1720            0.0000000000
      5281      1732  TIP3      OH2            23.9618189070      -28.9141958556      -15.4572587166  SOLV      1721            0.0000000000
      5282      1732  TIP3      H1             23.8629713821      -27.9528279604      -15.6147512033  SOLV      1721            0.0000000000
      5283      1732  TIP3      H2             23.2054259040      -29.2708706497      -15.9229520183  SOLV      1721            0.0000000000
      5284      1733  TIP3      OH2            23.0759576474      -19.6020431431      -12.9594871689  SOLV      1722            0.0000000000
      5285      1733  TIP3      H1             22.4483998871      -19.3231120022      -12.2834361574  SOLV      1722            0.0000000000
      5286      1733  TIP3      H2             22.7496326782      -19.1223989370      -13.7514317540  SOLV      1722            0.0000000000
      5287      1734  TIP3      OH2            24.7048958503      -14.0861664587       -2.2713857801  SOLV      1723            0.0000000000
      5288      1734  TIP3      H1             25.5409472030      -14.0407238528       -1.7531975426  SOLV      1723            0.0000000000
      5289      1734  TIP3      H2             24.5341911834      -15.0426204770       -2.2565978367  SOLV      1723            0.0000000000
      5290      1735  TIP3      OH2            29.3208827733      -14.5156605721       -1.5130321260  SOLV      1724            0.0000000000
      5291      1735  TIP3      H1             30.2635501187      -14.2945051080       -1.5602608697  SOLV      1724            0.0000000000
      5292      1735  TIP3      H2             29.0959202939      -14.7609819337       -2.4308281040  SOLV      1724            0.0000000000
      5293      1736  TIP3      OH2            25.9687717660      -20.0552844608       -0.2211498169  SOLV      1725            0.0000000000
      5294      1736  TIP3      H1             26.1730857573      -21.0140355160       -0.1878529514  SOLV      1725            0.0000000000
      5295      1736  TIP3      H2             25.1072346775      -20.0503661985       -0.6904550915  SOLV      1725            0.0000000000
      5296      1737  TIP3      OH2            27.1071129643      -22.6109070979       -0.3035182222  SOLV      1726            0.0000000000
      5297      1737  TIP3      H1             27.6854560705      -23.3380219220       -0.5581093206  SOLV      1726            0.0000000000
      5298      1737  TIP3      H2             27.4662474022      -22.3640538350        0.5751019636  SOLV      1726            0.0000000000
      5299      1738  TIP3      OH2            21.7969528061      -22.0027671335      -16.4289048685  SOLV      1727            0.0000000000
      5300      1738  TIP3      H1             22.7593930334      -21.8970412423      -16.5746973204  SOLV      1727            0.0000000000
      5301      1738  TIP3      H2             21.6476043709      -22.8988697545      -16.8094511495  SOLV      1727            0.0000000000
      5302      1739  TIP3      OH2            20.9288189123      -16.0689662812      -12.2666821117  SOLV      1728            0.0000000000
      5303      1739  TIP3      H1             20.2630473095      -16.6665324057      -12.6707088049  SOLV      1728            0.0000000000
      5304      1739  TIP3      H2             21.3708816521      -16.6800652984      -11.6419048577  SOLV      1728            0.0000000000
      5305      1740  TIP3      OH2            22.2940542410      -17.6629845747      -10.4454797817  SOLV      1729            0.0000000000
      5306      1740  TIP3      H1             22.1497573028      -18.3056395710       -9.7300932928  SOLV      1729            0.0000000000
      5307      1740  TIP3      H2             22.7933504860      -16.9821767318       -9.9546891036  SOLV      1729            0.0000000000
      5308      1741  TIP3      OH2            24.0887214202      -23.4398373609       -6.7148966283  SOLV      1730            0.0000000000
      5309      1741  TIP3      H1             24.0323631351      -23.8712098445       -7.5947907782  SOLV      1730            0.0000000000
      5310      1741  TIP3      H2             25.0643248163      -23.3995500044       -6.5920759002  SOLV      1730            0.0000000000
      5311      1742  TIP3      OH2            26.3624270832      -26.4254785604       -0.0064214183  SOLV      1731            0.0000000000
      5312      1742  TIP3      H1             26.9930595077      -26.8291706056       -0.6252656133  SOLV      1731            0.0000000000
      5313      1742  TIP3      H2             26.4423080033      -27.0599251781        0.7332636010  SOLV      1731            0.0000000000
      5314      1743  TIP3      OH2            25.9609423353      -29.7199698309       -6.5753165671  SOLV      1732            0.0000000000
      5315      1743  TIP3      H1             26.1260949954      -30.4553820089       -5.9570617095  SOLV      1732            0.0000000000
      5316      1743  TIP3      H2             26.8295321112      -29.3054897071       -6.6194657964  SOLV      1732            0.0000000000
      5317      1744  TIP3      OH2            23.7859880960      -26.7652519169       -6.1865995716  SOLV      1733            0.0000000000
      5318      1744  TIP3      H1             24.3922503763      -26.9708403365       -6.9256701421  SOLV      1733            0.0000000000
      5319      1744  TIP3      H2             24.3207141017      -26.1546418563       -5.6758135719  SOLV      1733            0.0000000000
      5320      1745  TIP3      OH2            26.2951507807      -16.8665953517       -1.7878598016  SOLV      1734            0.0000000000
      5321      1745  TIP3      H1             25.3869123424      -17.0984155739       -2.0574207678  SOLV      1734            0.0000000000
      5322      1745  TIP3      H2             26.2760203459      -17.0611486180       -0.8407695363  SOLV      1734            0.0000000000
      5323      1746  TIP3      OH2            27.7703029152      -16.7798914153       -6.5203097034  SOLV      1735            0.0000000000
      5324      1746  TIP3      H1             27.3872738832      -15.9924840695       -6.9564272809  SOLV      1735            0.0000000000
      5325      1746  TIP3      H2             28.7097876282      -16.6082909248       -6.7371790777  SOLV      1735            0.0000000000
      5326      1747  TIP3      OH2            24.9008836812      -13.9919702603       -6.2855795238  SOLV      1736            0.0000000000
      5327      1747  TIP3      H1             24.0055377278      -13.6530974274       -6.5209733504  SOLV      1736            0.0000000000
      5328      1747  TIP3      H2             25.0969940586      -13.4388682692       -5.5229879401  SOLV      1736            0.0000000000
      5329      1748  TIP3      OH2            27.2616755537      -14.3247590203       -7.6517136272  SOLV      1737            0.0000000000
      5330      1748  TIP3      H1             26.3790457441      -14.1333455077       -7.2668364164  SOLV      1737            0.0000000000
      5331      1748  TIP3      H2             27.1430880307      -13.9692618856       -8.5641640117  SOLV      1737            0.0000000000
      5332      1749  TIP3      OH2            24.0010929351      -16.0018775124       -8.9238890734  SOLV      1738            0.0000000000
      5333      1749  TIP3      H1             24.2418601039      -16.3031462809       -8.0202892297  SOLV      1738            0.0000000000
      5334      1749  TIP3      H2             24.7870211443      -16.3306778559       -9.4137694369  SOLV      1738            0.0000000000
      5335      1750  TIP3      OH2            26.0366915293      -17.1860212350      -10.3107808599  SOLV      1739            0.0000000000
      5336      1750  TIP3      H1             26.0372008741      -18.0625129186       -9.8579062050  SOLV      1739            0.0000000000
      5337      1750  TIP3      H2             26.9731068446      -16.9518301494      -10.2113564992  SOLV      1739            0.0000000000
      5338      1751  TIP3      OH2            21.9032248387      -18.2182374631      -15.0076922096  SOLV      1740            0.0000000000
      5339      1751  TIP3      H1             21.0409029876      -18.5275175991      -15.3450031832  SOLV      1740            0.0000000000
      5340      1751  TIP3      H2             21.8398292963      -17.2779687024      -15.2618199795  SOLV      1740            0.0000000000
      5341      1752  TIP3      OH2            22.5089375835      -18.0435511005      -18.5483524072  SOLV      1741            0.0000000000
      5342      1752  TIP3      H1             22.5787262205      -17.7524294360      -17.6290300388  SOLV      1741            0.0000000000
      5343      1752  TIP3      H2             23.3626623723      -18.5197922773      -18.6799717956  SOLV      1741            0.0000000000
      5344      1753  TIP3      OH2           -23.7079239259      -12.1289621895       -1.8564849735  SOLV      1742            0.0000000000
      5345      1753  TIP3      H1            -24.0217831796      -11.2279548626       -2.0816065335  SOLV      1742            0.0000000000
      5346      1753  TIP3      H2            -24.4692258858      -12.6548260223       -2.1537297730  SOLV      1742            0.0000000000
      5347      1754  TIP3      OH2           -30.7081897595      -13.2027006732        5.5831497186  SOLV      1743            0.0000000000
      5348      1754  TIP3      H1            -30.3682709044      -13.5677693398        6.4048561719  SOLV      1743            0.0000000000
      5349      1754  TIP3      H2            -29.9501456959      -12.7073339338        5.2366281819  SOLV      1743            0.0000000000
      5350      1755  TIP3      OH2           -21.2764211746       -9.1414202610       -1.0872697655  SOLV      1744            0.0000000000
      5351      1755  TIP3      H1            -21.3648068249       -9.8346265932       -0.4141649450  SOLV      1744            0.0000000000
      5352      1755  TIP3      H2            -20.9391909836       -8.3967976634       -0.5619576057  SOLV      1744            0.0000000000
      5353      1756  TIP3      OH2           -31.0488738427       -9.0761584712        2.9859679941  SOLV      1745            0.0000000000
      5354      1756  TIP3      H1            -31.1146737978      -10.0553236308        2.9281858079  SOLV      1745            0.0000000000
      5355      1756  TIP3      H2            -30.0841195691       -8.9742510703        2.8771380700  SOLV      1745            0.0000000000
      5356      1757  TIP3      OH2           -34.0243923439      -17.0465003682        0.7374650461  SOLV      1746            0.0000000000
      5357      1757  TIP3      H1            -34.3121474062      -16.1506620680        0.9834034786  SOLV      1746            0.0000000000
      5358      1757  TIP3      H2            -34.6966815899      -17.5531185502        1.1993627095  SOLV      1746            0.0000000000
      5359      1758  TIP3      OH2           -33.2440543763      -14.1679369195        2.5547216561  SOLV      1747            0.0000000000
      5360      1758  TIP3      H1            -32.7714962196      -14.9583421685        2.8860681282  SOLV      1747            0.0000000000
      5361      1758  TIP3      H2            -32.7037718901      -13.8893080437        1.8086233204  SOLV      1747            0.0000000000
      5362      1759  TIP3      OH2           -24.7350540025       -4.5134213368       -0.9692596803  SOLV      1748            0.0000000000
      5363      1759  TIP3      H1            -24.3351117878       -5.2233735062       -1.5142862642  SOLV      1748            0.0000000000
      5364      1759  TIP3      H2            -24.8619678699       -4.9611861813       -0.1274035011  SOLV      1748            0.0000000000
      5365      1760  TIP3      OH2           -25.9616609520       -9.9849375163        2.5458284355  SOLV      1749            0.0000000000
      5366      1760  TIP3      H1            -25.7304944271      -10.5147985915        1.7769921713  SOLV      1749            0.0000000000
      5367      1760  TIP3      H2            -25.1067556975      -10.0539642347        3.0339314704  SOLV      1749            0.0000000000
      5368      1761  TIP3      OH2           -15.5621672688      -16.7052003083        2.5031182407  SOLV      1750            0.0000000000
      5369      1761  TIP3      H1            -15.2919322300      -15.8662786061        2.9288164058  SOLV      1750            0.0000000000
      5370      1761  TIP3      H2            -15.3870082473      -16.5062163681        1.5670241570  SOLV      1750            0.0000000000
      5371      1762  TIP3      OH2           -21.3734750812      -14.8926431597        2.7324978259  SOLV      1751            0.0000000000
      5372      1762  TIP3      H1            -21.0527984076      -15.7842804196        2.9486477336  SOLV      1751            0.0000000000
      5373      1762  TIP3      H2            -21.9203633613      -15.0614726964        1.9494287468  SOLV      1751            0.0000000000
      5374      1763  TIP3      OH2           -28.2263158197      -18.2630383111        2.4820952377  SOLV      1752            0.0000000000
      5375      1763  TIP3      H1            -28.3756207426      -17.5190245218        1.8613010875  SOLV      1752            0.0000000000
      5376      1763  TIP3      H2            -28.6931352585      -18.9753289748        1.9958333454  SOLV      1752            0.0000000000
      5377      1764  TIP3      OH2           -21.2628171264      -17.3597185236       -1.3253913438  SOLV      1753            0.0000000000
      5378      1764  TIP3      H1            -20.5462398659      -17.4824777673       -0.6591632532  SOLV      1753            0.0000000000
      5379      1764  TIP3      H2            -20.7457398900      -17.0001530296       -2.0683816041  SOLV      1753            0.0000000000
      5380      1765  TIP3      OH2           -31.9066400199      -16.3414339499        3.5781306487  SOLV      1754            0.0000000000
      5381      1765  TIP3      H1            -31.0681362512      -16.5255446972        4.0421281334  SOLV      1754            0.0000000000
      5382      1765  TIP3      H2            -31.7751859711      -16.8791468949        2.7700604935  SOLV      1754            0.0000000000
      5383      1766  TIP3      OH2           -27.4989421838      -14.3164080505        1.5113566348  SOLV      1755            0.0000000000
      5384      1766  TIP3      H1            -26.5613415132      -14.5999297833        1.6083142392  SOLV      1755            0.0000000000
      5385      1766  TIP3      H2            -27.9054991398      -15.1416047907        1.1696482027  SOLV      1755            0.0000000000
      5386      1767  TIP3      OH2           -14.8531974183      -14.6068078389        4.2082199404  SOLV      1756            0.0000000000
      5387      1767  TIP3      H1            -15.6984403320      -14.1387568098        4.0329301025  SOLV      1756            0.0000000000
      5388      1767  TIP3      H2            -14.5773146224      -14.1872079001        5.0401153585  SOLV      1756            0.0000000000
      5389      1768  TIP3      OH2           -28.2616982345      -18.4733818872        6.7870583187  SOLV      1757            0.0000000000
      5390      1768  TIP3      H1            -28.8577651689      -18.1058525571        6.1065823547  SOLV      1757            0.0000000000
      5391      1768  TIP3      H2            -28.8001200337      -18.3511437587        7.5949089987  SOLV      1757            0.0000000000
      5392      1769  TIP3      OH2           -24.9084890913       -9.9716214752       -3.1209162597  SOLV      1758            0.0000000000
      5393      1769  TIP3      H1            -25.2370442671      -10.0778268369       -4.0227053517  SOLV      1758            0.0000000000
      5394      1769  TIP3      H2            -25.3424531889       -9.1344337307       -2.8557001540  SOLV      1758            0.0000000000
      5395      1770  TIP3      OH2           -27.3834229291      -10.8884911771        4.9469871133  SOLV      1759            0.0000000000
      5396      1770  TIP3      H1            -27.8824573925      -10.0824459077        5.2009762036  SOLV      1759            0.0000000000
      5397      1770  TIP3      H2            -26.6628119918      -10.5105886936        4.4139463928  SOLV      1759            0.0000000000
      5398      1771  TIP3      OH2           -19.2622750439      -17.3041851852        0.5168667641  SOLV      1760            0.0000000000
      5399      1771  TIP3      H1            -19.5046176818      -17.6461269216        1.3865748276  SOLV      1760            0.0000000000
      5400      1771  TIP3      H2            -18.7372148951      -16.5113780650        0.7517961053  SOLV      1760            0.0000000000
      5401      1772  TIP3      OH2           -29.5474092404      -17.2973993481        4.6654232348  SOLV      1761            0.0000000000
      5402      1772  TIP3      H1            -28.9189892407      -16.5738265303        4.8824137926  SOLV      1761            0.0000000000
      5403      1772  TIP3      H2            -29.0696134481      -17.7115246733        3.9073304943  SOLV      1761            0.0000000000
      5404      1773  TIP3      OH2           -28.8334816769       -8.6933047264        5.7642031107  SOLV      1762            0.0000000000
      5405      1773  TIP3      H1            -28.9917605713       -7.7814668748        5.4422994653  SOLV      1762            0.0000000000
      5406      1773  TIP3      H2            -29.6499534231       -8.8291018689        6.2965979775  SOLV      1762            0.0000000000
      5407      1774  TIP3      OH2           -35.0077610825      -11.9207273231       -2.1266191275  SOLV      1763            0.0000000000
      5408      1774  TIP3      H1            -35.9617391195      -11.8165034957       -2.1030949520  SOLV      1763            0.0000000000
      5409      1774  TIP3      H2            -34.7225352401      -11.0688225698       -1.7205179664  SOLV      1763            0.0000000000
      5410      1775  TIP3      OH2           -20.6166201517       -6.6602334891        0.4431711684  SOLV      1764            0.0000000000
      5411      1775  TIP3      H1            -21.4921446250       -6.7605838749        0.8819099963  SOLV      1764            0.0000000000
      5412      1775  TIP3      H2            -20.7180246818       -5.7899120457        0.0118248678  SOLV      1764            0.0000000000
      5413      1776  TIP3      OH2           -17.6399594516      -17.7602358870        4.1293518220  SOLV      1765            0.0000000000
      5414      1776  TIP3      H1            -18.5095890752      -17.4593055784        3.8208885391  SOLV      1765            0.0000000000
      5415      1776  TIP3      H2            -17.0396522929      -17.4075564493        3.4387920882  SOLV      1765            0.0000000000
      5416      1777  TIP3      OH2           -24.7235459390      -21.3421244266        3.9674415030  SOLV      1766            0.0000000000
      5417      1777  TIP3      H1            -24.9081431302      -22.2800151749        4.1649075247  SOLV      1766            0.0000000000
      5418      1777  TIP3      H2            -25.4787542929      -20.9114524931        4.4252239727  SOLV      1766            0.0000000000
      5419      1778  TIP3      OH2           -23.6454910392       -6.2200546038       -2.8474053108  SOLV      1767            0.0000000000
      5420      1778  TIP3      H1            -23.1268614030       -7.0469891632       -3.0024805904  SOLV      1767            0.0000000000
      5421      1778  TIP3      H2            -23.0165238950       -5.5661377214       -3.2257962737  SOLV      1767            0.0000000000
      5422      1779  TIP3      OH2           -22.1934835615       -8.3924560882       -3.5924675884  SOLV      1768            0.0000000000
      5423      1779  TIP3      H1            -22.4637145050       -9.2221436721       -4.0069193099  SOLV      1768            0.0000000000
      5424      1779  TIP3      H2            -21.8005535259       -8.7154273699       -2.7502733099  SOLV      1768            0.0000000000
      5425      1780  TIP3      OH2           -18.4011783804       -7.5264665413        3.9177259997  SOLV      1769            0.0000000000
      5426      1780  TIP3      H1            -18.4887438880       -8.3544358916        3.3943972833  SOLV      1769            0.0000000000
      5427      1780  TIP3      H2            -18.4966627777       -6.8463690008        3.2261380742  SOLV      1769            0.0000000000
      5428      1781  TIP3      OH2           -25.4413454964      -13.6345394104       -3.4632717502  SOLV      1770            0.0000000000
      5429      1781  TIP3      H1            -26.2243912044      -13.1009267660       -3.6990740013  SOLV      1770            0.0000000000
      5430      1781  TIP3      H2            -24.9549426780      -13.6669323470       -4.3084977378  SOLV      1770            0.0000000000
      5431      1782  TIP3      OH2           -25.8446060384      -15.7409200123       -6.3464433117  SOLV      1771            0.0000000000
      5432      1782  TIP3      H1            -25.1501920608      -15.2429564115       -5.8774613143  SOLV      1771            0.0000000000
      5433      1782  TIP3      H2            -25.2947719661      -16.3856946707       -6.8357729338  SOLV      1771            0.0000000000
      5434      1783  TIP3      OH2           -16.4088537362      -11.2097925944        2.4023152277  SOLV      1772            0.0000000000
      5435      1783  TIP3      H1            -17.2295193850      -10.6709567530        2.4512443892  SOLV      1772            0.0000000000
      5436      1783  TIP3      H2            -16.0912264272      -10.9525480738        1.5108345382  SOLV      1772            0.0000000000
      5437      1784  TIP3      OH2           -21.9258503888      -12.7896439658       -3.8094939894  SOLV      1773            0.0000000000
      5438      1784  TIP3      H1            -22.4636674449      -12.5453969238       -3.0192654595  SOLV      1773            0.0000000000
      5439      1784  TIP3      H2            -21.0858367181      -13.0490858780       -3.3742943037  SOLV      1773            0.0000000000
      5440      1785  TIP3      OH2           -19.6498165559      -12.4802388923        5.3311718482  SOLV      1774            0.0000000000
      5441      1785  TIP3      H1            -19.7236351548      -11.6302507749        5.8004316717  SOLV      1774            0.0000000000
      5442      1785  TIP3      H2            -20.4203643350      -12.4169429486        4.7392488059  SOLV      1774            0.0000000000
      5443      1786  TIP3      OH2           -29.5980597444      -12.8649968219        0.4088976117  SOLV      1775            0.0000000000
      5444      1786  TIP3      H1            -29.9854919396      -13.4526918952       -0.2741890635  SOLV      1775            0.0000000000
      5445      1786  TIP3      H2            -28.8264818617      -13.3873770033        0.7155709837  SOLV      1775            0.0000000000
      5446      1787  TIP3      OH2           -28.3978281387       -8.6417157147        1.8608819623  SOLV      1776            0.0000000000
      5447      1787  TIP3      H1            -28.4849174052       -9.0353193892        0.9806845804  SOLV      1776            0.0000000000
      5448      1787  TIP3      H2            -27.5436545187       -9.0181678427        2.1687851562  SOLV      1776            0.0000000000
      5449      1788  TIP3      OH2           -28.3251456326      -13.1959099957        3.9280830393  SOLV      1777            0.0000000000
      5450      1788  TIP3      H1            -27.9421068415      -13.3956768688        3.0461186263  SOLV      1777            0.0000000000
      5451      1788  TIP3      H2            -27.8757374753      -12.3480847112        4.1630686238  SOLV      1777            0.0000000000
      5452      1789  TIP3      OH2           -22.9530780269       -6.7015652710        1.8265457670  SOLV      1778            0.0000000000
      5453      1789  TIP3      H1            -23.0678913068       -5.9121519929        2.3887600227  SOLV      1778            0.0000000000
      5454      1789  TIP3      H2            -23.2112622023       -7.4246232430        2.4106247591  SOLV      1778            0.0000000000
      5455      1790  TIP3      OH2           -26.8265309054       -7.5943163936        7.2868778313  SOLV      1779            0.0000000000
      5456      1790  TIP3      H1            -27.4369477583       -6.9547096257        7.7138595844  SOLV      1779            0.0000000000
      5457      1790  TIP3      H2            -27.4631202722       -8.1119517488        6.7527333824  SOLV      1779            0.0000000000
      5458      1791  TIP3      OH2           -23.5912382598      -14.1898627436       -5.4847885284  SOLV      1780            0.0000000000
      5459      1791  TIP3      H1            -22.9692349368      -13.6087235080       -4.9889343020  SOLV      1780            0.0000000000
      5460      1791  TIP3      H2            -23.3213066608      -13.9876478191       -6.4145098359  SOLV      1780            0.0000000000
      5461      1792  TIP3      OH2           -26.0965483491       -7.4560992220       -2.7763551623  SOLV      1781            0.0000000000
      5462      1792  TIP3      H1            -25.2585477970       -6.9670544177       -2.7042894834  SOLV      1781            0.0000000000
      5463      1792  TIP3      H2            -26.6813378072       -6.8087559523       -3.1933786485  SOLV      1781            0.0000000000
      5464      1793  TIP3      OH2           -28.8530926995       -5.9252944021        8.1181834219  SOLV      1782            0.0000000000
      5465      1793  TIP3      H1            -29.1687738510       -5.8709621797        7.1947658518  SOLV      1782            0.0000000000
      5466      1793  TIP3      H2            -29.5953054174       -6.3670290469        8.5786606345  SOLV      1782            0.0000000000
      5467      1794  TIP3      OH2           -18.3698558510      -21.8569314363       -4.9899870125  SOLV      1783            0.0000000000
      5468      1794  TIP3      H1            -19.1931052092      -21.6287881944       -4.5120922840  SOLV      1783            0.0000000000
      5469      1794  TIP3      H2            -18.2271310792      -21.0416466344       -5.5154197111  SOLV      1783            0.0000000000
      5470      1795  TIP3      OH2           -30.9031714883      -14.4094713122       -1.5852098494  SOLV      1784            0.0000000000
      5471      1795  TIP3      H1            -31.5892238591      -13.9564607041       -2.1221772779  SOLV      1784            0.0000000000
      5472      1795  TIP3      H2            -31.3206339998      -15.2582241402       -1.4103831217  SOLV      1784            0.0000000000
      5473      1796  TIP3      OH2           -20.3661944676       -8.1593263041       -9.5021722475  SOLV      1785            0.0000000000
      5474      1796  TIP3      H1            -20.2805459938       -7.1958159054       -9.6718776211  SOLV      1785            0.0000000000
      5475      1796  TIP3      H2            -19.4435774640       -8.4598847774       -9.6549921370  SOLV      1785            0.0000000000
      5476      1797  TIP3      OH2           -32.6200900671      -10.9988690746        6.9351600373  SOLV      1786            0.0000000000
      5477      1797  TIP3      H1            -32.9730962970      -11.5770077913        6.2554492757  SOLV      1786            0.0000000000
      5478      1797  TIP3      H2            -32.3571171514      -11.6406629103        7.6148506749  SOLV      1786            0.0000000000
      5479      1798  TIP3      OH2           -34.0439376911       -8.6704898473        4.0535043052  SOLV      1787            0.0000000000
      5480      1798  TIP3      H1            -33.0952386374       -8.7432782742        3.8543765549  SOLV      1787            0.0000000000
      5481      1798  TIP3      H2            -34.0414824580       -8.1770675437        4.8939099190  SOLV      1787            0.0000000000
      5482      1799  TIP3      OH2           -16.2085093954       -3.9880192220        4.5066319188  SOLV      1788            0.0000000000
      5483      1799  TIP3      H1            -15.6387316312       -4.7167268748        4.1833366364  SOLV      1788            0.0000000000
      5484      1799  TIP3      H2            -16.5188802653       -4.4050080898        5.3186336554  SOLV      1788            0.0000000000
      5485      1800  TIP3      OH2           -25.2045484014       -6.2026860174        5.5410720190  SOLV      1789            0.0000000000
      5486      1800  TIP3      H1            -25.1382876197       -5.3168601990        5.9552318869  SOLV      1789            0.0000000000
      5487      1800  TIP3      H2            -25.7283362523       -6.6835265396        6.2142600738  SOLV      1789            0.0000000000
      5488      1801  TIP3      OH2           -27.2694466631       -5.0252408693       -4.7063374400  SOLV      1790            0.0000000000
      5489      1801  TIP3      H1            -27.7262479548       -5.1963510433       -5.5490479446  SOLV      1790            0.0000000000
      5490      1801  TIP3      H2            -27.5964165493       -4.1417370906       -4.4608787578  SOLV      1790            0.0000000000
      5491      1802  TIP3      OH2           -32.7293162697       -6.6990611297       -0.9385654249  SOLV      1791            0.0000000000
      5492      1802  TIP3      H1            -32.2382285293       -6.7906481225       -0.0855352962  SOLV      1791            0.0000000000
      5493      1802  TIP3      H2            -33.6401332661       -6.8757080965       -0.6368454838  SOLV      1791            0.0000000000
      5494      1803  TIP3      OH2           -25.2804238043       -5.9608702567       -8.3444876406  SOLV      1792            0.0000000000
      5495      1803  TIP3      H1            -24.7087940418       -6.6765267694       -8.7049991939  SOLV      1792            0.0000000000
      5496      1803  TIP3      H2            -24.9122481497       -5.8583932505       -7.4416209561  SOLV      1792            0.0000000000
      5497      1804  TIP3      OH2           -24.7473782127       -5.4601148498       -5.6541635776  SOLV      1793            0.0000000000
      5498      1804  TIP3      H1            -25.6261790385       -5.3925869264       -5.2186143294  SOLV      1793            0.0000000000
      5499      1804  TIP3      H2            -24.2162822609       -5.8482668486       -4.9401959087  SOLV      1793            0.0000000000
      5500      1805  TIP3      OH2           -17.1034797705      -12.8464940635        7.2084881286  SOLV      1794            0.0000000000
      5501      1805  TIP3      H1            -17.9254450268      -12.7118880305        6.7146196257  SOLV      1794            0.0000000000
      5502      1805  TIP3      H2            -16.9525730563      -13.8064172637        7.0910287422  SOLV      1794            0.0000000000
      5503      1806  TIP3      OH2           -31.0458939493       -8.7414524741        7.3159517726  SOLV      1795            0.0000000000
      5504      1806  TIP3      H1            -30.6774290014       -8.8902549810        8.2053945668  SOLV      1795            0.0000000000
      5505      1806  TIP3      H2            -31.7139432781       -9.4613376533        7.2492976795  SOLV      1795            0.0000000000
      5506      1807  TIP3      OH2           -27.0242274420      -20.5076077617        5.3044283747  SOLV      1796            0.0000000000
      5507      1807  TIP3      H1            -27.9218395890      -20.8297643921        5.0732248260  SOLV      1796            0.0000000000
      5508      1807  TIP3      H2            -27.2732842095      -19.6673813262        5.7366521195  SOLV      1796            0.0000000000
      5509      1808  TIP3      OH2           -21.6855073815      -19.3772029442        7.2230814009  SOLV      1797            0.0000000000
      5510      1808  TIP3      H1            -20.9864451564      -19.5986260849        7.8707440584  SOLV      1797            0.0000000000
      5511      1808  TIP3      H2            -22.5075757977      -19.5619172708        7.7198473315  SOLV      1797            0.0000000000
      5512      1809  TIP3      OH2           -19.4425083833      -15.1112362157        6.3527006947  SOLV      1798            0.0000000000
      5513      1809  TIP3      H1            -19.8693825608      -15.0729577321        7.2395326985  SOLV      1798            0.0000000000
      5514      1809  TIP3      H2            -19.6703169535      -14.2426584107        5.9661286119  SOLV      1798            0.0000000000
      5515      1810  TIP3      OH2           -22.7691909464      -13.7791442321       -8.0142438507  SOLV      1799            0.0000000000
      5516      1810  TIP3      H1            -23.1268923538      -14.0205501682       -8.8905482243  SOLV      1799            0.0000000000
      5517      1810  TIP3      H2            -21.9106716664      -13.3873174533       -8.2711153432  SOLV      1799            0.0000000000
      5518      1811  TIP3      OH2           -25.6605931375      -19.9272436686       -5.0415622735  SOLV      1800            0.0000000000
      5519      1811  TIP3      H1            -25.9774032638      -19.9780928598       -4.1184589153  SOLV      1800            0.0000000000
      5520      1811  TIP3      H2            -25.9159913355      -20.8146136194       -5.3576482454  SOLV      1800            0.0000000000
      5521      1812  TIP3      OH2           -27.8759832624      -15.2896323163        5.5450068246  SOLV      1801            0.0000000000
      5522      1812  TIP3      H1            -28.2962780983      -14.9203243386        6.3300021752  SOLV      1801            0.0000000000
      5523      1812  TIP3      H2            -28.0017160575      -14.5611008768        4.8906836174  SOLV      1801            0.0000000000
      5524      1813  TIP3      OH2           -28.9532399449      -16.4594220630        0.6001713136  SOLV      1802            0.0000000000
      5525      1813  TIP3      H1            -29.8766541332      -16.7407440643        0.7732748305  SOLV      1802            0.0000000000
      5526      1813  TIP3      H2            -28.8142165452      -16.8685375879       -0.2847296046  SOLV      1802            0.0000000000
      5527      1814  TIP3      OH2           -24.0810142317      -15.6544196549       -2.1337798559  SOLV      1803            0.0000000000
      5528      1814  TIP3      H1            -24.5733628355      -14.9328403818       -2.5819998654  SOLV      1803            0.0000000000
      5529      1814  TIP3      H2            -23.5002132594      -15.9745545168       -2.8523544365  SOLV      1803            0.0000000000
      5530      1815  TIP3      OH2           -22.3244905356      -12.7323709983        8.8588632392  SOLV      1804            0.0000000000
      5531      1815  TIP3      H1            -22.5213324176      -13.5662034908        9.3295347492  SOLV      1804            0.0000000000
      5532      1815  TIP3      H2            -21.3655082982      -12.6607253140        9.0044637763  SOLV      1804            0.0000000000
      5533      1816  TIP3      OH2           -22.5987674695      -15.3913341961        0.2747228204  SOLV      1805            0.0000000000
      5534      1816  TIP3      H1            -23.1549312541      -15.0867023144       -0.4703883068  SOLV      1805            0.0000000000
      5535      1816  TIP3      H2            -22.1901492917      -16.1655957048       -0.1624017222  SOLV      1805            0.0000000000
      5536      1817  TIP3      OH2           -29.2635740469      -14.6068902685        8.1276550065  SOLV      1806            0.0000000000
      5537      1817  TIP3      H1            -30.1560345538      -14.3075591784        8.3789564005  SOLV      1806            0.0000000000
      5538      1817  TIP3      H2            -29.3531870844      -15.5780759817        8.2757249875  SOLV      1806            0.0000000000
      5539      1818  TIP3      OH2           -28.9773296035      -20.3168972798       -5.2971926123  SOLV      1807            0.0000000000
      5540      1818  TIP3      H1            -29.0786553224      -20.2905334683       -4.3209941660  SOLV      1807            0.0000000000
      5541      1818  TIP3      H2            -29.8334356060      -19.9847997430       -5.5878611374  SOLV      1807            0.0000000000
      5542      1819  TIP3      OH2           -33.9203508034      -19.7334526621        3.3371262556  SOLV      1808            0.0000000000
      5543      1819  TIP3      H1            -33.2031353344      -19.4715094313        3.9524640063  SOLV      1808            0.0000000000
      5544      1819  TIP3      H2            -33.4364137454      -20.3101140767        2.7368134348  SOLV      1808            0.0000000000
      5545      1820  TIP3      OH2           -33.8188741309      -19.7590793640       -1.3805272082  SOLV      1809            0.0000000000
      5546      1820  TIP3      H1            -33.3965311589      -19.5647382358       -2.2320493501  SOLV      1809            0.0000000000
      5547      1820  TIP3      H2            -34.1555508521      -18.8909642380       -1.1294044236  SOLV      1809            0.0000000000
      5548      1821  TIP3      OH2           -25.6276220497      -18.3938985721        1.1629444849  SOLV      1810            0.0000000000
      5549      1821  TIP3      H1            -26.4196315593      -18.3590522673        1.7323865919  SOLV      1810            0.0000000000
      5550      1821  TIP3      H2            -24.9495766238      -18.0452079858        1.7628976442  SOLV      1810            0.0000000000
      5551      1822  TIP3      OH2           -31.3372213283      -17.6700958191        1.2052922128  SOLV      1811            0.0000000000
      5552      1822  TIP3      H1            -32.2657446644      -17.6514556097        0.8916782902  SOLV      1811            0.0000000000
      5553      1822  TIP3      H2            -31.0379160249      -18.5749533753        0.9840249341  SOLV      1811            0.0000000000
      5554      1823  TIP3      OH2           -28.6671729765      -17.7194539878       -1.7841338368  SOLV      1812            0.0000000000
      5555      1823  TIP3      H1            -27.7151602082      -17.5829021506       -1.9695884865  SOLV      1812            0.0000000000
      5556      1823  TIP3      H2            -29.0994112755      -17.5160733696       -2.6441102260  SOLV      1812            0.0000000000
      5557      1824  TIP3      OH2           -20.7599438035      -17.5728511849        3.2349629596  SOLV      1813            0.0000000000
      5558      1824  TIP3      H1            -21.0899700797      -17.3864984315        4.1410239265  SOLV      1813            0.0000000000
      5559      1824  TIP3      H2            -21.4835645828      -18.1385184408        2.9029091135  SOLV      1813            0.0000000000
      5560      1825  TIP3      OH2           -30.1680434457      -17.4323532801       -4.0484754900  SOLV      1814            0.0000000000
      5561      1825  TIP3      H1            -31.0434658134      -17.5379738936       -4.4256837251  SOLV      1814            0.0000000000
      5562      1825  TIP3      H2            -29.6533902541      -17.0525602531       -4.7971416261  SOLV      1814            0.0000000000
      5563      1826  TIP3      OH2           -29.4409975296       -9.6289142819        9.7253327248  SOLV      1815            0.0000000000
      5564      1826  TIP3      H1            -28.6272231310       -9.2941314731       10.1443635513  SOLV      1815            0.0000000000
      5565      1826  TIP3      H2            -30.1169374919       -9.2168171009       10.2827623959  SOLV      1815            0.0000000000
      5566      1827  TIP3      OH2           -24.9400397088      -15.2537151546        2.0118772614  SOLV      1816            0.0000000000
      5567      1827  TIP3      H1            -24.1481041661      -15.2231854332        1.4492807139  SOLV      1816            0.0000000000
      5568      1827  TIP3      H2            -24.5570644302      -15.1881307273        2.8969224369  SOLV      1816            0.0000000000
      5569      1828  TIP3      OH2           -29.6394161846      -19.9837500699        0.8628661599  SOLV      1817            0.0000000000
      5570      1828  TIP3      H1            -29.7340907649      -20.7953525799        1.4112295491  SOLV      1817            0.0000000000
      5571      1828  TIP3      H2            -29.2337680663      -20.3418176381        0.0621309045  SOLV      1817            0.0000000000
      5572      1829  TIP3      OH2           -25.1999420256      -16.2323034407        5.2297766874  SOLV      1818            0.0000000000
      5573      1829  TIP3      H1            -26.0401601740      -15.7489716065        5.1607304328  SOLV      1818            0.0000000000
      5574      1829  TIP3      H2            -24.6046558968      -15.5877375615        5.6599198743  SOLV      1818            0.0000000000
      5575      1830  TIP3      OH2           -27.7602832873      -12.1046275905       -4.0354244305  SOLV      1819            0.0000000000
      5576      1830  TIP3      H1            -28.4805946335      -12.7591111082       -4.1523053518  SOLV      1819            0.0000000000
      5577      1830  TIP3      H2            -27.9442246675      -11.7833258316       -3.1181144697  SOLV      1819            0.0000000000
      5578      1831  TIP3      OH2           -18.6939851482       -9.7012169968        2.2707618046  SOLV      1820            0.0000000000
      5579      1831  TIP3      H1            -18.4462648967       -9.2132934935        1.4558964441  SOLV      1820            0.0000000000
      5580      1831  TIP3      H2            -19.5409725222      -10.1263669119        2.0008822215  SOLV      1820            0.0000000000
      5581      1832  TIP3      OH2           -23.1136540888      -19.0121684763       -5.2142201561  SOLV      1821            0.0000000000
      5582      1832  TIP3      H1            -24.0868738341      -19.1661609511       -5.1875160697  SOLV      1821            0.0000000000
      5583      1832  TIP3      H2            -23.0332353880      -18.0539545861       -5.0328950207  SOLV      1821            0.0000000000
      5584      1833  TIP3      OH2           -23.4349657425       -8.4933965283        6.4696195654  SOLV      1822            0.0000000000
      5585      1833  TIP3      H1            -23.2981602156       -9.3002732572        6.0238872747  SOLV      1822            0.0000000000
      5586      1833  TIP3      H2            -24.1253150948       -8.0620721806        5.9248226726  SOLV      1822            0.0000000000
      5587      1834  TIP3      OH2           -22.4676739164      -16.4772694646       -4.2899463677  SOLV      1823            0.0000000000
      5588      1834  TIP3      H1            -21.5008393413      -16.4220966034       -4.1526702298  SOLV      1823            0.0000000000
      5589      1834  TIP3      H2            -22.6541157123      -15.6815896347       -4.8240234982  SOLV      1823            0.0000000000
      5590      1835  TIP3      OH2           -30.7480465542      -11.8096254431        2.6935255642  SOLV      1824            0.0000000000
      5591      1835  TIP3      H1            -30.3707184140      -12.0872937571        1.8332035779  SOLV      1824            0.0000000000
      5592      1835  TIP3      H2            -30.3763383863      -12.4789146970        3.2820106233  SOLV      1824            0.0000000000
      5593      1836  TIP3      OH2           -26.2500427979      -10.6068949993       -5.7474590711  SOLV      1825            0.0000000000
      5594      1836  TIP3      H1            -26.7462624432       -9.7569642676       -5.6971678228  SOLV      1825            0.0000000000
      5595      1836  TIP3      H2            -26.7888370116      -11.1728763506       -5.1516171633  SOLV      1825            0.0000000000
      5596      1837  TIP3      OH2           -31.6420482412      -13.2035016026        8.9019950331  SOLV      1826            0.0000000000
      5597      1837  TIP3      H1            -31.4823915775      -12.8366735329        9.7932615947  SOLV      1826            0.0000000000
      5598      1837  TIP3      H2            -32.5994429145      -13.3677516146        8.9140330504  SOLV      1826            0.0000000000
      5599      1838  TIP3      OH2           -22.1596397955       -5.8604052153        4.7815518736  SOLV      1827            0.0000000000
      5600      1838  TIP3      H1            -22.9731733321       -6.3334939182        5.0065897757  SOLV      1827            0.0000000000
      5601      1838  TIP3      H2            -21.8551817618       -5.6140360411        5.6832574153  SOLV      1827            0.0000000000
      5602      1839  TIP3      OH2           -18.0799899039      -15.5644674819       -5.9785691849  SOLV      1828            0.0000000000
      5603      1839  TIP3      H1            -18.6953481802      -16.0056417319       -6.6118023595  SOLV      1828            0.0000000000
      5604      1839  TIP3      H2            -18.1163656912      -14.6660080644       -6.3765233662  SOLV      1828            0.0000000000
      5605      1840  TIP3      OH2           -15.8761734538       -6.9520208328        4.8131208486  SOLV      1829            0.0000000000
      5606      1840  TIP3      H1            -16.8517791727       -7.0245045947        4.7322509422  SOLV      1829            0.0000000000
      5607      1840  TIP3      H2            -15.6118754924       -7.2900162721        3.9268215549  SOLV      1829            0.0000000000
      5608      1841  TIP3      OH2           -21.0519532934       -7.4015364227       -6.8717404045  SOLV      1830            0.0000000000
      5609      1841  TIP3      H1            -21.2770377889       -8.1197308974       -6.2655636558  SOLV      1830            0.0000000000
      5610      1841  TIP3      H2            -20.8881668728       -7.8666717100       -7.7130892535  SOLV      1830            0.0000000000
      5611      1842  TIP3      OH2           -20.9793857687      -11.0035693128        1.4429693352  SOLV      1831            0.0000000000
      5612      1842  TIP3      H1            -21.6915680909      -11.0655819122        2.1147559927  SOLV      1831            0.0000000000
      5613      1842  TIP3      H2            -20.9217416581      -11.9100949368        1.1020395944  SOLV      1831            0.0000000000
      5614      1843  TIP3      OH2           -29.7085061683       -8.8265155356       -0.9901508128  SOLV      1832            0.0000000000
      5615      1843  TIP3      H1            -29.6749888201       -8.0215893610       -1.5395514901  SOLV      1832            0.0000000000
      5616      1843  TIP3      H2            -30.6545230249       -8.9326643220       -0.8544367466  SOLV      1832            0.0000000000
      5617      1844  TIP3      OH2           -34.1884983451      -15.7361129635       -3.6558239654  SOLV      1833            0.0000000000
      5618      1844  TIP3      H1            -33.6125439253      -14.9427095229       -3.6493026783  SOLV      1833            0.0000000000
      5619      1844  TIP3      H2            -35.0034019976      -15.3711436938       -3.2986061521  SOLV      1833            0.0000000000
      5620      1845  TIP3      OH2           -28.4977157317      -11.2308902714       -1.5835686209  SOLV      1834            0.0000000000
      5621      1845  TIP3      H1            -28.7917048309      -10.3202903702       -1.3779793414  SOLV      1834            0.0000000000
      5622      1845  TIP3      H2            -28.8260656772      -11.7189981963       -0.8066224614  SOLV      1834            0.0000000000
      5623      1846  TIP3      OH2           -27.0575559360       -5.3802431111        3.6177882033  SOLV      1835            0.0000000000
      5624      1846  TIP3      H1            -26.5779392284       -4.6888588755        3.1210623361  SOLV      1835            0.0000000000
      5625      1846  TIP3      H2            -26.3346706005       -5.7595599765        4.1607990497  SOLV      1835            0.0000000000
      5626      1847  TIP3      OH2           -30.4463947560       -6.4460469540       -2.5218194915  SOLV      1836            0.0000000000
      5627      1847  TIP3      H1            -31.2947385113       -6.4307100170       -2.0376354511  SOLV      1836            0.0000000000
      5628      1847  TIP3      H2            -30.1711905786       -5.5041252345       -2.4602119359  SOLV      1836            0.0000000000
      5629      1848  TIP3      OH2           -23.4249715403      -10.0793856510       -7.8371135545  SOLV      1837            0.0000000000
      5630      1848  TIP3      H1            -22.8690959975      -10.3280275971       -7.0615104246  SOLV      1837            0.0000000000
      5631      1848  TIP3      H2            -24.2856573545      -10.4162070892       -7.5477870086  SOLV      1837            0.0000000000
      5632      1849  TIP3      OH2           -20.8856373741       -3.4881905859        4.0354936160  SOLV      1838            0.0000000000
      5633      1849  TIP3      H1            -21.4603989478       -4.2845708869        4.0751563579  SOLV      1838            0.0000000000
      5634      1849  TIP3      H2            -21.0856098837       -3.1252262728        3.1498091963  SOLV      1838            0.0000000000
      5635      1850  TIP3      OH2           -20.0720917401       -5.3842921037       -9.7054710161  SOLV      1839            0.0000000000
      5636      1850  TIP3      H1            -19.6594945180       -4.6107620167      -10.1260631273  SOLV      1839            0.0000000000
      5637      1850  TIP3      H2            -20.8854168004       -4.9629331965       -9.3601251948  SOLV      1839            0.0000000000
      5638      1851  TIP3      OH2           -29.6978170598      -17.5802952426        9.0330320536  SOLV      1840            0.0000000000
      5639      1851  TIP3      H1            -30.6370071043      -17.6598442760        9.2463794246  SOLV      1840            0.0000000000
      5640      1851  TIP3      H2            -29.2936808045      -18.1629738882        9.7074805481  SOLV      1840            0.0000000000
      5641      1852  TIP3      OH2           -21.8150826380      -10.7655431611       -5.7111283415  SOLV      1841            0.0000000000
      5642      1852  TIP3      H1            -21.9208830467      -11.4560699925       -5.0248293797  SOLV      1841            0.0000000000
      5643      1852  TIP3      H2            -20.8439854698      -10.8106741664       -5.8446588460  SOLV      1841            0.0000000000
      5644      1853  TIP3      OH2           -32.0274636062       -6.5177123498        5.0274546987  SOLV      1842            0.0000000000
      5645      1853  TIP3      H1            -31.5498215647       -7.3369007290        5.2024732060  SOLV      1842            0.0000000000
      5646      1853  TIP3      H2            -32.2941625760       -6.2721089013        5.9244622549  SOLV      1842            0.0000000000
      5647      1854  TIP3      OH2           -29.8412600910      -10.3295455176       -7.8469522134  SOLV      1843            0.0000000000
      5648      1854  TIP3      H1            -29.6950586082      -11.2570479908       -8.1155299656  SOLV      1843            0.0000000000
      5649      1854  TIP3      H2            -30.0481996409      -10.4412552827       -6.8980975564  SOLV      1843            0.0000000000
      5650      1855  TIP3      OH2           -30.3825995732      -10.2757232669       -5.1130797434  SOLV      1844            0.0000000000
      5651      1855  TIP3      H1            -29.5943209703      -10.5503170114       -4.6258919255  SOLV      1844            0.0000000000
      5652      1855  TIP3      H2            -30.3320728137       -9.2944480607       -5.0471853834  SOLV      1844            0.0000000000
      5653      1856  TIP3      OH2           -32.9280169854      -13.3452410660       -3.1550316500  SOLV      1845            0.0000000000
      5654      1856  TIP3      H1            -33.6413930708      -12.8674530538       -2.6680938335  SOLV      1845            0.0000000000
      5655      1856  TIP3      H2            -32.7510919690      -12.6862208716       -3.8519244630  SOLV      1845            0.0000000000
      5656      1857  TIP3      OH2           -21.5411958682      -16.9448564345        5.8213795133  SOLV      1846            0.0000000000
      5657      1857  TIP3      H1            -20.7191573358      -16.5134616471        6.1190170889  SOLV      1846            0.0000000000
      5658      1857  TIP3      H2            -21.5748111909      -17.7553484243        6.3696001430  SOLV      1846            0.0000000000
      5659      1858  TIP3      OH2           -22.6741750564      -19.5232013505       -2.4593288829  SOLV      1847            0.0000000000
      5660      1858  TIP3      H1            -22.8090621712      -19.3045364407       -3.4046300527  SOLV      1847            0.0000000000
      5661      1858  TIP3      H2            -22.2515303054      -18.7042106860       -2.1222889339  SOLV      1847            0.0000000000
      5662      1859  TIP3      OH2           -27.7021337087       -8.3295771017       -5.6781275593  SOLV      1848            0.0000000000
      5663      1859  TIP3      H1            -28.5765039632       -8.0700035043       -5.3303627939  SOLV      1848            0.0000000000
      5664      1859  TIP3      H2            -27.5211313546       -7.5817414236       -6.2650464579  SOLV      1848            0.0000000000
      5665      1860  TIP3      OH2           -25.8817414930      -17.6386679155       -1.4988329609  SOLV      1849            0.0000000000
      5666      1860  TIP3      H1            -25.2278214235      -16.9278533974       -1.6825479092  SOLV      1849            0.0000000000
      5667      1860  TIP3      H2            -25.7747199152      -17.7500665833       -0.5305416465  SOLV      1849            0.0000000000
      5668      1861  TIP3      OH2           -23.5813357672      -14.7857611240        6.9487079323  SOLV      1850            0.0000000000
      5669      1861  TIP3      H1            -23.1743819072      -13.9221894166        7.1458989620  SOLV      1850            0.0000000000
      5670      1861  TIP3      H2            -22.8128082369      -15.2904012779        6.6211509886  SOLV      1850            0.0000000000
      5671      1862  TIP3      OH2           -24.3927667387      -20.5121419870       -0.4891753511  SOLV      1851            0.0000000000
      5672      1862  TIP3      H1            -24.5452739921      -19.7314756804        0.0801600896  SOLV      1851            0.0000000000
      5673      1862  TIP3      H2            -23.7465503015      -20.1453284900       -1.1376617275  SOLV      1851            0.0000000000
      5674      1863  TIP3      OH2           -30.2473034737       -7.5561526381       -5.0173443846  SOLV      1852            0.0000000000
      5675      1863  TIP3      H1            -30.5160884962       -6.8271413275       -5.6205489850  SOLV      1852            0.0000000000
      5676      1863  TIP3      H2            -30.3191908509       -7.1163250456       -4.1408551563  SOLV      1852            0.0000000000
      5677      1864  TIP3      OH2           -29.1165752742      -20.3487189612       -2.5504138329  SOLV      1853            0.0000000000
      5678      1864  TIP3      H1            -29.1630086848      -19.4447526123       -2.1880419392  SOLV      1853            0.0000000000
      5679      1864  TIP3      H2            -28.1516030475      -20.5121714721       -2.4901139666  SOLV      1853            0.0000000000
      5680      1865  TIP3      OH2           -16.7623600953      -15.5094930045        6.4144616149  SOLV      1854            0.0000000000
      5681      1865  TIP3      H1            -17.7449317176      -15.5438259076        6.4365624147  SOLV      1854            0.0000000000
      5682      1865  TIP3      H2            -16.5987061097      -15.8406588775        5.5220564117  SOLV      1854            0.0000000000
      5683      1866  TIP3      OH2           -20.2276389184      -13.6415471495        0.2005546317  SOLV      1855            0.0000000000
      5684      1866  TIP3      H1            -21.0064863251      -14.1572567301        0.4645804742  SOLV      1855            0.0000000000
      5685      1866  TIP3      H2            -19.5262060023      -14.0511918489        0.7480143079  SOLV      1855            0.0000000000
      5686      1867  TIP3      OH2           -33.0067453310      -11.2369956800       -5.0314439747  SOLV      1856            0.0000000000
      5687      1867  TIP3      H1            -32.2144693498      -10.6717382188       -4.9416622153  SOLV      1856            0.0000000000
      5688      1867  TIP3      H2            -32.6589133666      -11.8544830290       -5.7108017062  SOLV      1856            0.0000000000
      5689      1868  TIP3      OH2           -33.7785276838      -18.3921405508       -3.9175288449  SOLV      1857            0.0000000000
      5690      1868  TIP3      H1            -33.6550881966      -17.4154993129       -3.9461030401  SOLV      1857            0.0000000000
      5691      1868  TIP3      H2            -34.7158573592      -18.4154027160       -3.7102846601  SOLV      1857            0.0000000000
      5692      1869  TIP3      OH2           -20.5079417433       -3.9258106489       -0.3067815934  SOLV      1858            0.0000000000
      5693      1869  TIP3      H1            -20.9274804851       -3.4442653324       -1.0539275409  SOLV      1858            0.0000000000
      5694      1869  TIP3      H2            -19.5624753883       -3.7094531755       -0.4783167959  SOLV      1858            0.0000000000
      5695      1870  TIP3      OH2           -29.6283574892      -21.3477334708        5.0230350499  SOLV      1859            0.0000000000
      5696      1870  TIP3      H1            -29.6963057954      -21.6270056665        4.0847363844  SOLV      1859            0.0000000000
      5697      1870  TIP3      H2            -30.0012216628      -22.1082604269        5.4880404713  SOLV      1859            0.0000000000
      5698      1871  TIP3      OH2           -34.5314840356       -9.3273389483       -1.3127839487  SOLV      1860            0.0000000000
      5699      1871  TIP3      H1            -34.9377682693       -8.6033679729       -0.8044683040  SOLV      1860            0.0000000000
      5700      1871  TIP3      H2            -33.9114947886       -8.8480464398       -1.8704458557  SOLV      1860            0.0000000000
      5701      1872  TIP3      OH2           -32.0042946645       -4.4602743171        9.3185300910  SOLV      1861            0.0000000000
      5702      1872  TIP3      H1            -31.5155224685       -3.9594856477       10.0218064053  SOLV      1861            0.0000000000
      5703      1872  TIP3      H2            -32.9039835182       -4.1444197549        9.3806459200  SOLV      1861            0.0000000000
      5704      1873  TIP3      OH2           -28.0504957891       -4.0582868430        9.9705306466  SOLV      1862            0.0000000000
      5705      1873  TIP3      H1            -27.1081849481       -4.2703437674       10.0405675355  SOLV      1862            0.0000000000
      5706      1873  TIP3      H2            -28.3160215242       -4.6914649384        9.2682439808  SOLV      1862            0.0000000000
      5707      1874  TIP3      OH2           -28.1906882145       -8.3279139097       -8.7818190876  SOLV      1863            0.0000000000
      5708      1874  TIP3      H1            -28.7301973874       -9.0481061532       -8.3804695440  SOLV      1863            0.0000000000
      5709      1874  TIP3      H2            -27.4286628527       -8.8363533075       -9.1128952873  SOLV      1863            0.0000000000
      5710      1875  TIP3      OH2           -21.6101828585       -4.9618462735        7.3113428678  SOLV      1864            0.0000000000
      5711      1875  TIP3      H1            -21.7244571392       -5.7179719818        7.9325835697  SOLV      1864            0.0000000000
      5712      1875  TIP3      H2            -20.8189874301       -4.5220016906        7.6670002723  SOLV      1864            0.0000000000
      5713      1876  TIP3      OH2           -23.8498648911       -7.9463893566       -9.6108203774  SOLV      1865            0.0000000000
      5714      1876  TIP3      H1            -23.4589579784       -8.5974652181       -8.9942005266  SOLV      1865            0.0000000000
      5715      1876  TIP3      H2            -23.2444870033       -7.9876151746      -10.3764642045  SOLV      1865            0.0000000000
      5716      1877  TIP3      OH2           -31.6949693239       -9.7818529037       11.5463209967  SOLV      1866            0.0000000000
      5717      1877  TIP3      H1            -31.2961870227      -10.6605372871       11.4011747037  SOLV      1866            0.0000000000
      5718      1877  TIP3      H2            -32.4321602713       -9.7945733550       10.9243050444  SOLV      1866            0.0000000000
      5719      1878  TIP3      OH2           -31.5955806587      -13.1119603928       -6.4074848969  SOLV      1867            0.0000000000
      5720      1878  TIP3      H1            -30.9901709802      -13.4187220090       -5.7056407300  SOLV      1867            0.0000000000
      5721      1878  TIP3      H2            -30.9798671941      -13.0867372220       -7.1714722897  SOLV      1867            0.0000000000
      5722      1879  TIP3      OH2           -25.4139654581       -8.9253501639        9.2339277284  SOLV      1868            0.0000000000
      5723      1879  TIP3      H1            -25.8594703169       -8.5794873160        8.4243610112  SOLV      1868            0.0000000000
      5724      1879  TIP3      H2            -24.5479531323       -9.1509555290        8.8920442468  SOLV      1868            0.0000000000
      5725      1880  TIP3      OH2           -26.5650241952      -11.1321244891       -8.4262844464  SOLV      1869            0.0000000000
      5726      1880  TIP3      H1            -26.5432195600      -10.9876338943       -7.4559994026  SOLV      1869            0.0000000000
      5727      1880  TIP3      H2            -26.5093277356      -12.1134795462       -8.4569828401  SOLV      1869            0.0000000000
      5728      1881  TIP3      OH2           -20.4234178597       -8.7445958890        5.5466397416  SOLV      1870            0.0000000000
      5729      1881  TIP3      H1            -19.8930402847       -8.1803790098        4.9565990009  SOLV      1870            0.0000000000
      5730      1881  TIP3      H2            -21.3241013743       -8.6269386255        5.2116699477  SOLV      1870            0.0000000000
      5731      1882  TIP3      OH2           -30.5009935799      -12.4038431767       11.4363606969  SOLV      1871            0.0000000000
      5732      1882  TIP3      H1            -30.0207708419      -13.2390117351       11.4767234431  SOLV      1871            0.0000000000
      5733      1882  TIP3      H2            -30.1816488793      -11.9641708211       12.2527605640  SOLV      1871            0.0000000000
      5734      1883  TIP3      OH2           -29.7131175352      -14.0589850941       -4.3813302890  SOLV      1872            0.0000000000
      5735      1883  TIP3      H1            -29.9061937246      -14.4309783183       -3.5043122558  SOLV      1872            0.0000000000
      5736      1883  TIP3      H2            -29.2897563638      -14.8147389717       -4.8420140489  SOLV      1872            0.0000000000
      5737      1884  TIP3      OH2           -28.6077969566      -16.1285621528       -5.8838549623  SOLV      1873            0.0000000000
      5738      1884  TIP3      H1            -28.8587637160      -16.0299218284       -6.8275780845  SOLV      1873            0.0000000000
      5739      1884  TIP3      H2            -27.6302317229      -16.0970431286       -5.9627200673  SOLV      1873            0.0000000000
      5740      1885  TIP3      OH2           -21.8573408905       -9.3665093988        9.4135382327  SOLV      1874            0.0000000000
      5741      1885  TIP3      H1            -21.3296583936       -9.6739057121        8.6675731403  SOLV      1874            0.0000000000
      5742      1885  TIP3      H2            -21.8404467701      -10.1308772021       10.0101909641  SOLV      1874            0.0000000000
      5743      1886  TIP3      OH2           -20.4524214742      -12.8500100132       -9.2261793354  SOLV      1875            0.0000000000
      5744      1886  TIP3      H1            -20.6393345734      -13.2972309729      -10.0761098611  SOLV      1875            0.0000000000
      5745      1886  TIP3      H2            -20.7787090344      -11.9481004669       -9.4521095651  SOLV      1875            0.0000000000
      5746      1887  TIP3      OH2           -25.7007983349      -15.4531648048        8.8336832483  SOLV      1876            0.0000000000
      5747      1887  TIP3      H1            -25.7805918404      -16.4184440050        8.6798424091  SOLV      1876            0.0000000000
      5748      1887  TIP3      H2            -25.0311741432      -15.2398157006        8.1687789619  SOLV      1876            0.0000000000
      5749      1888  TIP3      OH2           -25.6901393742      -17.8497859016        7.3983941992  SOLV      1877            0.0000000000
      5750      1888  TIP3      H1            -25.3871107459      -17.4048074171        6.5753612244  SOLV      1877            0.0000000000
      5751      1888  TIP3      H2            -26.6204049876      -18.0561878405        7.1595920331  SOLV      1877            0.0000000000
      5752      1889  TIP3      OH2           -19.6274279817      -12.6085175291        9.8392087645  SOLV      1878            0.0000000000
      5753      1889  TIP3      H1            -19.1745090196      -13.4629758849        9.8759904820  SOLV      1878            0.0000000000
      5754      1889  TIP3      H2            -18.9816074484      -12.0612260943        9.3656919641  SOLV      1878            0.0000000000
      5755      1890  TIP3      OH2           -19.0999344709      -10.2181792214        7.3077260599  SOLV      1879            0.0000000000
      5756      1890  TIP3      H1            -19.6787615073       -9.6517331361        6.7392782655  SOLV      1879            0.0000000000
      5757      1890  TIP3      H2            -18.2334136948      -10.0043220466        6.8961915973  SOLV      1879            0.0000000000
      5758      1891  TIP3      OH2           -27.4631648784      -14.3129059397       10.6427316383  SOLV      1880            0.0000000000
      5759      1891  TIP3      H1            -27.8587248572      -14.9213206200       11.3048262323  SOLV      1880            0.0000000000
      5760      1891  TIP3      H2            -26.6233649652      -14.7996485125       10.4650035715  SOLV      1880            0.0000000000
      5761      1892  TIP3      OH2           -24.2912485438      -20.1489675499        7.9988358367  SOLV      1881            0.0000000000
      5762      1892  TIP3      H1            -24.7868429475      -19.3282534928        7.7816866242  SOLV      1881            0.0000000000
      5763      1892  TIP3      H2            -24.9842630270      -20.8277149225        7.8765433698  SOLV      1881            0.0000000000
      5764      1893  TIP3      OH2           -23.0083419875      -15.0093995999       10.1937000725  SOLV      1882            0.0000000000
      5765      1893  TIP3      H1            -22.9986948143      -15.1499202145       11.1563370138  SOLV      1882            0.0000000000
      5766      1893  TIP3      H2            -23.9090031262      -15.2905096424        9.9738301136  SOLV      1882            0.0000000000
      5767      1894  TIP3      OH2           -20.5695106971      -15.4342314603        8.7890699871  SOLV      1883            0.0000000000
      5768      1894  TIP3      H1            -21.3680673200      -15.4421719432        9.3503368004  SOLV      1883            0.0000000000
      5769      1894  TIP3      H2            -19.9091646752      -15.8837400252        9.3534806928  SOLV      1883            0.0000000000
      5770      1895  TIP3      OH2           -18.4065520028      -16.3294373178       10.4229642900  SOLV      1884            0.0000000000
      5771      1895  TIP3      H1            -18.4890081347      -17.2080507430       10.8227661493  SOLV      1884            0.0000000000
      5772      1895  TIP3      H2            -18.4466664852      -15.7518776297       11.2152435870  SOLV      1884            0.0000000000
      5773      1896  TIP3      OH2           -28.3370318609      -16.4000752333       12.1432913398  SOLV      1885            0.0000000000
      5774      1896  TIP3      H1            -28.3418373772      -17.3069298575       11.7572819730  SOLV      1885            0.0000000000
      5775      1896  TIP3      H2            -28.0104611596      -16.6170792280       13.0438822357  SOLV      1885            0.0000000000
      5776      1897  TIP3      OH2           -23.5134119741      -19.9216061295       10.6318372589  SOLV      1886            0.0000000000
      5777      1897  TIP3      H1            -22.7877462768      -20.5789852681       10.6708302579  SOLV      1886            0.0000000000
      5778      1897  TIP3      H2            -23.8101457899      -20.0462813759        9.7097733842  SOLV      1886            0.0000000000
      5779      1898  TIP3      OH2           -22.9652608558      -17.7636512052       12.2524083842  SOLV      1887            0.0000000000
      5780      1898  TIP3      H1            -22.9383255794      -18.5484799944       11.6620562005  SOLV      1887            0.0000000000
      5781      1898  TIP3      H2            -23.7913168491      -17.3403375759       11.9753729070  SOLV      1887            0.0000000000
      5782      1899  TIP3      OH2           -30.5082463065       -5.5009252917       -6.8319679691  SOLV      1888            0.0000000000
      5783      1899  TIP3      H1            -29.5622553499       -5.6115312172       -7.0417356465  SOLV      1888            0.0000000000
      5784      1899  TIP3      H2            -30.7909309586       -5.0030787026       -7.6217609704  SOLV      1888            0.0000000000
      5785      1900  TIP3      OH2           -35.7549086744      -11.5282374670       -5.2264135741  SOLV      1889            0.0000000000
      5786      1900  TIP3      H1            -34.8165220727      -11.2804511874       -5.0322116323  SOLV      1889            0.0000000000
      5787      1900  TIP3      H2            -35.8235639776      -12.3357286292       -4.7265398098  SOLV      1889            0.0000000000
      5788      1901  TIP3      OH2           -17.9717858870       -2.9581174123       -0.6556923590  SOLV      1890            0.0000000000
      5789      1901  TIP3      H1            -17.5436031466       -2.6774156390        0.1667383868  SOLV      1890            0.0000000000
      5790      1901  TIP3      H2            -17.2626960189       -2.8381912696       -1.3076941370  SOLV      1890            0.0000000000
      5791      1902  TIP3      OH2           -17.7297597629       -2.8665307642        2.2929357089  SOLV      1891            0.0000000000
      5792      1902  TIP3      H1            -18.2158490750       -3.7135988560        2.1582996685  SOLV      1891            0.0000000000
      5793      1902  TIP3      H2            -16.9014764228       -3.2113208514        2.6596322113  SOLV      1891            0.0000000000
      5794      1903  TIP3      OH2           -17.2922397435       -5.9916176407        7.7899355628  SOLV      1892            0.0000000000
      5795      1903  TIP3      H1            -17.9522814996       -5.9763317591        8.5106716361  SOLV      1892            0.0000000000
      5796      1903  TIP3      H2            -16.7451572714       -5.2071791350        7.9878748643  SOLV      1892            0.0000000000
      5797      1904  TIP3      OH2           -19.0375604720      -10.9852737655       -5.9501896950  SOLV      1893            0.0000000000
      5798      1904  TIP3      H1            -18.3651071614      -10.3363100338       -6.2414569787  SOLV      1893            0.0000000000
      5799      1904  TIP3      H2            -18.5949200931      -11.3754425848       -5.1636713604  SOLV      1893            0.0000000000
      5800      1905  TIP3      OH2           -17.7655712514      -12.3309399638       -3.9141573584  SOLV      1894            0.0000000000
      5801      1905  TIP3      H1            -18.4276914038      -12.7337162247       -3.3112478524  SOLV      1894            0.0000000000
      5802      1905  TIP3      H2            -17.1018420923      -11.9674477214       -3.2906522622  SOLV      1894            0.0000000000
      5803      1906  TIP3      OH2           -17.2125821372       -8.3480424863        0.3766157050  SOLV      1895            0.0000000000
      5804      1906  TIP3      H1            -16.6683757214       -9.0388116218       -0.0489005060  SOLV      1895            0.0000000000
      5805      1906  TIP3      H2            -17.2058860605       -7.6346731959       -0.2900397137  SOLV      1895            0.0000000000
      5806      1907  TIP3      OH2           -19.0208081323       -5.3271181114        2.2835372765  SOLV      1896            0.0000000000
      5807      1907  TIP3      H1            -19.8268218184       -5.2307535471        2.8080931351  SOLV      1896            0.0000000000
      5808      1907  TIP3      H2            -19.3630295633       -5.8268755172        1.5099624819  SOLV      1896            0.0000000000
      5809      1908  TIP3      OH2           -18.4122414996      -13.2219724245       -7.4443162244  SOLV      1897            0.0000000000
      5810      1908  TIP3      H1            -19.1419469186      -13.2006277175       -8.1055549230  SOLV      1897            0.0000000000
      5811      1908  TIP3      H2            -18.6733539799      -12.4565861652       -6.8924596953  SOLV      1897            0.0000000000
      5812      1909  TIP3      OH2           -19.7129311265      -16.4984970438       -7.9338054610  SOLV      1898            0.0000000000
      5813      1909  TIP3      H1            -20.1717766933      -16.1829243683       -8.7200565573  SOLV      1898            0.0000000000
      5814      1909  TIP3      H2            -19.9198004064      -17.4580951526       -7.9814171352  SOLV      1898            0.0000000000
      5815      1910  TIP3      OH2           -19.6743618890      -13.7284806524       -2.4768948418  SOLV      1899            0.0000000000
      5816      1910  TIP3      H1            -19.5842963822      -14.6925379317       -2.5373149233  SOLV      1899            0.0000000000
      5817      1910  TIP3      H2            -19.8319702826      -13.6010621235       -1.5126222176  SOLV      1899            0.0000000000
      5818      1911  TIP3      OH2           -33.3743120568      -13.0674964561        5.0671242508  SOLV      1900            0.0000000000
      5819      1911  TIP3      H1            -33.4566940204      -13.2577922638        4.1067771734  SOLV      1900            0.0000000000
      5820      1911  TIP3      H2            -32.3984606218      -13.1019402125        5.1625456600  SOLV      1900            0.0000000000
      5821      1912  TIP3      OH2           -16.7045005138       -9.4719534848        6.1668405740  SOLV      1901            0.0000000000
      5822      1912  TIP3      H1            -16.0016509913      -10.1469568982        6.0353122755  SOLV      1901            0.0000000000
      5823      1912  TIP3      H2            -16.4442827899       -8.7776751789        5.5424212092  SOLV      1901            0.0000000000
      5824      1913  TIP3      OH2           -14.9591189383      -11.5259051943        6.1980826435  SOLV      1902            0.0000000000
      5825      1913  TIP3      H1            -15.7018839206      -12.0089326979        6.6196032909  SOLV      1902            0.0000000000
      5826      1913  TIP3      H2            -14.2188841666      -12.1395311856        6.3815204188  SOLV      1902            0.0000000000
      5827      1914  TIP3      OH2           -20.2772154280      -19.1494997751       -8.0529112445  SOLV      1903            0.0000000000
      5828      1914  TIP3      H1            -19.5589740649      -19.5088989087       -7.4959356900  SOLV      1903            0.0000000000
      5829      1914  TIP3      H2            -21.0240700997      -19.7448563792       -7.8823799757  SOLV      1903            0.0000000000
      5830      1915  TIP3      OH2           -19.6786251259      -16.5594021614       -3.5563295243  SOLV      1904            0.0000000000
      5831      1915  TIP3      H1            -19.2533877245      -17.4372722392       -3.4091547124  SOLV      1904            0.0000000000
      5832      1915  TIP3      H2            -19.1064583634      -16.2135793507       -4.2654491892  SOLV      1904            0.0000000000
      5833      1916  TIP3      OH2           -18.0781913901      -14.9241464913        1.4615306208  SOLV      1905            0.0000000000
      5834      1916  TIP3      H1            -17.2279388241      -14.6520309930        1.0456292182  SOLV      1905            0.0000000000
      5835      1916  TIP3      H2            -17.9602756017      -14.5152449908        2.3395495724  SOLV      1905            0.0000000000
      5836      1917  TIP3      OH2           -17.3562124387      -13.4137006721        3.7551000079  SOLV      1906            0.0000000000
      5837      1917  TIP3      H1            -18.1444861701      -13.0847249318        4.2278214636  SOLV      1906            0.0000000000
      5838      1917  TIP3      H2            -17.0476811895      -12.5987401569        3.2988285879  SOLV      1906            0.0000000000
      5839      1918  TIP3      OH2           -31.0556611353      -15.9712144091       11.7486776325  SOLV      1907            0.0000000000
      5840      1918  TIP3      H1            -30.1250538395      -16.2274248484       11.8767317464  SOLV      1907            0.0000000000
      5841      1918  TIP3      H2            -31.5459761629      -16.6964529717       12.1523835391  SOLV      1907            0.0000000000
      5842      1919  TIP3      OH2           -12.7382462076      -17.3618931825        9.3250159540  SOLV      1908            0.0000000000
      5843      1919  TIP3      H1            -12.2145114921      -18.0586866912        8.8789844437  SOLV      1908            0.0000000000
      5844      1919  TIP3      H2            -13.1370478009      -16.8964044700        8.5585808846  SOLV      1908            0.0000000000
      5845      1920  TIP3      OH2           -18.5807126684      -19.0590554007       -3.1320162919  SOLV      1909            0.0000000000
      5846      1920  TIP3      H1            -18.1191089997      -19.2350992740       -2.2860389330  SOLV      1909            0.0000000000
      5847      1920  TIP3      H2            -19.1961836188      -19.8200351330       -3.1643428804  SOLV      1909            0.0000000000
      5848      1921  TIP3      OH2           -31.5826421656      -19.3439586794        4.8254261635  SOLV      1910            0.0000000000
      5849      1921  TIP3      H1            -30.9183042729      -20.0396763955        4.9890561048  SOLV      1910            0.0000000000
      5850      1921  TIP3      H2            -31.0334882314      -18.5457737380        4.8789646949  SOLV      1910            0.0000000000
      5851      1922  TIP3      OH2           -33.6865081275      -16.1700995824        5.8430895776  SOLV      1911            0.0000000000
      5852      1922  TIP3      H1            -33.1622803276      -16.4059223188        5.0555785596  SOLV      1911            0.0000000000
      5853      1922  TIP3      H2            -33.5530411082      -15.2106008374        5.8753168315  SOLV      1911            0.0000000000
      5854      1923  TIP3      OH2           -14.2171871839      -16.1561994202        7.3817092858  SOLV      1912            0.0000000000
      5855      1923  TIP3      H1            -15.0840266383      -15.7193199963        7.5071480536  SOLV      1912            0.0000000000
      5856      1923  TIP3      H2            -14.4830394335      -16.8618627879        6.7598126696  SOLV      1912            0.0000000000
      5857      1924  TIP3      OH2           -17.8361582489      -19.7734146537       -6.7507286068  SOLV      1913            0.0000000000
      5858      1924  TIP3      H1            -17.4417094247      -20.4466066660       -7.3439339798  SOLV      1913            0.0000000000
      5859      1924  TIP3      H2            -17.1896738947      -19.0429727009       -6.8055314502  SOLV      1913            0.0000000000
      5860      1925  TIP3      OH2           -33.8582552503      -21.4885128749        0.7392415775  SOLV      1914            0.0000000000
      5861      1925  TIP3      H1            -34.7705695270      -21.2344655225        0.9172269527  SOLV      1914            0.0000000000
      5862      1925  TIP3      H2            -33.6940917392      -20.9859682421       -0.0936757472  SOLV      1914            0.0000000000
      5863      1926  TIP3      OH2           -22.1676806654       -4.3645005436       -4.1263420706  SOLV      1915            0.0000000000
      5864      1926  TIP3      H1            -21.6399110197       -4.5079110579       -4.9396187671  SOLV      1915            0.0000000000
      5865      1926  TIP3      H2            -21.5969383949       -3.7585583443       -3.6285153962  SOLV      1915            0.0000000000
      5866      1927  TIP3      OH2           -30.8759902419       -6.9599814162        9.8166190392  SOLV      1916            0.0000000000
      5867      1927  TIP3      H1            -31.4562524505       -6.2589855104        9.4741069171  SOLV      1916            0.0000000000
      5868      1927  TIP3      H2            -30.9708391726       -6.8287827034       10.7831503803  SOLV      1916            0.0000000000
      5869      1928  TIP3      OH2           -29.1443443254       -6.0178379433        5.2996870666  SOLV      1917            0.0000000000
      5870      1928  TIP3      H1            -29.8331062029       -5.4741696199        4.8743451545  SOLV      1917            0.0000000000
      5871      1928  TIP3      H2            -28.3735286650       -5.7335490424        4.7616909644  SOLV      1917            0.0000000000
      5872      1929  TIP3      OH2           -25.0543127773       -3.6315063641        6.5963922448  SOLV      1918            0.0000000000
      5873      1929  TIP3      H1            -24.5708550439       -3.6834099634        7.4490154882  SOLV      1918            0.0000000000
      5874      1929  TIP3      H2            -24.4064995986       -3.1535002628        6.0398679113  SOLV      1918            0.0000000000
      5875      1930  TIP3      OH2           -23.2020512604       -2.1604203619        5.2117054152  SOLV      1919            0.0000000000
      5876      1930  TIP3      H1            -22.6868199469       -2.6559998184        4.5453231331  SOLV      1919            0.0000000000
      5877      1930  TIP3      H2            -22.5747594500       -2.1293634213        5.9374906825  SOLV      1919            0.0000000000
      5878      1931  TIP3      OH2           -15.1577718261      -18.4376858944        6.0506751394  SOLV      1920            0.0000000000
      5879      1931  TIP3      H1            -16.0668948374      -18.5105862223        5.7108605728  SOLV      1920            0.0000000000
      5880      1931  TIP3      H2            -14.8508921486      -19.3707358363        5.9943189582  SOLV      1920            0.0000000000
      5881      1932  TIP3      OH2           -32.3797712334       -2.9585972962        5.4118926200  SOLV      1921            0.0000000000
      5882      1932  TIP3      H1            -32.8883133584       -2.2971772352        4.9187454953  SOLV      1921            0.0000000000
      5883      1932  TIP3      H2            -32.1737270957       -2.4565893432        6.2170827622  SOLV      1921            0.0000000000
      5884      1933  TIP3      OH2           -30.1043909338       -3.6856965998        3.9440906244  SOLV      1922            0.0000000000
      5885      1933  TIP3      H1            -30.9481752442       -3.5269656697        4.4159859389  SOLV      1922            0.0000000000
      5886      1933  TIP3      H2            -30.3237459109       -3.3958094235        3.0386532992  SOLV      1922            0.0000000000
      5887      1934  TIP3      OH2           -25.9765362874       -3.3882348071        1.9620116565  SOLV      1923            0.0000000000
      5888      1934  TIP3      H1            -26.7027459797       -3.2432727540        1.3280441831  SOLV      1923            0.0000000000
      5889      1934  TIP3      H2            -25.8898393836       -2.5079055774        2.3787765956  SOLV      1923            0.0000000000
      5890      1935  TIP3      OH2           -23.3212761420       -3.9321027013        2.5165008062  SOLV      1924            0.0000000000
      5891      1935  TIP3      H1            -24.2594670929       -3.8079468120        2.2741986205  SOLV      1924            0.0000000000
      5892      1935  TIP3      H2            -22.8724288111       -3.2970307950        1.9396332508  SOLV      1924            0.0000000000
      5893      1936  TIP3      OH2           -21.2506395233       -2.1226838016        1.6271076158  SOLV      1925            0.0000000000
      5894      1936  TIP3      H1            -21.3731147728       -1.2883362659        1.1268916347  SOLV      1925            0.0000000000
      5895      1936  TIP3      H2            -20.9561490522       -2.7359900265        0.9177709923  SOLV      1925            0.0000000000
      5896      1937  TIP3      OH2           -33.5244674569       -5.5962361740        2.8800317376  SOLV      1926            0.0000000000
      5897      1937  TIP3      H1            -33.0768740451       -5.8205525702        3.7264795599  SOLV      1926            0.0000000000
      5898      1937  TIP3      H2            -32.9301909263       -6.0832734249        2.2757886861  SOLV      1926            0.0000000000
      5899      1938  TIP3      OH2           -31.4986213396       -6.8365465310        1.4556249784  SOLV      1927            0.0000000000
      5900      1938  TIP3      H1            -31.3749943787       -7.6405525580        2.0094837566  SOLV      1927            0.0000000000
      5901      1938  TIP3      H2            -30.6014970280       -6.4403530621        1.5055465035  SOLV      1927            0.0000000000
      5902      1939  TIP3      OH2           -28.8392440143       -5.8866588152        1.5346876351  SOLV      1928            0.0000000000
      5903      1939  TIP3      H1            -28.5894175560       -6.8328889300        1.4846775525  SOLV      1928            0.0000000000
      5904      1939  TIP3      H2            -28.3281350383       -5.6369739386        2.3316428411  SOLV      1928            0.0000000000
      5905      1940  TIP3      OH2           -22.9767094428      -19.2956397413        2.4545367598  SOLV      1929            0.0000000000
      5906      1940  TIP3      H1            -23.4846022531      -20.0226475993        2.8490316417  SOLV      1929            0.0000000000
      5907      1940  TIP3      H2            -22.3019481818      -19.7622799094        1.9240996013  SOLV      1929            0.0000000000
      5908      1941  TIP3      OH2           -17.9486464319      -20.5246206072        1.3984017200  SOLV      1930            0.0000000000
      5909      1941  TIP3      H1            -17.5651899706      -20.0019859922        0.6582298077  SOLV      1930            0.0000000000
      5910      1941  TIP3      H2            -18.8866639706      -20.2621320230        1.3509350326  SOLV      1930            0.0000000000
      5911      1942  TIP3      OH2           -16.9545318264      -19.5648403332       -0.9529759845  SOLV      1931            0.0000000000
      5912      1942  TIP3      H1            -16.2117633789      -20.0772667078       -1.3367717016  SOLV      1931            0.0000000000
      5913      1942  TIP3      H2            -16.6148774160      -18.6489523277       -1.0929891750  SOLV      1931            0.0000000000
      5914      1943  TIP3      OH2           -30.0089515865      -22.1580995078        2.4502170206  SOLV      1932            0.0000000000
      5915      1943  TIP3      H1            -30.9771198295      -22.3234057403        2.5187085677  SOLV      1932            0.0000000000
      5916      1943  TIP3      H2            -29.6796318282      -23.0791329536        2.3793562695  SOLV      1932            0.0000000000
      5917      1944  TIP3      OH2           -26.1686625071      -21.9143621836        1.3534142451  SOLV      1933            0.0000000000
      5918      1944  TIP3      H1            -25.6368116108      -21.4630969652        0.6782807607  SOLV      1933            0.0000000000
      5919      1944  TIP3      H2            -25.8316569071      -21.5134888606        2.1657142668  SOLV      1933            0.0000000000
      5920      1945  TIP3      OH2           -20.7717415795      -20.4244093826        1.1065419762  SOLV      1934            0.0000000000
      5921      1945  TIP3      H1            -20.7269051475      -20.8110725302        0.2258079489  SOLV      1934            0.0000000000
      5922      1945  TIP3      H2            -20.8694384983      -21.2257109252        1.6750907960  SOLV      1934            0.0000000000
      5923      1946  TIP3      OH2           -20.4114313611      -21.1737538204       -3.1912938697  SOLV      1935            0.0000000000
      5924      1946  TIP3      H1            -21.2689406451      -20.7391016154       -3.0320222109  SOLV      1935            0.0000000000
      5925      1946  TIP3      H2            -20.5641537894      -22.0434623113       -2.7640051330  SOLV      1935            0.0000000000
      5926      1947  TIP3      OH2           -26.4004417692      -20.1480464171       -2.3951298064  SOLV      1936            0.0000000000
      5927      1947  TIP3      H1            -25.7963029081      -20.6069519473       -1.7858489428  SOLV      1936            0.0000000000
      5928      1947  TIP3      H2            -26.2192605353      -19.2168754234       -2.1353740250  SOLV      1936            0.0000000000
      5929      1948  TIP3      OH2           -27.8646766875       -6.0051910451       -7.3794272889  SOLV      1937            0.0000000000
      5930      1948  TIP3      H1            -26.9864836882       -5.7702367294       -7.7483923081  SOLV      1937            0.0000000000
      5931      1948  TIP3      H2            -28.0849647329       -6.7538380413       -7.9795972128  SOLV      1937            0.0000000000
      5932      1949  TIP3      OH2           -20.6855071892       -4.7383345542       -6.4338283971  SOLV      1938            0.0000000000
      5933      1949  TIP3      H1            -20.7649528056       -5.7151131196       -6.5529064628  SOLV      1938            0.0000000000
      5934      1949  TIP3      H2            -21.1284224077       -4.4221521938       -7.2467727857  SOLV      1938            0.0000000000
      5935      1950  TIP3      OH2           -28.4340750626      -18.9854584774       11.3685683390  SOLV      1939            0.0000000000
      5936      1950  TIP3      H1            -28.7946129455      -19.8636303557       11.5795231882  SOLV      1939            0.0000000000
      5937      1950  TIP3      H2            -27.4869048214      -19.1418776207       11.5913481364  SOLV      1939            0.0000000000
      5938      1951  TIP3      OH2           -25.8949517434      -19.3409262417       12.3907106463  SOLV      1940            0.0000000000
      5939      1951  TIP3      H1            -25.0855612336      -19.6369276124       11.9305674956  SOLV      1940            0.0000000000
      5940      1951  TIP3      H2            -25.8474019041      -19.8926684870       13.2030785450  SOLV      1940            0.0000000000
      5941      1952  TIP3      OH2           -34.7684532064       -7.5901100494       -6.7580488462  SOLV      1941            0.0000000000
      5942      1952  TIP3      H1            -34.4947484188       -6.9391236532       -6.0975942784  SOLV      1941            0.0000000000
      5943      1952  TIP3      H2            -33.9102987093       -8.0224423780       -6.9797753982  SOLV      1941            0.0000000000
      5944      1953  TIP3      OH2           -18.6027327527       -2.4879389306        5.1273488995  SOLV      1942            0.0000000000
      5945      1953  TIP3      H1            -19.3792943530       -3.0949735238        4.8885185288  SOLV      1942            0.0000000000
      5946      1953  TIP3      H2            -17.9092155152       -2.9072863533        4.7163621438  SOLV      1942            0.0000000000
      5947      1954  TIP3      OH2            -5.7281564648       -9.5664247995       -7.0061379021  SOLV      1943            0.0000000000
      5948      1954  TIP3      H1             -6.0299716507       -8.6535068164       -7.1889029838  SOLV      1943            0.0000000000
      5949      1954  TIP3      H2             -6.5207659120      -10.0678983518       -7.2589836180  SOLV      1943            0.0000000000
      5950      1955  TIP3      OH2            -5.6663202740       -9.7291188471       -3.1705037053  SOLV      1944            0.0000000000
      5951      1955  TIP3      H1             -5.3861591123       -9.7571268922       -2.2388149160  SOLV      1944            0.0000000000
      5952      1955  TIP3      H2             -6.2085006351      -10.5265138533       -3.2503483536  SOLV      1944            0.0000000000
      5953      1956  TIP3      OH2           -12.8217542864      -10.6714142989        0.5539311884  SOLV      1945            0.0000000000
      5954      1956  TIP3      H1            -12.4966367521      -11.3516729784        1.1722959038  SOLV      1945            0.0000000000
      5955      1956  TIP3      H2            -12.0858053603      -10.0442869021        0.5653406311  SOLV      1945            0.0000000000
      5956      1957  TIP3      OH2            -3.2832727859       -6.5154003460       -6.2562656110  SOLV      1946            0.0000000000
      5957      1957  TIP3      H1             -3.4843895491       -7.1653905687       -5.5700872311  SOLV      1946            0.0000000000
      5958      1957  TIP3      H2             -3.0582318453       -5.7305263994       -5.7213031486  SOLV      1946            0.0000000000
      5959      1958  TIP3      OH2           -13.1788077379       -6.5734965102       -2.2546021078  SOLV      1947            0.0000000000
      5960      1958  TIP3      H1            -13.1717912169       -7.5523398232       -2.2854555072  SOLV      1947            0.0000000000
      5961      1958  TIP3      H2            -12.2792229584       -6.4015889688       -1.9305535093  SOLV      1947            0.0000000000
      5962      1959  TIP3      OH2           -15.9874337508      -14.5404194178       -4.4413641825  SOLV      1948            0.0000000000
      5963      1959  TIP3      H1            -16.4534943074      -13.7130279042       -4.2273127533  SOLV      1948            0.0000000000
      5964      1959  TIP3      H2            -16.7063910022      -15.0336527632       -4.8739982503  SOLV      1948            0.0000000000
      5965      1960  TIP3      OH2           -15.4288530455      -11.6375684722       -2.5869695703  SOLV      1949            0.0000000000
      5966      1960  TIP3      H1            -14.9136863116      -12.4060049810       -2.2531645859  SOLV      1949            0.0000000000
      5967      1960  TIP3      H2            -14.7641348806      -11.1597306005       -3.0997254690  SOLV      1949            0.0000000000
      5968      1961  TIP3      OH2            -6.9424325940       -1.8021387399       -6.1725541326  SOLV      1950            0.0000000000
      5969      1961  TIP3      H1             -6.4916441486       -2.6554613045       -6.2563263111  SOLV      1950            0.0000000000
      5970      1961  TIP3      H2             -7.1814516596       -1.7564399688       -5.2262465945  SOLV      1950            0.0000000000
      5971      1962  TIP3      OH2            -7.8368962346       -7.3355501051       -2.6896118574  SOLV      1951            0.0000000000
      5972      1962  TIP3      H1             -7.3921165150       -8.0668943007       -3.1437828302  SOLV      1951            0.0000000000
      5973      1962  TIP3      H2             -7.0311462183       -6.8303365122       -2.4398524316  SOLV      1951            0.0000000000
      5974      1963  TIP3      OH2             2.3969505895      -14.2012541224       -2.7547894481  SOLV      1952            0.0000000000
      5975      1963  TIP3      H1              2.7433587853      -13.3525187756       -2.4158345334  SOLV      1952            0.0000000000
      5976      1963  TIP3      H2              2.5761205089      -14.0970667684       -3.7054857597  SOLV      1952            0.0000000000
      5977      1964  TIP3      OH2            -3.5945723387      -12.3654659502       -2.3418683886  SOLV      1953            0.0000000000
      5978      1964  TIP3      H1             -3.2214249478      -13.2462285287       -2.1569000908  SOLV      1953            0.0000000000
      5979      1964  TIP3      H2             -3.9736265427      -12.5028445438       -3.2316837176  SOLV      1953            0.0000000000
      5980      1965  TIP3      OH2           -10.2005634445      -15.7301556413       -2.6995751278  SOLV      1954            0.0000000000
      5981      1965  TIP3      H1            -10.4327230157      -14.9964052887       -3.3078216775  SOLV      1954            0.0000000000
      5982      1965  TIP3      H2            -10.7233189249      -16.4559280904       -3.1065513296  SOLV      1954            0.0000000000
      5983      1966  TIP3      OH2            -3.2889645186      -14.8144425259       -6.4698837864  SOLV      1955            0.0000000000
      5984      1966  TIP3      H1             -2.5693024910      -14.9384409220       -5.8085298889  SOLV      1955            0.0000000000
      5985      1966  TIP3      H2             -2.7818817020      -14.4400536308       -7.2126943173  SOLV      1955            0.0000000000
      5986      1967  TIP3      OH2           -13.9396373176      -13.7036943315       -1.5699672204  SOLV      1956            0.0000000000
      5987      1967  TIP3      H1            -13.1050946001      -13.8833696097       -1.0981839568  SOLV      1956            0.0000000000
      5988      1967  TIP3      H2            -13.7994864433      -14.2454171249       -2.3747639761  SOLV      1956            0.0000000000
      5989      1968  TIP3      OH2            -9.5463328517      -11.7271618932       -3.6517680316  SOLV      1957            0.0000000000
      5990      1968  TIP3      H1             -8.6091822093      -11.9742575607       -3.5105187778  SOLV      1957            0.0000000000
      5991      1968  TIP3      H2             -9.9353746465      -12.5707476304       -3.9654468996  SOLV      1957            0.0000000000
      5992      1969  TIP3      OH2             3.2916380071      -12.1431757510       -1.1858920216  SOLV      1958            0.0000000000
      5993      1969  TIP3      H1              2.5242355679      -11.5545305954       -1.3215588777  SOLV      1958            0.0000000000
      5994      1969  TIP3      H2              3.2540537910      -12.3250881460       -0.2364845627  SOLV      1958            0.0000000000
      5995      1970  TIP3      OH2           -10.3095421246      -15.8862909673        1.6925033048  SOLV      1959            0.0000000000
      5996      1970  TIP3      H1            -10.8841490956      -15.5031659931        1.0019647049  SOLV      1959            0.0000000000
      5997      1970  TIP3      H2            -10.8496117559      -15.6970063202        2.4894740660  SOLV      1959            0.0000000000
      5998      1971  TIP3      OH2            -6.7883316097       -7.3278019232       -8.3255369333  SOLV      1960            0.0000000000
      5999      1971  TIP3      H1             -7.2781628449       -7.5032529151       -9.1402665989  SOLV      1960            0.0000000000
      6000      1971  TIP3      H2             -7.2506602069       -6.5180405144       -8.0134425100  SOLV      1960            0.0000000000
      6001      1972  TIP3      OH2            -9.2179083144       -8.1516837696       -0.4191561722  SOLV      1961            0.0000000000
      6002      1972  TIP3      H1             -9.8898616120       -7.5002354656       -0.0980599273  SOLV      1961            0.0000000000
      6003      1972  TIP3      H2             -8.8070342746       -7.6527318710       -1.1537549745  SOLV      1961            0.0000000000
      6004      1973  TIP3      OH2            -1.2788999565      -14.7604530335       -4.6250857940  SOLV      1962            0.0000000000
      6005      1973  TIP3      H1             -1.5905162968      -15.0851331762       -3.7688610439  SOLV      1962            0.0000000000
      6006      1973  TIP3      H2             -0.7687938661      -13.9670802807       -4.3688612387  SOLV      1962            0.0000000000
      6007      1974  TIP3      OH2           -11.5674550778      -14.7451260506       -0.5002294823  SOLV      1963            0.0000000000
      6008      1974  TIP3      H1            -10.9815544154      -13.9893348023       -0.2653748164  SOLV      1963            0.0000000000
      6009      1974  TIP3      H2            -11.0520223499      -15.1347835499       -1.2416664455  SOLV      1963            0.0000000000
      6010      1975  TIP3      OH2           -11.1916076546       -6.4305612150        0.3232128015  SOLV      1964            0.0000000000
      6011      1975  TIP3      H1            -11.1423785594       -5.4806696436        0.0721779247  SOLV      1964            0.0000000000
      6012      1975  TIP3      H2            -11.7588543809       -6.3442533970        1.1150162396  SOLV      1964            0.0000000000
      6013      1976  TIP3      OH2           -17.0627256542       -9.2656978382       -7.0412979206  SOLV      1965            0.0000000000
      6014      1976  TIP3      H1            -17.4598846952       -8.9868133263       -7.8840726459  SOLV      1965            0.0000000000
      6015      1976  TIP3      H2            -16.7495606706       -8.4087815512       -6.6788798043  SOLV      1965            0.0000000000
      6016      1977  TIP3      OH2            -2.9211285403       -4.1708219696       -4.5932375771  SOLV      1966            0.0000000000
      6017      1977  TIP3      H1             -3.7290061433       -4.0819165784       -4.0672098211  SOLV      1966            0.0000000000
      6018      1977  TIP3      H2             -2.8870941070       -3.3050305645       -5.0596785371  SOLV      1966            0.0000000000
      6019      1978  TIP3      OH2             0.3452059367      -15.0616333684       -0.9440981307  SOLV      1967            0.0000000000
      6020      1978  TIP3      H1             -0.5535006025      -14.8679597718       -1.2608937941  SOLV      1967            0.0000000000
      6021      1978  TIP3      H2              0.8985783933      -14.7951500216       -1.7071858227  SOLV      1967            0.0000000000
      6022      1979  TIP3      OH2            -6.7810032829      -18.7332156806       -1.1192053224  SOLV      1968            0.0000000000
      6023      1979  TIP3      H1             -6.9569265414      -19.6783718687       -0.9520096068  SOLV      1968            0.0000000000
      6024      1979  TIP3      H2             -7.5517971606      -18.3277277742       -0.6635040549  SOLV      1968            0.0000000000
      6025      1980  TIP3      OH2            -5.5823523214       -3.7500992089       -7.8977335243  SOLV      1969            0.0000000000
      6026      1980  TIP3      H1             -5.0300424656       -4.5283846891       -8.1254580666  SOLV      1969            0.0000000000
      6027      1980  TIP3      H2             -5.0287785934       -3.0336351857       -8.2729111109  SOLV      1969            0.0000000000
      6028      1981  TIP3      OH2            -4.1347879025       -5.9134874019       -8.8255044682  SOLV      1970            0.0000000000
      6029      1981  TIP3      H1             -4.7877114373       -6.6173807972       -8.9450342133  SOLV      1970            0.0000000000
      6030      1981  TIP3      H2             -3.7279683695       -6.1722864528       -7.9682596578  SOLV      1970            0.0000000000
      6031      1982  TIP3      OH2            -0.5426339176       -4.9525479814       -1.1941819974  SOLV      1971            0.0000000000
      6032      1982  TIP3      H1             -0.5499318707       -5.6986036473       -1.8270399971  SOLV      1971            0.0000000000
      6033      1982  TIP3      H2             -0.6632713306       -4.1763564397       -1.7860945305  SOLV      1971            0.0000000000
      6034      1983  TIP3      OH2            -7.4761432334      -11.0968339670       -8.5899543303  SOLV      1972            0.0000000000
      6035      1983  TIP3      H1             -8.2808116267      -10.5722164922       -8.7815106705  SOLV      1972            0.0000000000
      6036      1983  TIP3      H2             -7.0133540766      -11.0690159486       -9.4452052980  SOLV      1972            0.0000000000
      6037      1984  TIP3      OH2            -7.8916090530      -13.1546130406      -11.5070104927  SOLV      1973            0.0000000000
      6038      1984  TIP3      H1             -7.2221676660      -12.6644543990      -10.9972672975  SOLV      1973            0.0000000000
      6039      1984  TIP3      H2             -7.3210942474      -13.7912584130      -11.9809343006  SOLV      1973            0.0000000000
      6040      1985  TIP3      OH2             1.4481011695       -8.8636033837       -2.9251754307  SOLV      1974            0.0000000000
      6041      1985  TIP3      H1              0.6983210499       -8.2418202577       -2.7701145610  SOLV      1974            0.0000000000
      6042      1985  TIP3      H2              1.8138930676       -8.4573341749       -3.7405038742  SOLV      1974            0.0000000000
      6043      1986  TIP3      OH2            -3.9606034118      -10.2433250927       -8.9410342616  SOLV      1975            0.0000000000
      6044      1986  TIP3      H1             -4.5206989856       -9.9808482392       -8.1705822608  SOLV      1975            0.0000000000
      6045      1986  TIP3      H2             -3.1240338862      -10.4641770763       -8.4841550645  SOLV      1975            0.0000000000
      6046      1987  TIP3      OH2            -1.6839438296       -9.8988237160        0.1170449640  SOLV      1976            0.0000000000
      6047      1987  TIP3      H1             -1.6631908519       -9.1064650570        0.6858771824  SOLV      1976            0.0000000000
      6048      1987  TIP3      H2             -2.5854144021       -9.8282682051       -0.2592911383  SOLV      1976            0.0000000000
      6049      1988  TIP3      OH2           -11.6534873912      -10.2987953307       -4.7340681642  SOLV      1977            0.0000000000
      6050      1988  TIP3      H1            -12.0324537153      -10.8816623605       -5.4233714082  SOLV      1977            0.0000000000
      6051      1988  TIP3      H2            -10.8782234685      -10.8150208889       -4.4265865627  SOLV      1977            0.0000000000
      6052      1989  TIP3      OH2           -10.2781843183       -6.0651450603       -3.2888897062  SOLV      1978            0.0000000000
      6053      1989  TIP3      H1            -10.4686209195       -6.5026288278       -4.1267343255  SOLV      1978            0.0000000000
      6054      1989  TIP3      H2             -9.3934364023       -6.4206866716       -3.0684763243  SOLV      1978            0.0000000000
      6055      1990  TIP3      OH2           -10.3121095146      -10.5364012069       -1.2103245748  SOLV      1979            0.0000000000
      6056      1990  TIP3      H1             -9.9601334883      -10.7478186537       -2.0976772369  SOLV      1979            0.0000000000
      6057      1990  TIP3      H2             -9.8856823504       -9.6742757618       -1.0085096757  SOLV      1979            0.0000000000
      6058      1991  TIP3      OH2            -5.5903910643      -11.6634642749      -10.6327872628  SOLV      1980            0.0000000000
      6059      1991  TIP3      H1             -4.9969415197      -11.0529504917      -10.1359934999  SOLV      1980            0.0000000000
      6060      1991  TIP3      H2             -5.3350319735      -11.4509195883      -11.5618663708  SOLV      1980            0.0000000000
      6061      1992  TIP3      OH2           -11.3236474602       -9.5481787892        3.0660638143  SOLV      1981            0.0000000000
      6062      1992  TIP3      H1            -11.1895384929       -8.6086697203        3.2500342869  SOLV      1981            0.0000000000
      6063      1992  TIP3      H2            -12.2720658313       -9.6594882881        3.2875394200  SOLV      1981            0.0000000000
      6064      1993  TIP3      OH2            -8.0688761651       -4.9038301104       -7.9471121066  SOLV      1982            0.0000000000
      6065      1993  TIP3      H1             -7.2667387659       -4.3714790876       -7.7840316462  SOLV      1982            0.0000000000
      6066      1993  TIP3      H2             -8.7141930706       -4.2319240581       -8.2018724107  SOLV      1982            0.0000000000
      6067      1994  TIP3      OH2            -0.4247536267      -19.2986370731      -10.1208222857  SOLV      1983            0.0000000000
      6068      1994  TIP3      H1             -1.2419823798      -19.0716854100       -9.6294184199  SOLV      1983            0.0000000000
      6069      1994  TIP3      H2             -0.2839197793      -18.4753182192      -10.6346233026  SOLV      1983            0.0000000000
      6070      1995  TIP3      OH2           -12.9478904949      -11.8561683542       -6.7785061241  SOLV      1984            0.0000000000
      6071      1995  TIP3      H1            -13.6715884445      -11.3995748684       -7.2579423368  SOLV      1984            0.0000000000
      6072      1995  TIP3      H2            -13.3626120826      -12.6977953120       -6.5627260756  SOLV      1984            0.0000000000
      6073      1996  TIP3      OH2            -2.4242090772       -5.6041304194      -14.6748015622  SOLV      1985            0.0000000000
      6074      1996  TIP3      H1             -2.3497512821       -4.6331383665      -14.7939082524  SOLV      1985            0.0000000000
      6075      1996  TIP3      H2             -1.4925059542       -5.8827458618      -14.8019444922  SOLV      1985            0.0000000000
      6076      1997  TIP3      OH2           -15.2149401387       -7.9957159700        2.4398547095  SOLV      1986            0.0000000000
      6077      1997  TIP3      H1            -15.8245381183       -8.1953757521        1.7028283591  SOLV      1986            0.0000000000
      6078      1997  TIP3      H2            -14.7942289547       -8.8601498064        2.6143202253  SOLV      1986            0.0000000000
      6079      1998  TIP3      OH2           -16.5409528082       -6.0633377896       -1.2900401541  SOLV      1987            0.0000000000
      6080      1998  TIP3      H1            -15.6136220469       -6.2370677656       -1.5113843225  SOLV      1987            0.0000000000
      6081      1998  TIP3      H2            -16.4457981001       -5.3316244759       -0.6612594952  SOLV      1987            0.0000000000
      6082      1999  TIP3      OH2             1.7028237273       -1.7911701283       -1.0463102927  SOLV      1988            0.0000000000
      6083      1999  TIP3      H1              2.0577188085       -2.6031321492       -0.6294392905  SOLV      1988            0.0000000000
      6084      1999  TIP3      H2              2.0536529714       -1.0785806959       -0.5197005835  SOLV      1988            0.0000000000
      6085      2000  TIP3      OH2            -9.3012365042       -2.4303400122       -9.8781855670  SOLV      1989            0.0000000000
      6086      2000  TIP3      H1             -9.8148010443       -2.5595582057      -10.6925713312  SOLV      1989            0.0000000000
      6087      2000  TIP3      H2             -9.6307987460       -1.5711244045       -9.5552708369  SOLV      1989            0.0000000000
      6088      2001  TIP3      OH2           -14.9623658361       -3.9475843304       -6.0116999346  SOLV      1990            0.0000000000
      6089      2001  TIP3      H1            -14.4709767111       -3.9957353307       -5.1574277664  SOLV      1990            0.0000000000
      6090      2001  TIP3      H2            -15.4276611983       -4.7966179185       -5.9994961575  SOLV      1990            0.0000000000
      6091      2002  TIP3      OH2            -7.3224717098       -3.3885397340      -13.4771394513  SOLV      1991            0.0000000000
      6092      2002  TIP3      H1             -6.7402978569       -4.1035338060      -13.8147467198  SOLV      1991            0.0000000000
      6093      2002  TIP3      H2             -6.9830911296       -3.2772360472      -12.5622239220  SOLV      1991            0.0000000000
      6094      2003  TIP3      OH2            -6.7880225357       -2.9001487354      -10.7958098912  SOLV      1992            0.0000000000
      6095      2003  TIP3      H1             -7.6699900094       -2.8159439313      -10.3648606474  SOLV      1992            0.0000000000
      6096      2003  TIP3      H2             -6.2534622106       -3.2269205678      -10.0543894124  SOLV      1992            0.0000000000
      6097      2004  TIP3      OH2           -13.0145841150       -6.0234101836        2.3712594589  SOLV      1993            0.0000000000
      6098      2004  TIP3      H1            -12.4346679502       -5.7779389469        3.1185827988  SOLV      1993            0.0000000000
      6099      2004  TIP3      H2            -13.6219409146       -6.6910017420        2.7267793302  SOLV      1993            0.0000000000
      6100      2005  TIP3      OH2            -9.1540487456      -17.9362081604        0.1619781817  SOLV      1994            0.0000000000
      6101      2005  TIP3      H1            -10.0404082895      -18.2370231142       -0.1316208258  SOLV      1994            0.0000000000
      6102      2005  TIP3      H2             -9.4184058647      -17.1268197316        0.6441264184  SOLV      1994            0.0000000000
      6103      2006  TIP3      OH2            -3.8127631933      -16.8326943969        2.0852767840  SOLV      1995            0.0000000000
      6104      2006  TIP3      H1             -3.1287044988      -17.0631575355        2.7457788333  SOLV      1995            0.0000000000
      6105      2006  TIP3      H2             -4.6485353240      -16.9998874442        2.5685493802  SOLV      1995            0.0000000000
      6106      2007  TIP3      OH2            -1.2749542777      -12.3026093976        1.4221576196  SOLV      1996            0.0000000000
      6107      2007  TIP3      H1             -1.8985032143      -12.4464446012        2.1681441690  SOLV      1996            0.0000000000
      6108      2007  TIP3      H2             -1.6560416594      -11.5127742220        0.9807968977  SOLV      1996            0.0000000000
      6109      2008  TIP3      OH2            -4.8193576746      -11.3146234011      -13.2101822772  SOLV      1997            0.0000000000
      6110      2008  TIP3      H1             -5.1640621104      -11.4835202974      -14.1069524502  SOLV      1997            0.0000000000
      6111      2008  TIP3      H2             -3.9981676472      -10.8266073640      -13.4151154740  SOLV      1997            0.0000000000
      6112      2009  TIP3      OH2            -7.6764261475      -17.4934259606      -10.1504724328  SOLV      1998            0.0000000000
      6113      2009  TIP3      H1             -8.0351289579      -17.4957250996       -9.2415397448  SOLV      1998            0.0000000000
      6114      2009  TIP3      H2             -8.1052460429      -18.3008019610      -10.4955351902  SOLV      1998            0.0000000000
      6115      2010  TIP3      OH2            -9.8307387005      -12.7697803856        0.2702686573  SOLV      1999            0.0000000000
      6116      2010  TIP3      H1            -10.2910123312      -12.5648688092        1.1102491037  SOLV      1999            0.0000000000
      6117      2010  TIP3      H2            -10.0058065567      -11.9456086556       -0.2406131699  SOLV      1999            0.0000000000
      6118      2011  TIP3      OH2           -10.9876712973      -13.9240375455       -4.5550292139  SOLV      2000            0.0000000000
      6119      2011  TIP3      H1            -11.9161910179      -14.1732356242       -4.3570658650  SOLV      2000            0.0000000000
      6120      2011  TIP3      H2            -10.8865089603      -14.3364620949       -5.4422987002  SOLV      2000            0.0000000000
      6121      2012  TIP3      OH2            -6.1019461284      -13.0795419833       -7.2424080843  SOLV      2001            0.0000000000
      6122      2012  TIP3      H1             -6.6089799485      -12.3566062539       -7.6755139326  SOLV      2001            0.0000000000
      6123      2012  TIP3      H2             -5.5485026610      -13.3988150603       -7.9802191897  SOLV      2001            0.0000000000
      6124      2013  TIP3      OH2            -4.2769310866      -10.4355653051        3.3993478322  SOLV      2002            0.0000000000
      6125      2013  TIP3      H1             -4.5389643647      -11.0383475172        4.1261864876  SOLV      2002            0.0000000000
      6126      2013  TIP3      H2             -3.4604139653      -10.0460831478        3.7536354194  SOLV      2002            0.0000000000
      6127      2014  TIP3      OH2            -4.5348098597      -12.8309596267       -4.8758943087  SOLV      2003            0.0000000000
      6128      2014  TIP3      H1             -5.1686955407      -12.4997136159       -5.5438974332  SOLV      2003            0.0000000000
      6129      2014  TIP3      H2             -4.2041904397      -13.6114634418       -5.3653651258  SOLV      2003            0.0000000000
      6130      2015  TIP3      OH2           -11.6452212476      -12.5083587191        2.3706447888  SOLV      2004            0.0000000000
      6131      2015  TIP3      H1            -11.3438293110      -11.8296374955        2.9950744714  SOLV      2004            0.0000000000
      6132      2015  TIP3      H2            -11.7461661455      -13.2921046717        2.9409085898  SOLV      2004            0.0000000000
      6133      2016  TIP3      OH2           -11.0988020967      -17.6958371790      -10.4988301508  SOLV      2005            0.0000000000
      6134      2016  TIP3      H1            -11.2260159079      -17.7118896714       -9.5288494525  SOLV      2005            0.0000000000
      6135      2016  TIP3      H2            -11.8867297262      -17.1908568733      -10.7756294050  SOLV      2005            0.0000000000
      6136      2017  TIP3      OH2           -15.7041899298      -17.3294126487       -1.7684127731  SOLV      2006            0.0000000000
      6137      2017  TIP3      H1            -14.9704181413      -16.9736621554       -1.2249336057  SOLV      2006            0.0000000000
      6138      2017  TIP3      H2            -15.2735533536      -17.5708714438       -2.5977271602  SOLV      2006            0.0000000000
      6139      2018  TIP3      OH2           -16.0995418266      -17.4880581294       -6.6157811965  SOLV      2007            0.0000000000
      6140      2018  TIP3      H1            -15.6522842849      -17.1042681210       -7.4017355030  SOLV      2007            0.0000000000
      6141      2018  TIP3      H2            -16.7053790300      -16.7532611169       -6.4014844579  SOLV      2007            0.0000000000
      6142      2019  TIP3      OH2            -4.4189814629      -10.3657500365       -0.7065960971  SOLV      2008            0.0000000000
      6143      2019  TIP3      H1             -4.0921308989      -11.0755662984       -1.3038406617  SOLV      2008            0.0000000000
      6144      2019  TIP3      H2             -4.7580498909      -10.9028081530        0.0388250036  SOLV      2008            0.0000000000
      6145      2020  TIP3      OH2            -7.6421128719      -15.7996695219       -3.9581107649  SOLV      2009            0.0000000000
      6146      2020  TIP3      H1             -8.4725778385      -15.7654798731       -3.4388064802  SOLV      2009            0.0000000000
      6147      2020  TIP3      H2             -6.9718003502      -15.7302615246       -3.2591164557  SOLV      2009            0.0000000000
      6148      2021  TIP3      OH2           -13.3720513916      -15.1108801537       -3.8843189552  SOLV      2010            0.0000000000
      6149      2021  TIP3      H1            -14.3145995966      -15.0363683741       -4.1678450905  SOLV      2010            0.0000000000
      6150      2021  TIP3      H2            -13.1470522717      -16.0318972319       -4.1093839350  SOLV      2010            0.0000000000
      6151      2022  TIP3      OH2           -10.7358688054      -15.2103172860       -6.9520192166  SOLV      2011            0.0000000000
      6152      2022  TIP3      H1             -9.8050208359      -15.0253918719       -7.1766526689  SOLV      2011            0.0000000000
      6153      2022  TIP3      H2            -11.2187862747      -14.9640675316       -7.7748139746  SOLV      2011            0.0000000000
      6154      2023  TIP3      OH2            -2.7386814933      -14.9954297921       -1.9663083169  SOLV      2012            0.0000000000
      6155      2023  TIP3      H1             -2.9898747758      -14.8516921045       -1.0224239631  SOLV      2012            0.0000000000
      6156      2023  TIP3      H2             -3.4793881063      -15.5618233503       -2.2541039856  SOLV      2012            0.0000000000
      6157      2024  TIP3      OH2           -12.2023981342      -14.8507972029       -9.2172691471  SOLV      2013            0.0000000000
      6158      2024  TIP3      H1            -12.9109148543      -15.2979854524       -9.7137757030  SOLV      2013            0.0000000000
      6159      2024  TIP3      H2            -11.6857848695      -14.4603402626       -9.9531243608  SOLV      2013            0.0000000000
      6160      2025  TIP3      OH2            -6.9085469605      -12.4149197051       -2.9502118959  SOLV      2014            0.0000000000
      6161      2025  TIP3      H1             -6.1414442083      -12.7933227111       -3.4015886972  SOLV      2014            0.0000000000
      6162      2025  TIP3      H2             -6.8681297847      -12.8323073966       -2.0675983058  SOLV      2014            0.0000000000
      6163      2026  TIP3      OH2           -11.7280628256      -17.5599398926       -4.1038435774  SOLV      2015            0.0000000000
      6164      2026  TIP3      H1            -12.0879649996      -18.3272952911       -3.6067795955  SOLV      2015            0.0000000000
      6165      2026  TIP3      H2            -11.3323010390      -17.9924831686       -4.8693364627  SOLV      2015            0.0000000000
      6166      2027  TIP3      OH2            -7.1453786543      -13.3840212895       -0.1051661086  SOLV      2016            0.0000000000
      6167      2027  TIP3      H1             -8.0477887194      -13.0382797586        0.0590447438  SOLV      2016            0.0000000000
      6168      2027  TIP3      H2             -6.5791324620      -12.7739501509        0.4117214243  SOLV      2016            0.0000000000
      6169      2028  TIP3      OH2            -9.7495177883       -9.5804483820       -9.1397211888  SOLV      2017            0.0000000000
      6170      2028  TIP3      H1            -10.4969272893      -10.2023033626       -9.2701452475  SOLV      2017            0.0000000000
      6171      2028  TIP3      H2             -9.9574011820       -9.2283769868       -8.2379711199  SOLV      2017            0.0000000000
      6172      2029  TIP3      OH2            -0.7444183658       -7.2101254499       -2.8701970339  SOLV      2018            0.0000000000
      6173      2029  TIP3      H1             -0.4995847080       -6.6952460052       -3.6722148712  SOLV      2018            0.0000000000
      6174      2029  TIP3      H2             -1.6044188382       -7.6008394889       -3.1334718265  SOLV      2018            0.0000000000
      6175      2030  TIP3      OH2            -5.1876128674      -16.4557849994      -10.4367243271  SOLV      2019            0.0000000000
      6176      2030  TIP3      H1             -6.1495708057      -16.6590111308      -10.3468812233  SOLV      2019            0.0000000000
      6177      2030  TIP3      H2             -5.1321750433      -15.5099384616      -10.1925048332  SOLV      2019            0.0000000000
      6178      2031  TIP3      OH2            -5.5599062049       -6.5191428204        0.6574947423  SOLV      2020            0.0000000000
      6179      2031  TIP3      H1             -5.4546262470       -6.7582718030        1.5886443481  SOLV      2020            0.0000000000
      6180      2031  TIP3      H2             -6.1209126328       -5.7330802988        0.6896756731  SOLV      2020            0.0000000000
      6181      2032  TIP3      OH2            -4.5210941516      -13.9422041123       -9.4287459381  SOLV      2021            0.0000000000
      6182      2032  TIP3      H1             -3.5595719522      -13.8512309123       -9.2857498680  SOLV      2021            0.0000000000
      6183      2032  TIP3      H2             -4.7391637275      -13.1332561152       -9.9345793258  SOLV      2021            0.0000000000
      6184      2033  TIP3      OH2           -12.8882675926       -9.3882228887       -2.4067802143  SOLV      2022            0.0000000000
      6185      2033  TIP3      H1            -12.4431028335       -9.6285024088       -3.2454958458  SOLV      2022            0.0000000000
      6186      2033  TIP3      H2            -12.3553531999       -9.8695982385       -1.7556699101  SOLV      2022            0.0000000000
      6187      2034  TIP3      OH2            -8.3150031371       -8.0544875919      -10.9047935246  SOLV      2023            0.0000000000
      6188      2034  TIP3      H1             -8.8060881844       -7.1998157958      -10.8590941823  SOLV      2023            0.0000000000
      6189      2034  TIP3      H2             -8.8511016953       -8.6100497643      -10.2975765644  SOLV      2023            0.0000000000
      6190      2035  TIP3      OH2           -13.9651348523      -10.1096010002        3.7954515368  SOLV      2024            0.0000000000
      6191      2035  TIP3      H1            -13.7275029151      -10.2171003398        4.7392088825  SOLV      2024            0.0000000000
      6192      2035  TIP3      H2            -14.6653317700      -10.7759139938        3.6941358654  SOLV      2024            0.0000000000
      6193      2036  TIP3      OH2            -6.7232405847       -9.2715910793        4.1355573927  SOLV      2025            0.0000000000
      6194      2036  TIP3      H1             -7.3442117043       -9.4979450594        3.4337291443  SOLV      2025            0.0000000000
      6195      2036  TIP3      H2             -5.8670423587       -9.3361910965        3.6760546343  SOLV      2025            0.0000000000
      6196      2037  TIP3      OH2            -0.1002277446      -13.0015961105      -11.1172069308  SOLV      2026            0.0000000000
      6197      2037  TIP3      H1             -0.7125021133      -13.4472909194      -11.7500190610  SOLV      2026            0.0000000000
      6198      2037  TIP3      H2             -0.1540200399      -12.0994439296      -11.5057310293  SOLV      2026            0.0000000000
      6199      2038  TIP3      OH2             1.9779894232       -4.5104757562       -0.1684622295  SOLV      2027            0.0000000000
      6200      2038  TIP3      H1              1.0665946694       -4.5010009513       -0.5259143555  SOLV      2027            0.0000000000
      6201      2038  TIP3      H2              2.4865205466       -4.6740523944       -0.9927440000  SOLV      2027            0.0000000000
      6202      2039  TIP3      OH2            -3.0303262827       -4.8172311307      -11.9745714079  SOLV      2028            0.0000000000
      6203      2039  TIP3      H1             -3.3514409600       -5.4500247780      -11.3151094365  SOLV      2028            0.0000000000
      6204      2039  TIP3      H2             -2.9565738957       -5.3509647184      -12.7835062982  SOLV      2028            0.0000000000
      6205      2040  TIP3      OH2            -3.0860296810       -8.5422882550       -3.7190149360  SOLV      2029            0.0000000000
      6206      2040  TIP3      H1             -4.0292665605       -8.7543772019       -3.5608424963  SOLV      2029            0.0000000000
      6207      2040  TIP3      H2             -2.7966710957       -9.3535245730       -4.1751761936  SOLV      2029            0.0000000000
      6208      2041  TIP3      OH2           -11.8284236898       -6.3125123636       -6.2320878529  SOLV      2030            0.0000000000
      6209      2041  TIP3      H1            -11.8307498694       -5.4504514002       -6.6872303745  SOLV      2030            0.0000000000
      6210      2041  TIP3      H2            -12.7202810112       -6.3461815241       -5.8757018961  SOLV      2030            0.0000000000
      6211      2042  TIP3      OH2           -16.1486596683      -13.2476414957       -9.0075849481  SOLV      2031            0.0000000000
      6212      2042  TIP3      H1            -15.7076821594      -12.3979599813       -8.7935113132  SOLV      2031            0.0000000000
      6213      2042  TIP3      H2            -16.9344105375      -13.1972335509       -8.4188523856  SOLV      2031            0.0000000000
      6214      2043  TIP3      OH2           -10.5123272929       -8.6690679756       -6.7186681011  SOLV      2032            0.0000000000
      6215      2043  TIP3      H1            -10.8616753824       -7.7651971192       -6.5604900029  SOLV      2032            0.0000000000
      6216      2043  TIP3      H2            -10.8555321226       -9.1379163435       -5.9368495843  SOLV      2032            0.0000000000
      6217      2044  TIP3      OH2           -12.6656097384       -3.8492427901       -7.6104617306  SOLV      2033            0.0000000000
      6218      2044  TIP3      H1            -13.5104180887       -3.7692118443       -7.1265009251  SOLV      2033            0.0000000000
      6219      2044  TIP3      H2            -12.3347827306       -2.9234988611       -7.5493351208  SOLV      2033            0.0000000000
      6220      2045  TIP3      OH2            -5.2169108838       -6.9066631930       -2.0010316251  SOLV      2034            0.0000000000
      6221      2045  TIP3      H1             -5.3326563720       -6.7183850393       -1.0453313715  SOLV      2034            0.0000000000
      6222      2045  TIP3      H2             -4.2753179063       -7.0687165168       -2.0660185242  SOLV      2034            0.0000000000
      6223      2046  TIP3      OH2            -5.4843977693       -7.5239766028      -13.0008256911  SOLV      2035            0.0000000000
      6224      2046  TIP3      H1             -4.9267368295       -7.8001580729      -12.2336508999  SOLV      2035            0.0000000000
      6225      2046  TIP3      H2             -6.3570657063       -7.8101777885      -12.6898598291  SOLV      2035            0.0000000000
      6226      2047  TIP3      OH2            -2.1172817375       -2.8312448146      -14.8316797365  SOLV      2036            0.0000000000
      6227      2047  TIP3      H1             -1.7455956811       -2.0587916703      -15.2888178640  SOLV      2036            0.0000000000
      6228      2047  TIP3      H2             -2.9221251418       -2.4178183144      -14.4544962475  SOLV      2036            0.0000000000
      6229      2048  TIP3      OH2           -11.9322324501      -15.0849320858        3.8190653393  SOLV      2037            0.0000000000
      6230      2048  TIP3      H1            -12.8997366664      -15.0389329349        3.9319638262  SOLV      2037            0.0000000000
      6231      2048  TIP3      H2            -11.6678475802      -15.6209509670        4.5827613708  SOLV      2037            0.0000000000
      6232      2049  TIP3      OH2            -3.8541994986       -8.3506289337      -10.9800337693  SOLV      2038            0.0000000000
      6233      2049  TIP3      H1             -3.9651582228       -8.9182414871      -10.1927600275  SOLV      2038            0.0000000000
      6234      2049  TIP3      H2             -2.8780166231       -8.3019741981      -11.0228976794  SOLV      2038            0.0000000000
      6235      2050  TIP3      OH2           -14.7454801609       -4.2114258860        0.2296555748  SOLV      2039            0.0000000000
      6236      2050  TIP3      H1            -14.1567734806       -4.9339610538        0.5128121835  SOLV      2039            0.0000000000
      6237      2050  TIP3      H2            -14.2428644438       -3.4470236941        0.5401473804  SOLV      2039            0.0000000000
      6238      2051  TIP3      OH2           -11.8670033298       -7.7687982735      -12.9959493222  SOLV      2040            0.0000000000
      6239      2051  TIP3      H1            -11.7380045847       -8.7049154095      -13.2352045421  SOLV      2040            0.0000000000
      6240      2051  TIP3      H2            -12.0607538765       -7.8406432190      -12.0391384444  SOLV      2040            0.0000000000
      6241      2052  TIP3      OH2           -12.4368240040       -7.7002854454      -10.2844563857  SOLV      2041            0.0000000000
      6242      2052  TIP3      H1            -11.7291895406       -7.9707609652       -9.6854595342  SOLV      2041            0.0000000000
      6243      2052  TIP3      H2            -12.4125527937       -6.7206015091      -10.1841888777  SOLV      2041            0.0000000000
      6244      2053  TIP3      OH2           -15.0918843032      -10.7992743588       -8.2164960859  SOLV      2042            0.0000000000
      6245      2053  TIP3      H1            -15.7563025281      -10.3436562321       -7.6559182651  SOLV      2042            0.0000000000
      6246      2053  TIP3      H2            -14.9505895440      -10.1150840681       -8.8991490201  SOLV      2042            0.0000000000
      6247      2054  TIP3      OH2            -3.3379790778      -14.5285925427        0.6505739531  SOLV      2043            0.0000000000
      6248      2054  TIP3      H1             -2.7579681864      -14.0824104141        1.2820458867  SOLV      2043            0.0000000000
      6249      2054  TIP3      H2             -3.6169691367      -15.3166758050        1.1641848298  SOLV      2043            0.0000000000
      6250      2055  TIP3      OH2            -4.6725703106      -16.9731309365       -7.6205700626  SOLV      2044            0.0000000000
      6251      2055  TIP3      H1             -4.8529859671      -16.7353675877       -8.5505129385  SOLV      2044            0.0000000000
      6252      2055  TIP3      H2             -4.2818213727      -16.1436507781       -7.2702704568  SOLV      2044            0.0000000000
      6253      2056  TIP3      OH2            -9.7538342619       -5.7639597522      -10.8384159470  SOLV      2045            0.0000000000
      6254      2056  TIP3      H1            -10.6160561200       -5.5239637462      -10.4454497597  SOLV      2045            0.0000000000
      6255      2056  TIP3      H2             -9.5465393570       -4.9428286058      -11.3040168553  SOLV      2045            0.0000000000
      6256      2057  TIP3      OH2            -7.8817677092      -15.1034809612       -6.6404488083  SOLV      2046            0.0000000000
      6257      2057  TIP3      H1             -7.2538241264      -14.3681976681       -6.8128660721  SOLV      2046            0.0000000000
      6258      2057  TIP3      H2             -7.8176580250      -15.1838181316       -5.6658749086  SOLV      2046            0.0000000000
      6259      2058  TIP3      OH2            -5.1818248154      -12.0022710032        1.3592947282  SOLV      2047            0.0000000000
      6260      2058  TIP3      H1             -4.9520050707      -11.3819291504        2.0895879110  SOLV      2047            0.0000000000
      6261      2058  TIP3      H2             -4.6577522247      -12.7787097612        1.5980176801  SOLV      2047            0.0000000000
      6262      2059  TIP3      OH2            -6.4457972470      -17.9113733873       -5.6339836284  SOLV      2048            0.0000000000
      6263      2059  TIP3      H1             -6.6228707513      -17.1123125275       -5.0987646363  SOLV      2048            0.0000000000
      6264      2059  TIP3      H2             -5.8039232726      -17.5588455058       -6.2908792413  SOLV      2048            0.0000000000
      6265      2060  TIP3      OH2           -12.2864514593       -4.9830984980      -10.0864371495  SOLV      2049            0.0000000000
      6266      2060  TIP3      H1            -12.5702236567       -4.2669104869      -10.6960922733  SOLV      2049            0.0000000000
      6267      2060  TIP3      H2            -12.4293695504       -4.5550424064       -9.2115935867  SOLV      2049            0.0000000000
      6268      2061  TIP3      OH2           -11.2921857224      -17.8595838385       -7.7385438852  SOLV      2050            0.0000000000
      6269      2061  TIP3      H1            -11.3434980192      -16.9571449236       -7.3665905979  SOLV      2050            0.0000000000
      6270      2061  TIP3      H2            -10.3247645484      -18.0063356338       -7.6674139866  SOLV      2050            0.0000000000
      6271      2062  TIP3      OH2             1.3277316389      -12.5721187545        1.0853103877  SOLV      2051            0.0000000000
      6272      2062  TIP3      H1              0.3836188061      -12.5027318376        1.3590183638  SOLV      2051            0.0000000000
      6273      2062  TIP3      H2              1.2565456561      -13.3797206748        0.5701508309  SOLV      2051            0.0000000000
      6274      2063  TIP3      OH2            -2.2569455665      -11.0385536923       -4.9251160125  SOLV      2052            0.0000000000
      6275      2063  TIP3      H1             -3.0588209664      -11.5650694353       -4.7569225998  SOLV      2052            0.0000000000
      6276      2063  TIP3      H2             -1.5831667518      -11.5082225439       -4.3947697370  SOLV      2052            0.0000000000
      6277      2064  TIP3      OH2           -15.0957330969       -8.7556917391      -10.1934584127  SOLV      2053            0.0000000000
      6278      2064  TIP3      H1            -14.3753853175       -8.1041356161      -10.1012472866  SOLV      2053            0.0000000000
      6279      2064  TIP3      H2            -14.6777001778       -9.3487843607      -10.8561042574  SOLV      2053            0.0000000000
      6280      2065  TIP3      OH2           -15.7033357929      -15.9675818276       -8.8608687824  SOLV      2054            0.0000000000
      6281      2065  TIP3      H1            -15.6909357903      -14.9878300087       -8.8599478341  SOLV      2054            0.0000000000
      6282      2065  TIP3      H2            -16.5045715330      -16.1555779631       -9.3557310072  SOLV      2054            0.0000000000
      6283      2066  TIP3      OH2            -2.5572925927       -1.6141663502       -5.5606618859  SOLV      2055            0.0000000000
      6284      2066  TIP3      H1             -3.0029640406       -1.0410585081       -6.2188056470  SOLV      2055            0.0000000000
      6285      2066  TIP3      H2             -1.6363260293       -1.2942255513       -5.6713726004  SOLV      2055            0.0000000000
      6286      2067  TIP3      OH2           -11.7747627510      -18.7581139764       -0.1715813152  SOLV      2056            0.0000000000
      6287      2067  TIP3      H1            -12.1028547104      -19.0871476534       -1.0356433516  SOLV      2056            0.0000000000
      6288      2067  TIP3      H2            -11.9101009163      -19.5361315896        0.4063522056  SOLV      2056            0.0000000000
      6289      2068  TIP3      OH2           -16.4873267762       -6.5972443831       -6.3557924098  SOLV      2057            0.0000000000
      6290      2068  TIP3      H1            -17.0790472928       -6.2563289379       -5.6746514234  SOLV      2057            0.0000000000
      6291      2068  TIP3      H2            -16.8009641153       -6.1225591466       -7.1550368144  SOLV      2057            0.0000000000
      6292      2069  TIP3      OH2           -14.8566954304       -1.1312184574        4.4585090217  SOLV      2058            0.0000000000
      6293      2069  TIP3      H1            -13.9802444506       -1.1250183332        4.9073371183  SOLV      2058            0.0000000000
      6294      2069  TIP3      H2            -15.0375845696       -2.0860852564        4.4064440898  SOLV      2058            0.0000000000
      6295      2070  TIP3      OH2           -10.1434835341       -1.4492601517        4.7399670818  SOLV      2059            0.0000000000
      6296      2070  TIP3      H1             -9.2446217380       -1.6098887028        5.0674149902  SOLV      2059            0.0000000000
      6297      2070  TIP3      H2            -10.2519530471       -2.2124670342        4.1406636566  SOLV      2059            0.0000000000
      6298      2071  TIP3      OH2           -10.2529946355       -5.7615103271      -13.9493225594  SOLV      2060            0.0000000000
      6299      2071  TIP3      H1            -10.8011169181       -6.4577662511      -13.5157671644  SOLV      2060            0.0000000000
      6300      2071  TIP3      H2             -9.4760168590       -6.2837262382      -14.2081871390  SOLV      2060            0.0000000000
      6301      2072  TIP3      OH2            -5.8734645836       -5.3736652937      -14.7442448514  SOLV      2061            0.0000000000
      6302      2072  TIP3      H1             -5.5116198333       -6.0374118780      -14.1217896048  SOLV      2061            0.0000000000
      6303      2072  TIP3      H2             -5.2576176654       -5.4249602481      -15.4966141770  SOLV      2061            0.0000000000
      6304      2073  TIP3      OH2           -13.9060000140       -7.1397970378        6.7615022337  SOLV      2062            0.0000000000
      6305      2073  TIP3      H1            -13.1872728050       -7.6007178976        6.3117627776  SOLV      2062            0.0000000000
      6306      2073  TIP3      H2            -14.5878847296       -7.0745400877        6.0618575272  SOLV      2062            0.0000000000
      6307      2074  TIP3      OH2           -13.7294312188      -10.6265010961      -11.6344454377  SOLV      2063            0.0000000000
      6308      2074  TIP3      H1            -13.1580630208      -10.9062202746      -10.8955935592  SOLV      2063            0.0000000000
      6309      2074  TIP3      H2            -13.0603938783      -10.5641594321      -12.3511101120  SOLV      2063            0.0000000000
      6310      2075  TIP3      OH2            -8.5658471376       -8.5674361012      -13.5917968568  SOLV      2064            0.0000000000
      6311      2075  TIP3      H1             -8.5782785981       -8.4349577524      -12.6212953369  SOLV      2064            0.0000000000
      6312      2075  TIP3      H2             -8.5812580641       -9.5488304773      -13.6377149334  SOLV      2064            0.0000000000
      6313      2076  TIP3      OH2            -2.4657555016       -6.2674923535        0.3341490812  SOLV      2065            0.0000000000
      6314      2076  TIP3      H1             -1.8952197343       -5.6763890338       -0.2005022446  SOLV      2065            0.0000000000
      6315      2076  TIP3      H2             -3.3527911076       -5.9186182371        0.1752404340  SOLV      2065            0.0000000000
      6316      2077  TIP3      OH2           -12.2604212587       -9.8147353001        6.1501626678  SOLV      2066            0.0000000000
      6317      2077  TIP3      H1            -11.3607430345      -10.0797072535        5.9365776861  SOLV      2066            0.0000000000
      6318      2077  TIP3      H2            -12.1390905505       -9.4094607090        7.0343302873  SOLV      2066            0.0000000000
      6319      2078  TIP3      OH2           -11.7529084292      -11.4857363001       -9.5014856964  SOLV      2067            0.0000000000
      6320      2078  TIP3      H1            -12.0020100432      -11.8420953484       -8.6302343800  SOLV      2067            0.0000000000
      6321      2078  TIP3      H2            -11.3638573894      -12.2667110830       -9.9457934663  SOLV      2067            0.0000000000
      6322      2079  TIP3      OH2            -9.0305415973      -11.0254335861        2.7335350409  SOLV      2068            0.0000000000
      6323      2079  TIP3      H1             -9.7685124329      -10.3853062677        2.8240349546  SOLV      2068            0.0000000000
      6324      2079  TIP3      H2             -8.4995012317      -10.6106005496        2.0188748894  SOLV      2068            0.0000000000
      6325      2080  TIP3      OH2           -10.6472513090      -13.5484494338      -11.0631712050  SOLV      2069            0.0000000000
      6326      2080  TIP3      H1            -10.9118710624      -13.4623960964      -12.0023090784  SOLV      2069            0.0000000000
      6327      2080  TIP3      H2             -9.6725833865      -13.4949043369      -11.1449336826  SOLV      2069            0.0000000000
      6328      2081  TIP3      OH2            -3.8659441466       -7.3393747507        3.9305874115  SOLV      2070            0.0000000000
      6329      2081  TIP3      H1             -3.0632280690       -6.8139450068        3.9580432361  SOLV      2070            0.0000000000
      6330      2081  TIP3      H2             -3.9696513002       -7.6254743922        4.8510843439  SOLV      2070            0.0000000000
      6331      2082  TIP3      OH2            -2.4784458539      -10.3035521655      -14.3707186345  SOLV      2071            0.0000000000
      6332      2082  TIP3      H1             -2.6928912615      -10.7330865507      -15.2209774860  SOLV      2071            0.0000000000
      6333      2082  TIP3      H2             -2.7995736991       -9.3927377688      -14.5710631218  SOLV      2071            0.0000000000
      6334      2083  TIP3      OH2            -7.7074019336      -12.9754899518        4.0729561523  SOLV      2072            0.0000000000
      6335      2083  TIP3      H1             -7.7250261159      -13.7510694362        3.4807970981  SOLV      2072            0.0000000000
      6336      2083  TIP3      H2             -8.1589252740      -12.2945219975        3.5209484387  SOLV      2072            0.0000000000
      6337      2084  TIP3      OH2            -7.7066926045      -15.1248642244        2.1363053937  SOLV      2073            0.0000000000
      6338      2084  TIP3      H1             -7.4538870719      -14.6787472372        1.3048666606  SOLV      2073            0.0000000000
      6339      2084  TIP3      H2             -8.6490511587      -15.3397851169        1.9670425079  SOLV      2073            0.0000000000
      6340      2085  TIP3      OH2            -7.4749370825       -9.7232374015        0.9482097093  SOLV      2074            0.0000000000
      6341      2085  TIP3      H1             -6.6376074587       -9.5189345719        0.5191233659  SOLV      2074            0.0000000000
      6342      2085  TIP3      H2             -8.0857822493       -9.1083694492        0.4794852565  SOLV      2074            0.0000000000
      6343      2086  TIP3      OH2            -1.7342715684      -10.0925972118        4.7746658999  SOLV      2075            0.0000000000
      6344      2086  TIP3      H1             -1.1691935252      -10.8663892179        4.9012294323  SOLV      2075            0.0000000000
      6345      2086  TIP3      H2             -1.1336785584       -9.4294593003        4.4060799943  SOLV      2075            0.0000000000
      6346      2087  TIP3      OH2            -0.9140048852       -7.7241883206        1.9789482489  SOLV      2076            0.0000000000
      6347      2087  TIP3      H1             -1.5756098097       -7.1718332614        1.4950121025  SOLV      2076            0.0000000000
      6348      2087  TIP3      H2             -0.0905730821       -7.4479222508        1.5203109489  SOLV      2076            0.0000000000
      6349      2088  TIP3      OH2            -8.9428898118      -11.9551166604        6.4540694286  SOLV      2077            0.0000000000
      6350      2088  TIP3      H1             -9.6381310108      -12.6354441618        6.5625345243  SOLV      2077            0.0000000000
      6351      2088  TIP3      H2             -8.6314077752      -12.1304282458        5.5464449743  SOLV      2077            0.0000000000
      6352      2089  TIP3      OH2            -6.4223084355      -17.5015208797        2.8812150201  SOLV      2078            0.0000000000
      6353      2089  TIP3      H1             -6.9020091803      -16.6817499596        2.6303512877  SOLV      2078            0.0000000000
      6354      2089  TIP3      H2             -7.1211222747      -18.1775495547        2.7667929092  SOLV      2078            0.0000000000
      6355      2090  TIP3      OH2            -5.1165086445      -12.5177259790        4.9879525181  SOLV      2079            0.0000000000
      6356      2090  TIP3      H1             -5.3233239072      -12.6092942341        5.9360290690  SOLV      2079            0.0000000000
      6357      2090  TIP3      H2             -6.0138192162      -12.6762750778        4.6211007163  SOLV      2079            0.0000000000
      6358      2091  TIP3      OH2            -2.8017602299      -13.1575684168        3.4840231528  SOLV      2080            0.0000000000
      6359      2091  TIP3      H1             -3.5660955956      -12.9884334476        4.0741580583  SOLV      2080            0.0000000000
      6360      2091  TIP3      H2             -2.0904883651      -13.3436482084        4.1214312745  SOLV      2080            0.0000000000
      6361      2092  TIP3      OH2            -0.2950531421      -13.4913849223        5.0332256033  SOLV      2081            0.0000000000
      6362      2092  TIP3      H1             -0.2525085769      -14.4570206153        5.1978489309  SOLV      2081            0.0000000000
      6363      2092  TIP3      H2             -0.4504782200      -13.1339274833        5.9345862767  SOLV      2081            0.0000000000
      6364      2093  TIP3      OH2           -10.6110878953      -14.1460168301        6.9814617398  SOLV      2082            0.0000000000
      6365      2093  TIP3      H1            -10.5516655077      -15.0607315798        6.6506691629  SOLV      2082            0.0000000000
      6366      2093  TIP3      H2            -10.2327090219      -14.2500280385        7.8792557531  SOLV      2082            0.0000000000
      6367      2094  TIP3      OH2            -5.4883858265      -17.4040628983        5.4602821429  SOLV      2083            0.0000000000
      6368      2094  TIP3      H1             -4.8326857070      -18.1237265309        5.3808366914  SOLV      2083            0.0000000000
      6369      2094  TIP3      H2             -5.8938565121      -17.4333544710        4.5698466647  SOLV      2083            0.0000000000
      6370      2095  TIP3      OH2            -4.8145647665      -15.2682017458        7.0386547303  SOLV      2084            0.0000000000
      6371      2095  TIP3      H1             -5.0474249067      -15.9669637573        6.3877048373  SOLV      2084            0.0000000000
      6372      2095  TIP3      H2             -5.5807701511      -14.6586818072        6.9671022198  SOLV      2084            0.0000000000
      6373      2096  TIP3      OH2           -12.5698937915       -2.9681962289      -11.9930545720  SOLV      2085            0.0000000000
      6374      2096  TIP3      H1            -11.6188928223       -3.0775156567      -12.1797303899  SOLV      2085            0.0000000000
      6375      2096  TIP3      H2            -12.8272423587       -2.4252300035      -12.7600602447  SOLV      2085            0.0000000000
      6376      2097  TIP3      OH2           -17.7963033875       -9.1221105144       -9.8865804309  SOLV      2086            0.0000000000
      6377      2097  TIP3      H1            -16.8383917784       -8.9239509464       -9.9928395985  SOLV      2086            0.0000000000
      6378      2097  TIP3      H2            -17.8485284119      -10.0171094623      -10.2867055806  SOLV      2086            0.0000000000
      6379      2098  TIP3      OH2           -18.6382689955       -3.0484270506       -5.6274657049  SOLV      2087            0.0000000000
      6380      2098  TIP3      H1            -19.2885093031       -3.6680601902       -6.0223012683  SOLV      2087            0.0000000000
      6381      2098  TIP3      H2            -18.1758577854       -3.6434826481       -4.9979905132  SOLV      2087            0.0000000000
      6382      2099  TIP3      OH2           -17.2838206168       -4.6113844814       -3.8005692860  SOLV      2088            0.0000000000
      6383      2099  TIP3      H1            -17.3686953537       -5.2835173749       -3.1035811834  SOLV      2088            0.0000000000
      6384      2099  TIP3      H2            -16.7028472203       -3.9747397607       -3.3433829811  SOLV      2088            0.0000000000
      6385      2100  TIP3      OH2            -0.0128377416       -0.5967963653       -5.9347907684  SOLV      2089            0.0000000000
      6386      2100  TIP3      H1              0.1675546494       -0.4539974571       -4.9761093996  SOLV      2089            0.0000000000
      6387      2100  TIP3      H2              0.6482668183       -0.0222770863       -6.3398284039  SOLV      2089            0.0000000000
      6388      2101  TIP3      OH2             0.6637705694       -0.4482329818       -3.3342824076  SOLV      2090            0.0000000000
      6389      2101  TIP3      H1              0.3011406598       -1.2934528911       -3.0028239012  SOLV      2090            0.0000000000
      6390      2101  TIP3      H2              0.8706595438       -0.0309350478       -2.4834762043  SOLV      2090            0.0000000000
      6391      2102  TIP3      OH2             0.6982961740       -3.5555813034        2.9254904482  SOLV      2091            0.0000000000
      6392      2102  TIP3      H1             -0.0686976854       -3.4251739618        3.5275680655  SOLV      2091            0.0000000000
      6393      2102  TIP3      H2              0.9670959865       -2.6590283305        2.7215937845  SOLV      2091            0.0000000000
      6394      2103  TIP3      OH2            -1.0490058012       -8.4427224140      -11.0909569038  SOLV      2092            0.0000000000
      6395      2103  TIP3      H1             -0.4031635431       -7.7607726066      -11.3613728247  SOLV      2092            0.0000000000
      6396      2103  TIP3      H2             -0.6162422370       -8.8120987728      -10.2909471127  SOLV      2092            0.0000000000
      6397      2104  TIP3      OH2             0.2173891338       -9.7846041538       -9.0431744778  SOLV      2093            0.0000000000
      6398      2104  TIP3      H1             -0.4709983929      -10.1730952253       -8.4591676470  SOLV      2093            0.0000000000
      6399      2104  TIP3      H2              0.8398658070       -9.3863694412       -8.4005984161  SOLV      2093            0.0000000000
      6400      2105  TIP3      OH2             0.6262656331       -5.8668860257       -4.8256025161  SOLV      2094            0.0000000000
      6401      2105  TIP3      H1              1.2345320508       -6.4771299513       -5.2763285264  SOLV      2094            0.0000000000
      6402      2105  TIP3      H2              0.6445446876       -5.0842496173       -5.4087214624  SOLV      2094            0.0000000000
      6403      2106  TIP3      OH2            -1.1358564734       -2.8088438807       -2.8594237155  SOLV      2095            0.0000000000
      6404      2106  TIP3      H1             -1.7460835089       -2.0739099000       -2.7154743982  SOLV      2095            0.0000000000
      6405      2106  TIP3      H2             -1.5902893288       -3.3054472784       -3.5656975046  SOLV      2095            0.0000000000
      6406      2107  TIP3      OH2            -0.4474039562      -10.6672523099      -12.5854674105  SOLV      2096            0.0000000000
      6407      2107  TIP3      H1             -1.1798571152      -10.6345676935      -13.2437702949  SOLV      2096            0.0000000000
      6408      2107  TIP3      H2             -0.7024369038       -9.8994988319      -12.0301813254  SOLV      2096            0.0000000000
      6409      2108  TIP3      OH2            -1.7048183488      -13.9779936074      -13.0783426031  SOLV      2097            0.0000000000
      6410      2108  TIP3      H1             -2.2204156740      -13.5829886007      -13.7897226611  SOLV      2097            0.0000000000
      6411      2108  TIP3      H2             -1.9303522238      -14.9265386537      -13.1903306619  SOLV      2097            0.0000000000
      6412      2109  TIP3      OH2            -1.6878849032      -11.1539138848       -7.6046683343  SOLV      2098            0.0000000000
      6413      2109  TIP3      H1             -1.6465141773      -12.1212620267       -7.6624404109  SOLV      2098            0.0000000000
      6414      2109  TIP3      H2             -1.8596112913      -11.0112407160       -6.6461953575  SOLV      2098            0.0000000000
      6415      2110  TIP3      OH2           -15.4553445110      -10.4290629506       -0.0835180485  SOLV      2099            0.0000000000
      6416      2110  TIP3      H1            -15.4908055355      -10.7852331049       -0.9956421135  SOLV      2099            0.0000000000
      6417      2110  TIP3      H2            -14.4790961210      -10.4211595648        0.0658487107  SOLV      2099            0.0000000000
      6418      2111  TIP3      OH2             1.5203081766       -7.0322625967        0.8596458321  SOLV      2100            0.0000000000
      6419      2111  TIP3      H1              2.2293812466       -7.3119269369        0.2384011647  SOLV      2100            0.0000000000
      6420      2111  TIP3      H2              1.4554440164       -6.0975224078        0.5689591374  SOLV      2100            0.0000000000
      6421      2112  TIP3      OH2            -2.2874331222      -16.6524394201      -13.2772172626  SOLV      2101            0.0000000000
      6422      2112  TIP3      H1             -1.6216547083      -16.9539509101      -12.6297950154  SOLV      2101            0.0000000000
      6423      2112  TIP3      H2             -3.0834000320      -17.1639579448      -13.0452983333  SOLV      2101            0.0000000000
      6424      2113  TIP3      OH2            -1.7101246712      -13.9897531706       -8.6727463022  SOLV      2102            0.0000000000
      6425      2113  TIP3      H1             -1.2869869508      -14.8700733345       -8.5401226075  SOLV      2102            0.0000000000
      6426      2113  TIP3      H2             -1.1468765682      -13.6355917383       -9.3836021722  SOLV      2102            0.0000000000
      6427      2114  TIP3      OH2            -0.1314041672      -12.3518757155       -3.6468480909  SOLV      2103            0.0000000000
      6428      2114  TIP3      H1              0.7250890095      -12.0825643065       -4.0537184010  SOLV      2103            0.0000000000
      6429      2114  TIP3      H2             -0.0590087983      -11.9343959130       -2.7827795390  SOLV      2103            0.0000000000
      6430      2115  TIP3      OH2             1.0040338336      -10.4414068901       -0.7480964215  SOLV      2104            0.0000000000
      6431      2115  TIP3      H1              0.0253877214      -10.3490386969       -0.6363683878  SOLV      2104            0.0000000000
      6432      2115  TIP3      H2              1.1166037180       -9.8848522677       -1.5619347906  SOLV      2104            0.0000000000
      6433      2116  TIP3      OH2           -13.2887902131      -13.6566516658        6.5827990131  SOLV      2105            0.0000000000
      6434      2116  TIP3      H1            -12.3105954613      -13.6644367784        6.6614396877  SOLV      2105            0.0000000000
      6435      2116  TIP3      H2            -13.5062983263      -14.5027833009        7.0208141253  SOLV      2105            0.0000000000
      6436      2117  TIP3      OH2             5.1226171746      -14.9330846889        4.2064631926  SOLV      2106            0.0000000000
      6437      2117  TIP3      H1              5.7401043158      -15.5786776740        3.8067697843  SOLV      2106            0.0000000000
      6438      2117  TIP3      H2              4.8520960066      -14.4137676105        3.4200130951  SOLV      2106            0.0000000000
      6439      2118  TIP3      OH2            -0.6083588225      -16.5018054537       -8.2801831278  SOLV      2107            0.0000000000
      6440      2118  TIP3      H1             -0.1620747488      -16.6756309957       -7.4255241282  SOLV      2107            0.0000000000
      6441      2118  TIP3      H2             -1.2435799918      -17.2470839668       -8.3054673232  SOLV      2107            0.0000000000
      6442      2119  TIP3      OH2           -13.6191777858      -16.6589212643       -0.0757400036  SOLV      2108            0.0000000000
      6443      2119  TIP3      H1            -12.9867107114      -17.3977688320        0.0150397067  SOLV      2108            0.0000000000
      6444      2119  TIP3      H2            -13.0116075650      -15.9025934996       -0.1510217967  SOLV      2108            0.0000000000
      6445      2120  TIP3      OH2           -15.6365796551      -13.9481625513        0.6782916368  SOLV      2109            0.0000000000
      6446      2120  TIP3      H1            -15.1372431724      -13.9516219983       -0.1619054871  SOLV      2109            0.0000000000
      6447      2120  TIP3      H2            -15.3891120803      -13.0934227108        1.0473443911  SOLV      2109            0.0000000000
      6448      2121  TIP3      OH2             3.7852776915      -13.6739220603        2.2181734794  SOLV      2110            0.0000000000
      6449      2121  TIP3      H1              3.0019050018      -13.3176471619        2.6776974060  SOLV      2110            0.0000000000
      6450      2121  TIP3      H2              3.4080737159      -14.4231877240        1.7149794818  SOLV      2110            0.0000000000
      6451      2122  TIP3      OH2             0.1291071169      -17.2123486433      -11.8712708372  SOLV      2111            0.0000000000
      6452      2122  TIP3      H1              0.5254438788      -17.8743477170      -12.4741759653  SOLV      2111            0.0000000000
      6453      2122  TIP3      H2              0.7641373151      -16.4719123381      -11.9254954359  SOLV      2111            0.0000000000
      6454      2123  TIP3      OH2           -15.7652537054      -18.9315562004       -4.3463072486  SOLV      2112            0.0000000000
      6455      2123  TIP3      H1            -16.6842401719      -18.9649294877       -4.0307329865  SOLV      2112            0.0000000000
      6456      2123  TIP3      H2            -15.8387261606      -18.3298479314       -5.1162559270  SOLV      2112            0.0000000000
      6457      2124  TIP3      OH2            -4.2240456568       -1.8594642796       -9.2839561722  SOLV      2113            0.0000000000
      6458      2124  TIP3      H1             -3.6227475689       -1.9118144324      -10.0503503788  SOLV      2113            0.0000000000
      6459      2124  TIP3      H2             -3.7629328321       -1.2300869573       -8.6989904704  SOLV      2113            0.0000000000
      6460      2125  TIP3      OH2           -13.5567953279      -18.1448528236        3.7646388731  SOLV      2114            0.0000000000
      6461      2125  TIP3      H1            -14.0596937058      -18.1337811319        4.5963395062  SOLV      2114            0.0000000000
      6462      2125  TIP3      H2            -14.2002618143      -17.7166133248        3.1646635096  SOLV      2114            0.0000000000
      6463      2126  TIP3      OH2           -11.3257965611       -3.7687177717       -0.2334878805  SOLV      2115            0.0000000000
      6464      2126  TIP3      H1            -11.7395691982       -2.9637783325       -0.6356189980  SOLV      2115            0.0000000000
      6465      2126  TIP3      H2            -10.6861033774       -3.3886463665        0.3671049562  SOLV      2115            0.0000000000
      6466      2127  TIP3      OH2             2.7297156430      -15.9727539154        1.0378770202  SOLV      2116            0.0000000000
      6467      2127  TIP3      H1              1.8387978676      -16.1539461124        0.6863573494  SOLV      2116            0.0000000000
      6468      2127  TIP3      H2              3.1366245332      -16.8656670719        0.9398499630  SOLV      2116            0.0000000000
      6469      2128  TIP3      OH2           -14.7408489596       -0.9821890199        0.3638220985  SOLV      2117            0.0000000000
      6470      2128  TIP3      H1            -15.5928275950       -0.5507506440        0.1403876433  SOLV      2117            0.0000000000
      6471      2128  TIP3      H2            -14.4811188845       -0.4876527082        1.1413260907  SOLV      2117            0.0000000000
      6472      2129  TIP3      OH2           -12.4526848500       -1.5418855001       -1.2761339448  SOLV      2118            0.0000000000
      6473      2129  TIP3      H1            -13.2415983820       -1.1538557632       -0.8539341168  SOLV      2118            0.0000000000
      6474      2129  TIP3      H2            -12.0593447595       -0.7751550436       -1.7203451999  SOLV      2118            0.0000000000
      6475      2130  TIP3      OH2            -7.8195882386       -0.5430969805       -3.5768439781  SOLV      2119            0.0000000000
      6476      2130  TIP3      H1             -8.5445052320       -0.1320442879       -3.0814584322  SOLV      2119            0.0000000000
      6477      2130  TIP3      H2             -7.2116344884       -0.7966044440       -2.8693519577  SOLV      2119            0.0000000000
      6478      2131  TIP3      OH2            -2.7721254641        0.6182130667       -3.4628563399  SOLV      2120            0.0000000000
      6479      2131  TIP3      H1             -3.1134820014        1.4566837224       -3.8151923140  SOLV      2120            0.0000000000
      6480      2131  TIP3      H2             -3.1517018317       -0.0449379361       -4.0432579738  SOLV      2120            0.0000000000
      6481      2132  TIP3      OH2           -15.5510705540       -3.0167807109       -2.2345067839  SOLV      2121            0.0000000000
      6482      2132  TIP3      H1            -15.2089289514       -3.1947831134       -1.3343840968  SOLV      2121            0.0000000000
      6483      2132  TIP3      H2            -14.7948663492       -3.3816616235       -2.7524846873  SOLV      2121            0.0000000000
      6484      2133  TIP3      OH2           -13.6089433047       -4.2621621669       -3.6857856777  SOLV      2122            0.0000000000
      6485      2133  TIP3      H1            -13.4347443505       -5.0980390955       -3.1929523642  SOLV      2122            0.0000000000
      6486      2133  TIP3      H2            -12.6988677706       -3.8830067675       -3.7185247523  SOLV      2122            0.0000000000
      6487      2134  TIP3      OH2           -11.0085424920       -3.3946189643       -3.6785944297  SOLV      2123            0.0000000000
      6488      2134  TIP3      H1            -10.5888753640       -4.2738552460       -3.5673712817  SOLV      2123            0.0000000000
      6489      2134  TIP3      H2            -10.8007298126       -2.9770385803       -2.8343165952  SOLV      2123            0.0000000000
      6490      2135  TIP3      OH2            -5.0827819475      -16.7411391095       -2.6639843212  SOLV      2124            0.0000000000
      6491      2135  TIP3      H1             -5.5612428699      -17.4506901031       -2.1996892606  SOLV      2124            0.0000000000
      6492      2135  TIP3      H2             -4.4073109990      -17.2315043234       -3.1665321698  SOLV      2124            0.0000000000
      6493      2136  TIP3      OH2             0.0282688310      -17.9377856949       -3.7372557434  SOLV      2125            0.0000000000
      6494      2136  TIP3      H1              0.3797904570      -17.4129037737       -4.4902612802  SOLV      2125            0.0000000000
      6495      2136  TIP3      H2             -0.9249360046      -17.7261474736       -3.7838062715  SOLV      2125            0.0000000000
      6496      2137  TIP3      OH2             1.0168344759      -17.0052514252       -6.1029731437  SOLV      2126            0.0000000000
      6497      2137  TIP3      H1              1.7638275870      -17.5105784732       -6.4845624230  SOLV      2126            0.0000000000
      6498      2137  TIP3      H2              1.3476484975      -16.0861667632       -6.2407490699  SOLV      2126            0.0000000000
      6499      2138  TIP3      OH2           -12.6867239359      -19.6978137291       -2.6258699189  SOLV      2127            0.0000000000
      6500      2138  TIP3      H1            -13.6105318716      -20.0260567898       -2.6002858316  SOLV      2127            0.0000000000
      6501      2138  TIP3      H2            -12.2009111051      -20.5494346543       -2.6699761892  SOLV      2127            0.0000000000
      6502      2139  TIP3      OH2           -14.7198792188      -20.9538993277       -6.0914183250  SOLV      2128            0.0000000000
      6503      2139  TIP3      H1            -14.4820235733      -20.3836352594       -6.8436752994  SOLV      2128            0.0000000000
      6504      2139  TIP3      H2            -15.0480774470      -20.3006083988       -5.4409075886  SOLV      2128            0.0000000000
      6505      2140  TIP3      OH2            -8.1817165810      -19.3835369296       -3.8079243808  SOLV      2129            0.0000000000
      6506      2140  TIP3      H1             -7.6305226289      -18.8797268215       -4.4280518058  SOLV      2129            0.0000000000
      6507      2140  TIP3      H2             -7.9743672516      -18.9590268764       -2.9664132827  SOLV      2129            0.0000000000
      6508      2141  TIP3      OH2            -2.7816876391      -17.8779709493       -3.9831454016  SOLV      2130            0.0000000000
      6509      2141  TIP3      H1             -2.8411495911      -18.2662774718       -4.8625768220  SOLV      2130            0.0000000000
      6510      2141  TIP3      H2             -2.8875296327      -18.6738329121       -3.4071096414  SOLV      2130            0.0000000000
      6511      2142  TIP3      OH2            -2.4506393172      -18.6073255167       -8.3237633208  SOLV      2131            0.0000000000
      6512      2142  TIP3      H1             -3.2929908548      -18.1494218930       -8.1344098167  SOLV      2131            0.0000000000
      6513      2142  TIP3      H2             -2.6207893267      -19.4766642744       -7.9008140647  SOLV      2131            0.0000000000
      6514      2143  TIP3      OH2           -17.6501041247       -5.2049056619       -8.3802929669  SOLV      2132            0.0000000000
      6515      2143  TIP3      H1            -18.5082763156       -5.5201840278       -8.7211857130  SOLV      2132            0.0000000000
      6516      2143  TIP3      H2            -17.7196309943       -4.2616914842       -8.6080846320  SOLV      2132            0.0000000000
      6517      2144  TIP3      OH2           -13.5947231280      -19.4009250397       -8.5056167671  SOLV      2133            0.0000000000
      6518      2144  TIP3      H1            -13.1155357282      -20.0246021800       -9.0842595241  SOLV      2133            0.0000000000
      6519      2144  TIP3      H2            -12.8609030173      -18.8590220672       -8.1515838391  SOLV      2133            0.0000000000
      6520      2145  TIP3      OH2            -8.5294025296      -17.6018487482       -7.5209996795  SOLV      2134            0.0000000000
      6521      2145  TIP3      H1             -7.9360219715      -18.0571088982       -6.9007838235  SOLV      2134            0.0000000000
      6522      2145  TIP3      H2             -8.3419386800      -16.6694721320       -7.2715527294  SOLV      2134            0.0000000000
      6523      2146  TIP3      OH2            -9.9236103670       -3.4348657905      -12.5357600295  SOLV      2135            0.0000000000
      6524      2146  TIP3      H1             -9.0415833923       -3.2032705806      -12.8940394588  SOLV      2135            0.0000000000
      6525      2146  TIP3      H2            -10.1317154747       -4.2045602205      -13.1128812609  SOLV      2135            0.0000000000
      6526      2147  TIP3      OH2            -2.6525358563       -2.1436012274      -11.5785213607  SOLV      2136            0.0000000000
      6527      2147  TIP3      H1             -2.7487824616       -3.1216774870      -11.6711162981  SOLV      2136            0.0000000000
      6528      2147  TIP3      H2             -3.1594150638       -1.8391162001      -12.3573733282  SOLV      2136            0.0000000000
      6529      2148  TIP3      OH2           -10.6199012605      -16.9078168076        6.2847746612  SOLV      2137            0.0000000000
      6530      2148  TIP3      H1            -10.9593623662      -17.6072055735        6.8724699385  SOLV      2137            0.0000000000
      6531      2148  TIP3      H2             -9.6783540007      -16.8867255314        6.5622538843  SOLV      2137            0.0000000000
      6532      2149  TIP3      OH2            -8.1181635141      -16.8905426235        7.4799320934  SOLV      2138            0.0000000000
      6533      2149  TIP3      H1             -7.2572148797      -17.1289365271        7.0968115707  SOLV      2138            0.0000000000
      6534      2149  TIP3      H2             -8.2413584457      -17.6009775429        8.1429224939  SOLV      2138            0.0000000000
      6535      2150  TIP3      OH2           -16.8897921723       -5.0311806834      -11.9677092254  SOLV      2139            0.0000000000
      6536      2150  TIP3      H1            -16.8300564622       -4.8870506157      -11.0139916740  SOLV      2139            0.0000000000
      6537      2150  TIP3      H2            -16.0274023103       -5.4719350459      -12.1581279000  SOLV      2139            0.0000000000
      6538      2151  TIP3      OH2             0.1651210486      -16.2367481438        5.3528600054  SOLV      2140            0.0000000000
      6539      2151  TIP3      H1              0.3278432515      -16.5317082643        6.2758230912  SOLV      2140            0.0000000000
      6540      2151  TIP3      H2              1.0647698861      -16.2946096346        4.9707960572  SOLV      2140            0.0000000000
      6541      2152  TIP3      OH2            12.2147641087       -6.9987303021      -12.1059211184  SOLV      2141            0.0000000000
      6542      2152  TIP3      H1             11.8989763164       -6.0975512731      -12.3294243955  SOLV      2141            0.0000000000
      6543      2152  TIP3      H2             11.4571488108       -7.5234931095      -12.4175739184  SOLV      2141            0.0000000000
      6544      2153  TIP3      OH2            12.2104768861       -6.9924042666       -8.1676897770  SOLV      2142            0.0000000000
      6545      2153  TIP3      H1             12.5809297584       -7.2329009475       -7.2963171423  SOLV      2142            0.0000000000
      6546      2153  TIP3      H2             11.7880934729       -7.8218006592       -8.4392132499  SOLV      2142            0.0000000000
      6547      2154  TIP3      OH2             5.1624272251       -8.1685826216       -4.5934062404  SOLV      2143            0.0000000000
      6548      2154  TIP3      H1              5.5119332803       -8.8129115983       -3.9510066996  SOLV      2143            0.0000000000
      6549      2154  TIP3      H2              5.8153649038       -7.4594669307       -4.5437482711  SOLV      2143            0.0000000000
      6550      2155  TIP3      OH2            14.6769991022       -3.9731594789      -11.3846997404  SOLV      2144            0.0000000000
      6551      2155  TIP3      H1             14.5147911227       -4.6290086651      -10.6924494668  SOLV      2144            0.0000000000
      6552      2155  TIP3      H2             14.9808570742       -3.2037018994      -10.8729101994  SOLV      2144            0.0000000000
      6553      2156  TIP3      OH2             4.9148911976       -3.9778236681       -7.4569300975  SOLV      2145            0.0000000000
      6554      2156  TIP3      H1              4.8242879320       -4.9519665769       -7.4041731941  SOLV      2145            0.0000000000
      6555      2156  TIP3      H2              5.8834090670       -3.8866494327       -7.4944779787  SOLV      2145            0.0000000000
      6556      2157  TIP3      OH2             1.9760713391      -11.9685621669       -9.5646564532  SOLV      2146            0.0000000000
      6557      2157  TIP3      H1              1.4975155754      -11.1473870118       -9.3456713334  SOLV      2146            0.0000000000
      6558      2157  TIP3      H2              1.2634271662      -12.4601768677      -10.0102534528  SOLV      2146            0.0000000000
      6559      2158  TIP3      OH2             2.5495492267       -9.0760437691       -7.7270717700  SOLV      2147            0.0000000000
      6560      2158  TIP3      H1              3.0635826446       -9.8430734564       -7.3926106736  SOLV      2147            0.0000000000
      6561      2158  TIP3      H2              3.1617730488       -8.6743241797       -8.3558831257  SOLV      2147            0.0000000000
      6562      2159  TIP3      OH2            11.1860821245        0.6175116974      -11.2529235668  SOLV      2148            0.0000000000
      6563      2159  TIP3      H1             11.6000455570       -0.1059087122      -11.7691923355  SOLV      2148            0.0000000000
      6564      2159  TIP3      H2             10.9945573123        0.1851504233      -10.4168511921  SOLV      2148            0.0000000000
      6565      2160  TIP3      OH2            10.1675800267       -4.7744976395       -7.7144618903  SOLV      2149            0.0000000000
      6566      2160  TIP3      H1             10.5928363454       -5.5219974841       -8.1679495665  SOLV      2149            0.0000000000
      6567      2160  TIP3      H2             10.9761037632       -4.2956841069       -7.4323436910  SOLV      2149            0.0000000000
      6568      2161  TIP3      OH2            20.3598824820      -11.5693226064       -7.7776813923  SOLV      2150            0.0000000000
      6569      2161  TIP3      H1             20.6361128814      -10.7316583720       -7.3545110155  SOLV      2150            0.0000000000
      6570      2161  TIP3      H2             20.6000136945      -11.3986152191       -8.7064475490  SOLV      2150            0.0000000000
      6571      2162  TIP3      OH2            14.3097367626       -9.7782101700       -7.4799250916  SOLV      2151            0.0000000000
      6572      2162  TIP3      H1             14.7394485892      -10.6294569687       -7.2736618631  SOLV      2151            0.0000000000
      6573      2162  TIP3      H2             13.9815948421       -9.9511007055       -8.3832822707  SOLV      2151            0.0000000000
      6574      2163  TIP3      OH2             7.7481213377      -13.1568972115       -7.8208499007  SOLV      2152            0.0000000000
      6575      2163  TIP3      H1              7.5291358056      -12.4284004415       -8.4400829320  SOLV      2152            0.0000000000
      6576      2163  TIP3      H2              7.2372588847      -13.8861337768       -8.2365956588  SOLV      2152            0.0000000000
      6577      2164  TIP3      OH2            14.6717160180      -12.2475435388      -11.6028570895  SOLV      2153            0.0000000000
      6578      2164  TIP3      H1             15.3904318008      -12.3662892289      -10.9380671572  SOLV      2153            0.0000000000
      6579      2164  TIP3      H2             15.1842775771      -11.8840169808      -12.3476970285  SOLV      2153            0.0000000000
      6580      2165  TIP3      OH2             4.0165801839      -11.1483377915       -6.6933780122  SOLV      2154            0.0000000000
      6581      2165  TIP3      H1              4.8528660111      -11.3293837912       -6.2259288796  SOLV      2154            0.0000000000
      6582      2165  TIP3      H2              4.1522741826      -11.6859650810       -7.5017628381  SOLV      2154            0.0000000000
      6583      2166  TIP3      OH2             8.4309400858       -9.1650387907       -8.8021582817  SOLV      2155            0.0000000000
      6584      2166  TIP3      H1              9.3682812415       -9.4144472552       -8.6624601813  SOLV      2155            0.0000000000
      6585      2166  TIP3      H2              8.0386723256      -10.0089853286       -9.1124244209  SOLV      2155            0.0000000000
      6586      2167  TIP3      OH2            21.0625401684       -9.4687673993       -6.0679805072  SOLV      2156            0.0000000000
      6587      2167  TIP3      H1             20.2130692429       -9.0109581329       -6.2464152444  SOLV      2156            0.0000000000
      6588      2167  TIP3      H2             21.2916901240       -9.0973065464       -5.2013113629  SOLV      2156            0.0000000000
      6589      2168  TIP3      OH2             7.6751385180      -13.3411149629       -3.4684562767  SOLV      2157            0.0000000000
      6590      2168  TIP3      H1              7.0884519502      -12.9628616580       -4.1516082810  SOLV      2157            0.0000000000
      6591      2168  TIP3      H2              7.1500697131      -13.1443287600       -2.6624373511  SOLV      2157            0.0000000000
      6592      2169  TIP3      OH2            11.0769578709       -4.8251815316      -13.4039773344  SOLV      2158            0.0000000000
      6593      2169  TIP3      H1             10.6740502435       -4.9487464998      -14.2738511838  SOLV      2158            0.0000000000
      6594      2169  TIP3      H2             10.6318737418       -4.0009957169      -13.1112326126  SOLV      2158            0.0000000000
      6595      2170  TIP3      OH2             8.6229091188       -5.6036054440       -5.5619597889  SOLV      2159            0.0000000000
      6596      2170  TIP3      H1              8.0467126393       -4.9274338646       -5.1755726081  SOLV      2159            0.0000000000
      6597      2170  TIP3      H2              9.0494117883       -5.1226427303       -6.3039651798  SOLV      2159            0.0000000000
      6598      2171  TIP3      OH2            16.6667275963      -12.1671826306       -9.7592135198  SOLV      2160            0.0000000000
      6599      2171  TIP3      H1             16.4327729617      -12.5175066978       -8.8896543290  SOLV      2160            0.0000000000
      6600      2171  TIP3      H2             17.2044469572      -11.3851927885       -9.5213701272  SOLV      2160            0.0000000000
      6601      2172  TIP3      OH2             6.3884658312      -12.1806276035       -5.6234292469  SOLV      2161            0.0000000000
      6602      2172  TIP3      H1              6.9848307771      -11.4358912699       -5.3839501844  SOLV      2161            0.0000000000
      6603      2172  TIP3      H2              6.8939420984      -12.5697246194       -6.3732273598  SOLV      2161            0.0000000000
      6604      2173  TIP3      OH2             0.9191145494       -6.7013297787      -12.1806795096  SOLV      2162            0.0000000000
      6605      2173  TIP3      H1              0.4793263090       -6.4251241028      -13.0027332837  SOLV      2162            0.0000000000
      6606      2173  TIP3      H2              1.2072039813       -5.8364259366      -11.8148735981  SOLV      2162            0.0000000000
      6607      2174  TIP3      OH2            15.3192228206       -1.5463546985       -9.8096309909  SOLV      2163            0.0000000000
      6608      2174  TIP3      H1             14.4214008250       -1.6188192620       -9.4122298331  SOLV      2163            0.0000000000
      6609      2174  TIP3      H2             15.2602657256       -0.6721489669      -10.2446640125  SOLV      2163            0.0000000000
      6610      2175  TIP3      OH2            18.2941444586      -12.6167536905       -6.1352727009  SOLV      2164            0.0000000000
      6611      2175  TIP3      H1             17.4261739828      -12.3126366249       -6.4439712604  SOLV      2164            0.0000000000
      6612      2175  TIP3      H2             18.8952941849      -12.2754821440       -6.8309249859  SOLV      2164            0.0000000000
      6613      2176  TIP3      OH2            11.1723756110      -16.1673452317       -6.2724810394  SOLV      2165            0.0000000000
      6614      2176  TIP3      H1             11.0062379856      -17.1104446091       -6.0904582488  SOLV      2165            0.0000000000
      6615      2176  TIP3      H2             10.4075988520      -15.7601176264       -5.8085463349  SOLV      2165            0.0000000000
      6616      2177  TIP3      OH2            12.3083365346       -1.1112703400      -13.0820323731  SOLV      2166            0.0000000000
      6617      2177  TIP3      H1             12.8289839856       -1.9275170861      -13.2693963094  SOLV      2166            0.0000000000
      6618      2177  TIP3      H2             12.9139271523       -0.4443724144      -13.4775869236  SOLV      2166            0.0000000000
      6619      2178  TIP3      OH2            13.7571911768       -3.2732554576      -13.9020398100  SOLV      2167            0.0000000000
      6620      2178  TIP3      H1             13.3440738145       -4.0826241365      -14.2287610621  SOLV      2167            0.0000000000
      6621      2178  TIP3      H2             14.1590065472       -3.5830927767      -13.0603821854  SOLV      2167            0.0000000000
      6622      2179  TIP3      OH2            17.6095915321       -2.4598685540       -6.3322401553  SOLV      2168            0.0000000000
      6623      2179  TIP3      H1             17.4710155510       -3.2197056620       -6.9369034514  SOLV      2168            0.0000000000
      6624      2179  TIP3      H2             17.4202287207       -1.6996218264       -6.9241774590  SOLV      2168            0.0000000000
      6625      2180  TIP3      OH2            10.5036921066       -8.5092532845      -13.7156618500  SOLV      2169            0.0000000000
      6626      2180  TIP3      H1              9.6989932489       -7.9855885462      -13.9101689705  SOLV      2169            0.0000000000
      6627      2180  TIP3      H2             10.9552580932       -8.5056141979      -14.5781082716  SOLV      2169            0.0000000000
      6628      2181  TIP3      OH2            10.0792643581      -10.5990076139      -16.6353866259  SOLV      2170            0.0000000000
      6629      2181  TIP3      H1             10.7519265172      -10.1004492959      -16.1374510452  SOLV      2170            0.0000000000
      6630      2181  TIP3      H2             10.6491463242      -11.2355924938      -17.1105076691  SOLV      2170            0.0000000000
      6631      2182  TIP3      OH2            19.5357293027       -6.0408482363       -7.8374607584  SOLV      2171            0.0000000000
      6632      2182  TIP3      H1             18.6971143260       -5.5287658691       -7.8101231239  SOLV      2171            0.0000000000
      6633      2182  TIP3      H2             19.8396718449       -5.8162212023       -8.7439660911  SOLV      2171            0.0000000000
      6634      2183  TIP3      OH2            13.9885605870       -7.6694375195      -14.0613933438  SOLV      2172            0.0000000000
      6635      2183  TIP3      H1             13.4417671246       -7.4133792084      -13.2810180450  SOLV      2172            0.0000000000
      6636      2183  TIP3      H2             14.8286604058       -7.9094742577      -13.6177273530  SOLV      2172            0.0000000000
      6637      2184  TIP3      OH2            16.3152800839       -7.3100131288       -4.8382884207  SOLV      2173            0.0000000000
      6638      2184  TIP3      H1             16.3078469318       -6.4718095520       -4.3364019030  SOLV      2173            0.0000000000
      6639      2184  TIP3      H2             15.4618448840       -7.2398641667       -5.3102204810  SOLV      2173            0.0000000000
      6640      2185  TIP3      OH2             6.3015961397       -7.7403651283       -9.8621525730  SOLV      2174            0.0000000000
      6641      2185  TIP3      H1              5.9067006789       -8.3134892260      -10.5524337816  SOLV      2174            0.0000000000
      6642      2185  TIP3      H2              7.0783769672       -8.2654649989       -9.5760001697  SOLV      2174            0.0000000000
      6643      2186  TIP3      OH2             7.5895839137       -3.6411501286       -8.4160858440  SOLV      2175            0.0000000000
      6644      2186  TIP3      H1              7.4143234110       -3.9621790378       -9.3109317512  SOLV      2175            0.0000000000
      6645      2186  TIP3      H2              8.5023350081       -3.9535693523       -8.2546088296  SOLV      2175            0.0000000000
      6646      2187  TIP3      OH2             7.7212599755       -8.0713642958       -6.3469285308  SOLV      2176            0.0000000000
      6647      2187  TIP3      H1              8.0249524627       -8.2660372811       -7.2576809722  SOLV      2176            0.0000000000
      6648      2187  TIP3      H2              8.0792573825       -7.1740692154       -6.1836702950  SOLV      2176            0.0000000000
      6649      2188  TIP3      OH2            12.9373983962       -1.6084259482       -8.5367088491  SOLV      2177            0.0000000000
      6650      2188  TIP3      H1             12.7477554682       -0.7963311910       -8.0382943556  SOLV      2177            0.0000000000
      6651      2188  TIP3      H2             12.7536907655       -2.3204500818       -7.8949061961  SOLV      2177            0.0000000000
      6652      2189  TIP3      OH2            12.3624680953       -9.0916304452      -15.7645722922  SOLV      2178            0.0000000000
      6653      2189  TIP3      H1             12.9605924212       -8.4865641517      -15.2678061968  SOLV      2178            0.0000000000
      6654      2189  TIP3      H2             12.6208135890       -8.8830740879      -16.6943340238  SOLV      2178            0.0000000000
      6655      2190  TIP3      OH2             9.8602653784       -2.3509378193      -13.0266685396  SOLV      2179            0.0000000000
      6656      2190  TIP3      H1             10.6755795916       -1.8246608886      -12.9594665035  SOLV      2179            0.0000000000
      6657      2190  TIP3      H2              9.2408350292       -1.7283078932      -13.4315346404  SOLV      2179            0.0000000000
      6658      2191  TIP3      OH2            17.5350963170      -16.7176507592      -15.2615989673  SOLV      2180            0.0000000000
      6659      2191  TIP3      H1             16.7239351445      -16.4804045002      -14.7667331828  SOLV      2180            0.0000000000
      6660      2191  TIP3      H2             17.6820310155      -15.8992817279      -15.7818583232  SOLV      2180            0.0000000000
      6661      2192  TIP3      OH2             4.9980363108       -9.2795357919      -11.8881731094  SOLV      2181            0.0000000000
      6662      2192  TIP3      H1              4.2882058995       -8.8154568801      -12.3824798168  SOLV      2181            0.0000000000
      6663      2192  TIP3      H2              4.5758294992      -10.1245490794      -11.7019595272  SOLV      2181            0.0000000000
      6664      2193  TIP3      OH2            15.5493338763       -3.0356607409      -19.7783642769  SOLV      2182            0.0000000000
      6665      2193  TIP3      H1             15.6234716019       -2.0683225024      -19.9301828188  SOLV      2182            0.0000000000
      6666      2193  TIP3      H2             16.4786516600       -3.3191004404      -19.9165511398  SOLV      2182            0.0000000000
      6667      2194  TIP3      OH2             2.6208763430       -5.3852648054       -2.6761164967  SOLV      2183            0.0000000000
      6668      2194  TIP3      H1              2.0337433936       -5.7049981490       -3.3748175862  SOLV      2183            0.0000000000
      6669      2194  TIP3      H2              3.0609006041       -6.1794363693       -2.3376996303  SOLV      2183            0.0000000000
      6670      2195  TIP3      OH2             1.3085500935       -3.5060260666       -6.4025809087  SOLV      2184            0.0000000000
      6671      2195  TIP3      H1              2.2738984753       -3.4633503234       -6.3771447958  SOLV      2184            0.0000000000
      6672      2195  TIP3      H2              1.0606480645       -2.7401539243       -5.8618587312  SOLV      2184            0.0000000000
      6673      2196  TIP3      OH2            19.9820133737        1.0604077101       -5.7867318933  SOLV      2185            0.0000000000
      6674      2196  TIP3      H1             19.9566126904        0.0959285016       -5.6470995363  SOLV      2185            0.0000000000
      6675      2196  TIP3      H2             19.1366609880        1.3177186708       -5.3511743333  SOLV      2185            0.0000000000
      6676      2197  TIP3      OH2             8.6770740293        0.1277279839      -14.9754653599  SOLV      2186            0.0000000000
      6677      2197  TIP3      H1              8.1801492777       -0.0405365807      -15.7952004828  SOLV      2186            0.0000000000
      6678      2197  TIP3      H2              8.3321681823        0.9943987834      -14.6947034735  SOLV      2186            0.0000000000
      6679      2198  TIP3      OH2             3.0255320909       -1.3663472484      -11.1489650426  SOLV      2187            0.0000000000
      6680      2198  TIP3      H1              3.4775677886       -1.4370280084      -10.2758916510  SOLV      2187            0.0000000000
      6681      2198  TIP3      H2              2.4711712810       -2.1609153386      -11.1265984695  SOLV      2187            0.0000000000
      6682      2199  TIP3      OH2            10.6413461401       -0.8245104063      -18.6165734750  SOLV      2188            0.0000000000
      6683      2199  TIP3      H1             11.2185854146       -1.5379273115      -18.9679486264  SOLV      2188            0.0000000000
      6684      2199  TIP3      H2             10.9987109610       -0.7151980449      -17.7094173675  SOLV      2188            0.0000000000
      6685      2200  TIP3      OH2            11.1806579202       -0.3323628940      -15.9351005947  SOLV      2189            0.0000000000
      6686      2200  TIP3      H1             10.3007355647       -0.2467594609      -15.5028812773  SOLV      2189            0.0000000000
      6687      2200  TIP3      H2             11.7134794246       -0.6871440495      -15.2064392334  SOLV      2189            0.0000000000
      6688      2201  TIP3      OH2            18.8557484064       -7.6907718110       -3.0733226455  SOLV      2190            0.0000000000
      6689      2201  TIP3      H1             18.0152758919       -7.5794107639       -3.5415966740  SOLV      2190            0.0000000000
      6690      2201  TIP3      H2             19.0071584982       -8.6534216847       -3.1653377996  SOLV      2190            0.0000000000
      6691      2202  TIP3      OH2             8.8111575123      -15.3831671194       -4.9715080272  SOLV      2191            0.0000000000
      6692      2202  TIP3      H1              7.9232914286      -15.6756407055       -5.2679137034  SOLV      2191            0.0000000000
      6693      2202  TIP3      H2              8.5508061689      -14.5714746602       -4.4894921612  SOLV      2191            0.0000000000
      6694      2203  TIP3      OH2            14.1777679542      -14.2556844081       -3.0446376970  SOLV      2192            0.0000000000
      6695      2203  TIP3      H1             14.8707101624      -14.4956077378       -2.3958511240  SOLV      2192            0.0000000000
      6696      2203  TIP3      H2             13.3490769606      -14.4265531084       -2.5529176521  SOLV      2192            0.0000000000
      6697      2204  TIP3      OH2            16.5019264894       -9.9322041976       -3.8784461060  SOLV      2193            0.0000000000
      6698      2204  TIP3      H1             16.0127984909       -9.9563732813       -3.0250422092  SOLV      2193            0.0000000000
      6699      2204  TIP3      H2             16.2776930738       -9.0472706438       -4.2269826024  SOLV      2193            0.0000000000
      6700      2205  TIP3      OH2            13.1367027569       -8.7390254251      -18.3374025969  SOLV      2194            0.0000000000
      6701      2205  TIP3      H1             12.7894715491       -8.9120722729      -19.2324202113  SOLV      2194            0.0000000000
      6702      2205  TIP3      H2             13.9716241519       -8.2774058484      -18.5514817053  SOLV      2194            0.0000000000
      6703      2206  TIP3      OH2            10.2726887837      -14.9186125652      -15.2823560744  SOLV      2195            0.0000000000
      6704      2206  TIP3      H1              9.9234768632      -14.9269487091      -14.3701853878  SOLV      2195            0.0000000000
      6705      2206  TIP3      H2              9.8517281990      -15.7282531253      -15.6288446202  SOLV      2195            0.0000000000
      6706      2207  TIP3      OH2             8.1329145940      -10.2259076270       -4.7831243621  SOLV      2196            0.0000000000
      6707      2207  TIP3      H1              7.6583251421       -9.9671297919       -3.9705359197  SOLV      2196            0.0000000000
      6708      2207  TIP3      H2              7.9763414840       -9.4322496724       -5.3491599586  SOLV      2196            0.0000000000
      6709      2208  TIP3      OH2             6.9739500815      -11.3526652403       -9.6838443305  SOLV      2197            0.0000000000
      6710      2208  TIP3      H1              6.0448931562      -11.6023964733       -9.4894509459  SOLV      2197            0.0000000000
      6711      2208  TIP3      H2              7.0777395076      -11.7648836893      -10.5710049098  SOLV      2197            0.0000000000
      6712      2209  TIP3      OH2            11.8606418229      -10.5127238812      -12.3751217536  SOLV      2198            0.0000000000
      6713      2209  TIP3      H1             11.3588808532       -9.7913654041      -12.8159053876  SOLV      2198            0.0000000000
      6714      2209  TIP3      H2             12.4196215985      -10.8375423914      -13.1074128301  SOLV      2198            0.0000000000
      6715      2210  TIP3      OH2            13.6983927729       -7.8134869902       -1.6162584136  SOLV      2199            0.0000000000
      6716      2210  TIP3      H1             13.4565555684       -8.5105520925       -0.9666539915  SOLV      2199            0.0000000000
      6717      2210  TIP3      H2             14.6125676554       -7.6178652484       -1.3363360596  SOLV      2199            0.0000000000
      6718      2211  TIP3      OH2            13.4301019822      -10.2619079888      -10.0318464877  SOLV      2200            0.0000000000
      6719      2211  TIP3      H1             12.7966405529       -9.9755871043      -10.7215991501  SOLV      2200            0.0000000000
      6720      2211  TIP3      H2             13.7898047787      -11.0487354081      -10.4915369590  SOLV      2200            0.0000000000
      6721      2212  TIP3      OH2             6.3035651977       -9.8901127234       -2.6565570673  SOLV      2201            0.0000000000
      6722      2212  TIP3      H1              6.8546850404       -9.4263120452       -2.0126380518  SOLV      2201            0.0000000000
      6723      2212  TIP3      H2              6.1752860854      -10.7585331960       -2.2237546821  SOLV      2201            0.0000000000
      6724      2213  TIP3      OH2             6.8554558064      -15.1424238308      -15.6277820482  SOLV      2202            0.0000000000
      6725      2213  TIP3      H1              6.7314450757      -15.1398335036      -14.6572831338  SOLV      2202            0.0000000000
      6726      2213  TIP3      H2              6.0755770820      -14.6266303873      -15.9100886370  SOLV      2202            0.0000000000
      6727      2214  TIP3      OH2             2.2695069487      -14.7669107081       -6.8961808025  SOLV      2203            0.0000000000
      6728      2214  TIP3      H1              3.0016667768      -14.4026961470       -6.3578481711  SOLV      2203            0.0000000000
      6729      2214  TIP3      H2              2.6919471019      -14.9824858771       -7.7359745950  SOLV      2203            0.0000000000
      6730      2215  TIP3      OH2             1.8631833264      -14.9220129665      -11.7491024761  SOLV      2204            0.0000000000
      6731      2215  TIP3      H1              2.3017857333      -14.5318666198      -12.5365224010  SOLV      2204            0.0000000000
      6732      2215  TIP3      H2              1.2542937801      -14.1906501897      -11.5276278205  SOLV      2204            0.0000000000
      6733      2216  TIP3      OH2            13.5227373508       -7.7936318954       -5.8348502472  SOLV      2205            0.0000000000
      6734      2216  TIP3      H1             13.8638144382       -8.5086688793       -6.4212836141  SOLV      2205            0.0000000000
      6735      2216  TIP3      H2             13.2208101074       -8.3264364522       -5.0706882432  SOLV      2205            0.0000000000
      6736      2217  TIP3      OH2            10.3162150357      -13.2114351996       -9.0952101283  SOLV      2206            0.0000000000
      6737      2217  TIP3      H1              9.5040987058      -13.1796616550       -8.5494098157  SOLV      2206            0.0000000000
      6738      2217  TIP3      H2             11.0137321053      -13.2119496864       -8.4175572876  SOLV      2206            0.0000000000
      6739      2218  TIP3      OH2             4.5888610190      -12.5427577835       -9.0141790796  SOLV      2207            0.0000000000
      6740      2218  TIP3      H1              3.6473138952      -12.4620490243       -9.3010873155  SOLV      2207            0.0000000000
      6741      2218  TIP3      H2              4.8135536153      -13.4601377632       -9.2534266556  SOLV      2207            0.0000000000
      6742      2219  TIP3      OH2             7.2239635217      -12.6438960574      -12.0772534263  SOLV      2208            0.0000000000
      6743      2219  TIP3      H1              8.1577887322      -12.4578657734      -12.2919700996  SOLV      2208            0.0000000000
      6744      2219  TIP3      H2              6.7493422595      -12.3969210995      -12.9044490187  SOLV      2208            0.0000000000
      6745      2220  TIP3      OH2            15.1797353071      -12.3917197689       -7.0714636071  SOLV      2209            0.0000000000
      6746      2220  TIP3      H1             14.8970952777      -12.2554190534       -6.1374013791  SOLV      2209            0.0000000000
      6747      2220  TIP3      H2             14.4617200479      -12.9676550682       -7.3872908405  SOLV      2209            0.0000000000
      6748      2221  TIP3      OH2             5.7696251875      -12.2931572546      -14.3513107256  SOLV      2210            0.0000000000
      6749      2221  TIP3      H1              5.0604216267      -12.7323559897      -14.8541716061  SOLV      2210            0.0000000000
      6750      2221  TIP3      H2              6.2862664652      -11.8935840330      -15.0825117153  SOLV      2210            0.0000000000
      6751      2222  TIP3      OH2            17.0672045034        4.4565282666       -4.9515656118  SOLV      2211            0.0000000000
      6752      2222  TIP3      H1             16.9193467608        4.8685495902       -5.8173272485  SOLV      2211            0.0000000000
      6753      2222  TIP3      H2             17.0621791167        5.2174057308       -4.3631435029  SOLV      2211            0.0000000000
      6754      2223  TIP3      OH2            11.0709026915       -9.8331196816       -8.0954112960  SOLV      2212            0.0000000000
      6755      2223  TIP3      H1             11.8219594875      -10.2212278941       -8.5673437154  SOLV      2212            0.0000000000
      6756      2223  TIP3      H2             11.1187914307      -10.2696227092       -7.2240950166  SOLV      2212            0.0000000000
      6757      2224  TIP3      OH2             6.2395510377      -14.9864696285       -9.2417715046  SOLV      2213            0.0000000000
      6758      2224  TIP3      H1              5.8783758341      -15.7561997642       -8.7494661532  SOLV      2213            0.0000000000
      6759      2224  TIP3      H2              6.6430535963      -15.4140047407      -10.0061090165  SOLV      2213            0.0000000000
      6760      2225  TIP3      OH2            10.8208618180      -10.8207917742       -5.2295558563  SOLV      2214            0.0000000000
      6761      2225  TIP3      H1              9.9172899523      -10.4872441383       -5.0534506170  SOLV      2214            0.0000000000
      6762      2225  TIP3      H2             11.3881044149      -10.2166948046       -4.7107383411  SOLV      2214            0.0000000000
      6763      2226  TIP3      OH2             8.2115862912       -7.0050773848      -14.2552836225  SOLV      2215            0.0000000000
      6764      2226  TIP3      H1              7.4698587779       -7.6335614641      -14.3896671516  SOLV      2215            0.0000000000
      6765      2226  TIP3      H2              7.9988395461       -6.6543039992      -13.3551715449  SOLV      2215            0.0000000000
      6766      2227  TIP3      OH2            17.1848538312       -4.6185086146       -8.0177904594  SOLV      2216            0.0000000000
      6767      2227  TIP3      H1             17.4367347655       -4.1026878633       -8.8138948963  SOLV      2216            0.0000000000
      6768      2227  TIP3      H2             16.3274184088       -5.0121700721       -8.2857557543  SOLV      2216            0.0000000000
      6769      2228  TIP3      OH2            12.7764160138      -13.8933932941      -15.5584654899  SOLV      2217            0.0000000000
      6770      2228  TIP3      H1             11.8117233088      -14.0821755934      -15.4761680148  SOLV      2217            0.0000000000
      6771      2228  TIP3      H2             12.8435450553      -12.9457250119      -15.3245322630  SOLV      2217            0.0000000000
      6772      2229  TIP3      OH2            12.5350714878       -4.1286615605       -4.0311829045  SOLV      2218            0.0000000000
      6773      2229  TIP3      H1             12.9176228180       -4.5491988136       -3.2485474269  SOLV      2218            0.0000000000
      6774      2229  TIP3      H2             12.1194346890       -3.3650658946       -3.6196364038  SOLV      2218            0.0000000000
      6775      2230  TIP3      OH2            13.4443570914      -11.3755440283      -14.5566992607  SOLV      2219            0.0000000000
      6776      2230  TIP3      H1             14.4089390837      -11.2991943812      -14.4184690753  SOLV      2219            0.0000000000
      6777      2230  TIP3      H2             13.2395224415      -10.5708359884      -15.0729965661  SOLV      2219            0.0000000000
      6778      2231  TIP3      OH2             5.1742380440       -6.7503690354       -7.5055466719  SOLV      2220            0.0000000000
      6779      2231  TIP3      H1              5.5667011800       -7.0420447251       -8.3530753298  SOLV      2220            0.0000000000
      6780      2231  TIP3      H2              5.5574252222       -7.3763960805       -6.8748434883  SOLV      2220            0.0000000000
      6781      2232  TIP3      OH2             9.6575742701       -5.4814976754      -16.0142366283  SOLV      2221            0.0000000000
      6782      2232  TIP3      H1              9.1669609123       -4.6268965710      -15.9750352111  SOLV      2221            0.0000000000
      6783      2232  TIP3      H2              9.1155409368       -6.0372393250      -15.4123042681  SOLV      2221            0.0000000000
      6784      2233  TIP3      OH2             3.5083105596       -7.6498309815       -0.9355808904  SOLV      2222            0.0000000000
      6785      2233  TIP3      H1              4.3569890253       -7.5409768823       -0.4579111195  SOLV      2222            0.0000000000
      6786      2233  TIP3      H2              3.6927422787       -8.3193243986       -1.5809217374  SOLV      2222            0.0000000000
      6787      2234  TIP3      OH2            11.2888780962       -6.6312587216       -1.1176451714  SOLV      2223            0.0000000000
      6788      2234  TIP3      H1             10.7627272769       -7.0279571096       -1.8225493756  SOLV      2223            0.0000000000
      6789      2234  TIP3      H2             12.1901242944       -6.9222132607       -1.3718943174  SOLV      2223            0.0000000000
      6790      2235  TIP3      OH2            13.9440870757       -1.2950939646       -5.3235666755  SOLV      2224            0.0000000000
      6791      2235  TIP3      H1             13.0201988033       -1.0523704897       -5.3774093794  SOLV      2224            0.0000000000
      6792      2235  TIP3      H2             14.2302569674       -0.7757254015       -4.5378644745  SOLV      2224            0.0000000000
      6793      2236  TIP3      OH2            17.8372700284      -10.4292792719      -16.2370564754  SOLV      2225            0.0000000000
      6794      2236  TIP3      H1             17.2295705517      -10.8760091660      -16.8732041210  SOLV      2225            0.0000000000
      6795      2236  TIP3      H2             17.7999742571       -9.5316522390      -16.6372562058  SOLV      2225            0.0000000000
      6796      2237  TIP3      OH2            20.0922035607       -1.8619412085       -5.4261413238  SOLV      2226            0.0000000000
      6797      2237  TIP3      H1             19.1145126753       -1.9199714025       -5.5152523056  SOLV      2226            0.0000000000
      6798      2237  TIP3      H2             20.3546423432       -2.1563670024       -6.3274306598  SOLV      2226            0.0000000000
      6799      2238  TIP3      OH2            14.9031644411       -2.2627520607      -17.1296749760  SOLV      2227            0.0000000000
      6800      2238  TIP3      H1             14.6243466139       -2.9563659472      -16.5170366940  SOLV      2227            0.0000000000
      6801      2238  TIP3      H2             15.0330366125       -2.7415358610      -17.9680264846  SOLV      2227            0.0000000000
      6802      2239  TIP3      OH2            14.8224162246       -5.9550198158       -8.8791314493  SOLV      2228            0.0000000000
      6803      2239  TIP3      H1             13.8982875939       -6.2279798426       -8.7159880398  SOLV      2228            0.0000000000
      6804      2239  TIP3      H2             15.1764807302       -6.7643845394       -9.2978957405  SOLV      2228            0.0000000000
      6805      2240  TIP3      OH2             6.1594473376       -3.6957518860      -11.2521538365  SOLV      2229            0.0000000000
      6806      2240  TIP3      H1              6.1061351319       -2.8861147506      -11.7947164700  SOLV      2229            0.0000000000
      6807      2240  TIP3      H2              5.2326130072       -3.8328677856      -11.0277556919  SOLV      2229            0.0000000000
      6808      2241  TIP3      OH2             1.8186979306      -10.6777999550      -14.1419082501  SOLV      2230            0.0000000000
      6809      2241  TIP3      H1              2.2494929827       -9.8220428745      -13.9314241387  SOLV      2230            0.0000000000
      6810      2241  TIP3      H2              1.0277462914      -10.6289893957      -13.5587147955  SOLV      2230            0.0000000000
      6811      2242  TIP3      OH2             7.4329089836       -6.0781576044      -11.8330265061  SOLV      2231            0.0000000000
      6812      2242  TIP3      H1              7.1048645168       -5.1730149464      -11.6523978484  SOLV      2231            0.0000000000
      6813      2242  TIP3      H2              7.0760899438       -6.5656839921      -11.0686274967  SOLV      2231            0.0000000000
      6814      2243  TIP3      OH2             9.0223187461       -0.2852970167       -7.1421085097  SOLV      2232            0.0000000000
      6815      2243  TIP3      H1              9.4434667047        0.4840986756       -7.5546868207  SOLV      2232            0.0000000000
      6816      2243  TIP3      H2              9.2367088101       -0.1767266472       -6.2091004496  SOLV      2232            0.0000000000
      6817      2244  TIP3      OH2             5.3136919971       -1.3251587541      -12.7258859847  SOLV      2233            0.0000000000
      6818      2244  TIP3      H1              4.4567706138       -1.2455781591      -12.2586528759  SOLV      2233            0.0000000000
      6819      2244  TIP3      H2              5.6325479124       -0.3957179141      -12.6827688645  SOLV      2233            0.0000000000
      6820      2245  TIP3      OH2            12.6724104371       -3.9068514843       -6.8322988947  SOLV      2234            0.0000000000
      6821      2245  TIP3      H1             12.7121660697       -4.0275245884       -5.8570912320  SOLV      2234            0.0000000000
      6822      2245  TIP3      H2             13.4598139514       -4.3942225233       -7.1104501448  SOLV      2234            0.0000000000
      6823      2246  TIP3      OH2            12.4924153789       -4.9666455988      -18.1172338732  SOLV      2235            0.0000000000
      6824      2246  TIP3      H1             13.0319220422       -5.2222357902      -17.3325439616  SOLV      2235            0.0000000000
      6825      2246  TIP3      H2             11.6132674314       -5.2573044991      -17.8305102486  SOLV      2235            0.0000000000
      6826      2247  TIP3      OH2            15.2478275027        1.3248925552       -6.5360591723  SOLV      2236            0.0000000000
      6827      2247  TIP3      H1             14.4226071915        0.8195583570       -6.6243194536  SOLV      2236            0.0000000000
      6828      2247  TIP3      H2             15.1051282699        2.0382635005       -7.1944026070  SOLV      2236            0.0000000000
      6829      2248  TIP3      OH2            15.8474477910       -0.2709313922      -19.9532387864  SOLV      2237            0.0000000000
      6830      2248  TIP3      H1             16.2336566973        0.4787601071      -20.4369937221  SOLV      2237            0.0000000000
      6831      2248  TIP3      H2             15.0434214932        0.1668309531      -19.6035082452  SOLV      2237            0.0000000000
      6832      2249  TIP3      OH2             6.0929741605      -12.4924811122       -1.3781550852  SOLV      2238            0.0000000000
      6833      2249  TIP3      H1              5.1157031592      -12.4715306961       -1.3495762175  SOLV      2238            0.0000000000
      6834      2249  TIP3      H2              6.3089215006      -13.0079447774       -0.5838853858  SOLV      2238            0.0000000000
      6835      2250  TIP3      OH2            14.1029480662       -5.6973219376      -16.0156158550  SOLV      2239            0.0000000000
      6836      2250  TIP3      H1             14.0064396022       -6.3446631021      -15.2890164687  SOLV      2239            0.0000000000
      6837      2250  TIP3      H2             15.0766833461       -5.7025039546      -16.1236398470  SOLV      2239            0.0000000000
      6838      2251  TIP3      OH2             3.3205103044       -1.5341295393       -5.0160476113  SOLV      2240            0.0000000000
      6839      2251  TIP3      H1              4.0100730467       -2.1536946098       -4.7247780984  SOLV      2240            0.0000000000
      6840      2251  TIP3      H2              2.9717580477       -1.2199760222       -4.1689538583  SOLV      2240            0.0000000000
      6841      2252  TIP3      OH2             6.1062056195       -5.2018828236      -18.1320101856  SOLV      2241            0.0000000000
      6842      2252  TIP3      H1              6.2215062485       -6.1372134159      -18.3816974071  SOLV      2241            0.0000000000
      6843      2252  TIP3      H2              5.8986149054       -5.2824372681      -17.1789325520  SOLV      2241            0.0000000000
      6844      2253  TIP3      OH2             5.5379097970       -5.1406259154      -15.4228654849  SOLV      2242            0.0000000000
      6845      2253  TIP3      H1              6.2552996919       -5.4064477245      -14.8338971714  SOLV      2242            0.0000000000
      6846      2253  TIP3      H2              5.5579339309       -4.1604363144      -15.3292337191  SOLV      2242            0.0000000000
      6847      2254  TIP3      OH2             2.8791786719       -8.2284665928      -13.3507478987  SOLV      2243            0.0000000000
      6848      2254  TIP3      H1              2.2076938602       -7.7753384204      -12.7938323740  SOLV      2243            0.0000000000
      6849      2254  TIP3      H2              3.0024939745       -7.5484401021      -14.0414625560  SOLV      2243            0.0000000000
      6850      2255  TIP3      OH2            14.4824501879      -11.8968451651       -4.4745004382  SOLV      2244            0.0000000000
      6851      2255  TIP3      H1             15.2472061136      -11.4611762450       -4.0613691007  SOLV      2244            0.0000000000
      6852      2255  TIP3      H2             14.3546064322      -12.6889074731       -3.9105612017  SOLV      2244            0.0000000000
      6853      2256  TIP3      OH2            13.2777051124      -14.4038491978      -12.7490027982  SOLV      2245            0.0000000000
      6854      2256  TIP3      H1             13.1201868412      -14.1666504838      -13.6836706717  SOLV      2245            0.0000000000
      6855      2256  TIP3      H2             13.6833017064      -13.5818126998      -12.3972251234  SOLV      2245            0.0000000000
      6856      2257  TIP3      OH2             8.2336530285       -3.1796760195      -15.9389898174  SOLV      2246            0.0000000000
      6857      2257  TIP3      H1              7.3572869203       -2.9459740968      -15.5739620362  SOLV      2246            0.0000000000
      6858      2257  TIP3      H2              8.3955967141       -2.4048586029      -16.4964120912  SOLV      2246            0.0000000000
      6859      2258  TIP3      OH2            10.0624551917      -12.5292779832      -11.7779730079  SOLV      2247            0.0000000000
      6860      2258  TIP3      H1             10.7013491857      -11.8039917948      -11.9515033029  SOLV      2247            0.0000000000
      6861      2258  TIP3      H2             10.1417513735      -12.6232549956      -10.8050084755  SOLV      2247            0.0000000000
      6862      2259  TIP3      OH2            12.7990250695       -9.4031585254       -3.7374708489  SOLV      2248            0.0000000000
      6863      2259  TIP3      H1             13.0793137247       -8.8566567291       -2.9725390465  SOLV      2248            0.0000000000
      6864      2259  TIP3      H2             13.3301596136      -10.2069928139       -3.6156489213  SOLV      2248            0.0000000000
      6865      2260  TIP3      OH2            11.5255610734      -15.3657881786      -10.7815829374  SOLV      2249            0.0000000000
      6866      2260  TIP3      H1             11.4028503217      -14.5796387473      -10.2155566089  SOLV      2249            0.0000000000
      6867      2260  TIP3      H2             12.1658133630      -15.0161721113      -11.4433981458  SOLV      2249            0.0000000000
      6868      2261  TIP3      OH2             5.6911111222       -2.4229149265      -15.2250074324  SOLV      2250            0.0000000000
      6869      2261  TIP3      H1              5.3965489740       -1.7132056972      -15.8382310360  SOLV      2250            0.0000000000
      6870      2261  TIP3      H2              5.5263728063       -2.0010021667      -14.3521258737  SOLV      2250            0.0000000000
      6871      2262  TIP3      OH2             6.6704474289      -15.2911950602      -12.8650438281  SOLV      2251            0.0000000000
      6872      2262  TIP3      H1              6.6154055470      -14.3868493203      -12.4977529970  SOLV      2251            0.0000000000
      6873      2262  TIP3      H2              7.6387136516      -15.4327110624      -12.7935247566  SOLV      2251            0.0000000000
      6874      2263  TIP3      OH2            19.1626176367      -10.3715353497       -3.8656929138  SOLV      2252            0.0000000000
      6875      2263  TIP3      H1             18.1799656756      -10.3787442604       -3.8132556419  SOLV      2252            0.0000000000
      6876      2263  TIP3      H2             19.2889082287      -10.7682290963       -4.7369611620  SOLV      2252            0.0000000000
      6877      2264  TIP3      OH2            15.7034206197       -8.4302436277      -10.0190198126  SOLV      2253            0.0000000000
      6878      2264  TIP3      H1             14.9358404137       -9.0137093099       -9.8874061211  SOLV      2253            0.0000000000
      6879      2264  TIP3      H2             16.4081260834       -8.9001314847       -9.5235904720  SOLV      2253            0.0000000000
      6880      2265  TIP3      OH2             2.8628570201       -6.1994479357      -15.3219825849  SOLV      2254            0.0000000000
      6881      2265  TIP3      H1              3.5644782631       -5.5276848793      -15.2389811773  SOLV      2254            0.0000000000
      6882      2265  TIP3      H2              3.2844268048       -6.7801642137      -15.9926105851  SOLV      2254            0.0000000000
      6883      2266  TIP3      OH2             2.2465193377      -13.3984449399      -13.9965960667  SOLV      2255            0.0000000000
      6884      2266  TIP3      H1              2.2901675409      -12.4199254577      -13.9899324505  SOLV      2255            0.0000000000
      6885      2266  TIP3      H2              1.4142809062      -13.5493896575      -14.4519450213  SOLV      2255            0.0000000000
      6886      2267  TIP3      OH2            15.4110239991        1.1590825690      -10.5641988717  SOLV      2256            0.0000000000
      6887      2267  TIP3      H1             14.9870971695        1.6298997759      -11.3169486588  SOLV      2256            0.0000000000
      6888      2267  TIP3      H2             16.3571287033        1.3527319085      -10.7549257180  SOLV      2256            0.0000000000
      6889      2268  TIP3      OH2             6.1839382684      -16.1844348378       -5.3037263932  SOLV      2257            0.0000000000
      6890      2268  TIP3      H1              5.8579155485      -16.5109367308       -6.1695683311  SOLV      2257            0.0000000000
      6891      2268  TIP3      H2              6.0530847407      -16.9656292735       -4.7287474676  SOLV      2257            0.0000000000
      6892      2269  TIP3      OH2             1.4749240162       -4.0374046481      -11.4826388215  SOLV      2258            0.0000000000
      6893      2269  TIP3      H1              0.9084693525       -3.7108154312      -10.7741927409  SOLV      2258            0.0000000000
      6894      2269  TIP3      H2              1.1262257734       -3.5607457553      -12.2650280871  SOLV      2258            0.0000000000
      6895      2270  TIP3      OH2             7.7197308912       -3.1859268276      -19.0657479481  SOLV      2259            0.0000000000
      6896      2270  TIP3      H1              7.1787706498       -3.9014736101      -18.6554380412  SOLV      2259            0.0000000000
      6897      2270  TIP3      H2              8.4868124687       -3.6956008828      -19.3794415779  SOLV      2259            0.0000000000
      6898      2271  TIP3      OH2            14.2344505854        0.1535338472       -3.0484434961  SOLV      2260            0.0000000000
      6899      2271  TIP3      H1             14.0912859466       -0.4504501068       -2.2832792783  SOLV      2260            0.0000000000
      6900      2271  TIP3      H2             14.9606019287        0.7156929058       -2.7154122861  SOLV      2260            0.0000000000
      6901      2272  TIP3      OH2            12.0810310364       -2.8071065822      -19.8814514768  SOLV      2261            0.0000000000
      6902      2272  TIP3      H1             12.4820754451       -3.4567151578      -19.2705707250  SOLV      2261            0.0000000000
      6903      2272  TIP3      H2             12.6743153336       -2.8415585721      -20.6550064839  SOLV      2261            0.0000000000
      6904      2273  TIP3      OH2             4.2325191315       -8.0592250318      -16.7741637866  SOLV      2262            0.0000000000
      6905      2273  TIP3      H1              4.8072932113       -8.3308467700      -16.0353752477  SOLV      2262            0.0000000000
      6906      2273  TIP3      H2              4.8983322575       -7.9980553020      -17.4941119562  SOLV      2262            0.0000000000
      6907      2274  TIP3      OH2            10.9665989217       -3.8634489446       -1.0018773175  SOLV      2263            0.0000000000
      6908      2274  TIP3      H1             10.1424956632       -3.7814289041       -0.5339959077  SOLV      2263            0.0000000000
      6909      2274  TIP3      H2             11.1415909108       -4.8285083021       -0.9477586477  SOLV      2263            0.0000000000
      6910      2275  TIP3      OH2             9.4092450845       -6.0061841281      -18.7068413458  SOLV      2264            0.0000000000
      6911      2275  TIP3      H1              9.3899900930       -5.8763944476      -17.7369237480  SOLV      2264            0.0000000000
      6912      2275  TIP3      H2              9.3852689712       -6.9870009219      -18.7585932625  SOLV      2264            0.0000000000
      6913      2276  TIP3      OH2            15.5007946066       -3.5772972911       -4.9533946328  SOLV      2265            0.0000000000
      6914      2276  TIP3      H1             16.2480418134       -3.1133163713       -5.3778897002  SOLV      2265            0.0000000000
      6915      2276  TIP3      H2             14.7974005313       -2.9069287850       -5.0619382173  SOLV      2265            0.0000000000
      6916      2277  TIP3      OH2             5.5844416824       -7.8056830833        1.0293914806  SOLV      2266            0.0000000000
      6917      2277  TIP3      H1              6.5131502959       -7.5829721358        0.9045958763  SOLV      2266            0.0000000000
      6918      2277  TIP3      H2              5.3253379529       -7.0406973111        1.5713341647  SOLV      2266            0.0000000000
      6919      2278  TIP3      OH2             6.2289790171       -8.9224150662      -14.6239437973  SOLV      2267            0.0000000000
      6920      2278  TIP3      H1              5.9606882512       -9.2924994514      -13.7652271254  SOLV      2267            0.0000000000
      6921      2278  TIP3      H2              6.6108899131       -9.6998799880      -15.0804692158  SOLV      2267            0.0000000000
      6922      2279  TIP3      OH2             8.8486243376       -8.3749700464       -2.3324362596  SOLV      2268            0.0000000000
      6923      2279  TIP3      H1              8.5071460251       -7.5366756588       -1.9886745555  SOLV      2268            0.0000000000
      6924      2279  TIP3      H2              9.3855452371       -8.0604374279       -3.0943824744  SOLV      2268            0.0000000000
      6925      2280  TIP3      OH2             7.3188166766      -10.9856563957      -16.1951665980  SOLV      2269            0.0000000000
      6926      2280  TIP3      H1              7.0509080059      -10.8967288251      -17.1334994602  SOLV      2269            0.0000000000
      6927      2280  TIP3      H2              8.2931230904      -10.9298203697      -16.2801414381  SOLV      2269            0.0000000000
      6928      2281  TIP3      OH2            14.1786018854       -4.3702033238       -1.0866354516  SOLV      2270            0.0000000000
      6929      2281  TIP3      H1             15.0620088726       -4.5872387976       -1.3949327740  SOLV      2270            0.0000000000
      6930      2281  TIP3      H2             14.0952481549       -4.9188804120       -0.2846502708  SOLV      2270            0.0000000000
      6931      2282  TIP3      OH2            15.4684838154       -7.7402544560      -19.4931086701  SOLV      2271            0.0000000000
      6932      2282  TIP3      H1             15.2660132649       -8.1697048199      -20.3465958445  SOLV      2271            0.0000000000
      6933      2282  TIP3      H2             15.1562543021       -6.8278116310      -19.7005295018  SOLV      2271            0.0000000000
      6934      2283  TIP3      OH2            10.2219344806      -10.4306049828       -1.0820482277  SOLV      2272            0.0000000000
      6935      2283  TIP3      H1             10.2397929897      -11.2158844948       -1.6652563548  SOLV      2272            0.0000000000
      6936      2283  TIP3      H2              9.7574777077       -9.7702062450       -1.6378514870  SOLV      2272            0.0000000000
      6937      2284  TIP3      OH2            10.2548500987      -12.5540451590       -2.9879590744  SOLV      2273            0.0000000000
      6938      2284  TIP3      H1             10.5252590870      -12.1367512122       -3.8287167767  SOLV      2273            0.0000000000
      6939      2284  TIP3      H2              9.3191245210      -12.7848341206       -3.1728750936  SOLV      2273            0.0000000000
      6940      2285  TIP3      OH2            10.4421997541       -7.1730884703       -4.1653853971  SOLV      2274            0.0000000000
      6941      2285  TIP3      H1             11.2964308835       -7.0289039305       -4.5902288925  SOLV      2274            0.0000000000
      6942      2285  TIP3      H2              9.8659378621       -6.5582082619       -4.6686221305  SOLV      2274            0.0000000000
      6943      2286  TIP3      OH2            16.3111923209       -7.5552330667       -0.4770747578  SOLV      2275            0.0000000000
      6944      2286  TIP3      H1             16.8060823923       -8.3769078776       -0.3453845409  SOLV      2275            0.0000000000
      6945      2286  TIP3      H2             16.9884915151       -6.9695298692       -0.8471673519  SOLV      2275            0.0000000000
      6946      2287  TIP3      OH2            16.7363662188       -5.0406266463       -3.0811059341  SOLV      2276            0.0000000000
      6947      2287  TIP3      H1             16.1519969468       -4.4835311574       -3.6521135644  SOLV      2276            0.0000000000
      6948      2287  TIP3      H2             17.6084081635       -4.8102924431       -3.4743302642  SOLV      2276            0.0000000000
      6949      2288  TIP3      OH2             8.9931887774       -9.4472526554        1.2721162195  SOLV      2277            0.0000000000
      6950      2288  TIP3      H1              8.2168595424      -10.0231270667        1.4065088786  SOLV      2277            0.0000000000
      6951      2288  TIP3      H2              9.3184853846       -9.7370613080        0.3988790213  SOLV      2277            0.0000000000
      6952      2289  TIP3      OH2            11.5441066531      -14.9380078521       -2.2505057436  SOLV      2278            0.0000000000
      6953      2289  TIP3      H1             11.0677926041      -14.1157721289       -2.4960675644  SOLV      2278            0.0000000000
      6954      2289  TIP3      H2             10.8444334906      -15.6119350397       -2.3647974623  SOLV      2278            0.0000000000
      6955      2290  TIP3      OH2            12.8197845904       -9.9247024301       -0.1302477764  SOLV      2279            0.0000000000
      6956      2290  TIP3      H1             12.6585582386      -10.0288906100        0.8263814804  SOLV      2279            0.0000000000
      6957      2290  TIP3      H2             11.9216784043      -10.1363271316       -0.4629807070  SOLV      2279            0.0000000000
      6958      2291  TIP3      OH2            15.1861480431      -10.4586099349       -1.5870509663  SOLV      2280            0.0000000000
      6959      2291  TIP3      H1             14.4323755812      -10.4120032458       -0.9658889038  SOLV      2280            0.0000000000
      6960      2291  TIP3      H2             15.9251067869      -10.7166288155       -1.0001884611  SOLV      2280            0.0000000000
      6961      2292  TIP3      OH2            17.5137169659      -10.9516744150       -0.0740730891  SOLV      2281            0.0000000000
      6962      2292  TIP3      H1             17.6357511320      -11.9130404387        0.0766974574  SOLV      2281            0.0000000000
      6963      2292  TIP3      H2             17.4461694006      -10.6017402840        0.8392764198  SOLV      2281            0.0000000000
      6964      2293  TIP3      OH2             7.1234369513      -11.5188354855        1.8316996097  SOLV      2282            0.0000000000
      6965      2293  TIP3      H1              7.2353957214      -12.4412016206        1.5453546332  SOLV      2282            0.0000000000
      6966      2293  TIP3      H2              7.5109373294      -11.5527112635        2.7273827768  SOLV      2282            0.0000000000
      6967      2294  TIP3      OH2            12.4676349832      -14.8418208460        0.3335953674  SOLV      2283            0.0000000000
      6968      2294  TIP3      H1             13.1364621730      -15.5499512464        0.2578997110  SOLV      2283            0.0000000000
      6969      2294  TIP3      H2             12.0724935523      -14.8738987014       -0.5610447927  SOLV      2283            0.0000000000
      6970      2295  TIP3      OH2            13.1385789462      -12.6979396487        1.9051079083  SOLV      2284            0.0000000000
      6971      2295  TIP3      H1             12.9048964193      -13.4027428430        1.2614347787  SOLV      2284            0.0000000000
      6972      2295  TIP3      H2             12.3636252775      -12.0985256628        1.8455214250  SOLV      2284            0.0000000000
      6973      2296  TIP3      OH2             5.4074161778       -0.3887133408      -17.1035149527  SOLV      2285            0.0000000000
      6974      2296  TIP3      H1              6.3542560246       -0.4930252238      -17.3109796322  SOLV      2285            0.0000000000
      6975      2296  TIP3      H2              5.1246104955        0.1336001454      -17.8764483132  SOLV      2285            0.0000000000
      6976      2297  TIP3      OH2             0.1597250869       -6.5568174775      -15.0250776589  SOLV      2286            0.0000000000
      6977      2297  TIP3      H1              1.1176911511       -6.3619930969      -15.1233783749  SOLV      2286            0.0000000000
      6978      2297  TIP3      H2              0.1029955692       -7.4495452546      -15.4280095550  SOLV      2286            0.0000000000
      6979      2298  TIP3      OH2            -0.6295962270       -0.4655292369      -10.7759160311  SOLV      2287            0.0000000000
      6980      2298  TIP3      H1             -1.3091088105       -1.0633831808      -11.1602086300  SOLV      2287            0.0000000000
      6981      2298  TIP3      H2             -0.2067305669       -1.0690136310      -10.1280047844  SOLV      2287            0.0000000000
      6982      2299  TIP3      OH2             0.7192998245       -2.0229184122       -8.9323132724  SOLV      2288            0.0000000000
      6983      2299  TIP3      H1              0.5529766503       -2.7011177110       -8.2555392854  SOLV      2288            0.0000000000
      6984      2299  TIP3      H2              1.1457128254       -1.3446674642       -8.3786247819  SOLV      2288            0.0000000000
      6985      2300  TIP3      OH2            17.9834032362        1.9906290356      -10.9214927104  SOLV      2289            0.0000000000
      6986      2300  TIP3      H1             18.1927680269        2.3390356546      -10.0345182555  SOLV      2289            0.0000000000
      6987      2300  TIP3      H2             18.6026049289        2.4808264312      -11.4829543949  SOLV      2289            0.0000000000
      6988      2301  TIP3      OH2            18.2070911534        2.2509739428       -8.1130896892  SOLV      2290            0.0000000000
      6989      2301  TIP3      H1             17.8091514819        1.3551974642       -8.1332394370  SOLV      2290            0.0000000000
      6990      2301  TIP3      H2             18.9538735827        2.0893804089       -7.5171453700  SOLV      2290            0.0000000000
      6991      2302  TIP3      OH2            18.7408335954       -0.9894970100       -2.3664103462  SOLV      2291            0.0000000000
      6992      2302  TIP3      H1             18.0023739818       -0.8903534485       -1.7316122579  SOLV      2291            0.0000000000
      6993      2302  TIP3      H2             19.1355360924       -0.0941438209       -2.3437464547  SOLV      2291            0.0000000000
      6994      2303  TIP3      OH2            16.8941597976       -5.8669738797      -16.2197713986  SOLV      2292            0.0000000000
      6995      2303  TIP3      H1             17.5473915703       -5.1982393198      -16.5096801309  SOLV      2292            0.0000000000
      6996      2303  TIP3      H2             17.3419393115       -6.2405349397      -15.4292044961  SOLV      2292            0.0000000000
      6997      2304  TIP3      OH2            18.1650014598       -7.2038171252      -14.1714212243  SOLV      2293            0.0000000000
      6998      2304  TIP3      H1             17.4925786565       -7.5957109016      -13.5732827795  SOLV      2293            0.0000000000
      6999      2304  TIP3      H2             18.8184785775       -6.8307425355      -13.5432714882  SOLV      2293            0.0000000000
      7000      2305  TIP3      OH2            18.7310601080       -3.2290910926       -9.8486190550  SOLV      2294            0.0000000000
      7001      2305  TIP3      H1             19.2612835794       -3.8974914878      -10.3210892006  SOLV      2294            0.0000000000
      7002      2305  TIP3      H2             18.7004505623       -2.4939121640      -10.4933977352  SOLV      2294            0.0000000000
      7003      2306  TIP3      OH2            17.0147154649       -0.2919665774       -7.9268842953  SOLV      2295            0.0000000000
      7004      2306  TIP3      H1             16.3228768294        0.1631294545       -7.4045199736  SOLV      2295            0.0000000000
      7005      2306  TIP3      H2             16.4923123057       -0.7264833273       -8.6327171677  SOLV      2295            0.0000000000
      7006      2307  TIP3      OH2            17.5095156915       -8.0967274145      -17.7134442684  SOLV      2296            0.0000000000
      7007      2307  TIP3      H1             16.7791470031       -8.0682046942      -18.3736205794  SOLV      2296            0.0000000000
      7008      2307  TIP3      H2             17.2563577200       -7.3260878440      -17.1632641197  SOLV      2296            0.0000000000
      7009      2308  TIP3      OH2            16.2238010953      -11.3907302966      -18.1955363822  SOLV      2297            0.0000000000
      7010      2308  TIP3      H1             15.7416238613      -11.0213505106      -18.9426433500  SOLV      2297            0.0000000000
      7011      2308  TIP3      H2             16.0154689923      -12.3450533196      -18.2943409068  SOLV      2297            0.0000000000
      7012      2309  TIP3      OH2            16.2528272877       -8.5823659771      -12.7209254928  SOLV      2298            0.0000000000
      7013      2309  TIP3      H1             16.3385584534       -9.5470191703      -12.7828104756  SOLV      2298            0.0000000000
      7014      2309  TIP3      H2             16.1067082104       -8.4455691273      -11.7589326212  SOLV      2298            0.0000000000
      7015      2310  TIP3      OH2             2.5199290407       -7.9018026957       -5.2434199108  SOLV      2299            0.0000000000
      7016      2310  TIP3      H1              2.4799993462       -8.2235550109       -6.1680922512  SOLV      2299            0.0000000000
      7017      2310  TIP3      H2              3.4925390759       -7.8815150435       -5.0957809122  SOLV      2299            0.0000000000
      7018      2311  TIP3      OH2            19.1825160899       -4.3527563286       -4.1188599489  SOLV      2300            0.0000000000
      7019      2311  TIP3      H1             19.8889099265       -5.0201842717       -4.2647770963  SOLV      2300            0.0000000000
      7020      2311  TIP3      H2             19.4166325393       -3.6568690751       -4.7533509254  SOLV      2300            0.0000000000
      7021      2312  TIP3      OH2            20.9893311971       -6.3724909530       -4.1076770643  SOLV      2301            0.0000000000
      7022      2312  TIP3      H1             20.2427850990       -6.8409369937       -3.6749979946  SOLV      2301            0.0000000000
      7023      2312  TIP3      H2             21.7201788587       -6.9927257230       -3.9034373051  SOLV      2301            0.0000000000
      7024      2313  TIP3      OH2            15.6715840063      -14.0615983071      -18.3850808515  SOLV      2302            0.0000000000
      7025      2313  TIP3      H1             16.3836003895      -14.3686152811      -17.7880476071  SOLV      2302            0.0000000000
      7026      2313  TIP3      H2             14.9141682327      -14.6203907746      -18.1475247503  SOLV      2302            0.0000000000
      7027      2314  TIP3      OH2            16.2465549684      -11.4220520518      -13.8124203338  SOLV      2303            0.0000000000
      7028      2314  TIP3      H1             16.6748865256      -12.2998514399      -13.6735329779  SOLV      2303            0.0000000000
      7029      2314  TIP3      H2             16.8142333890      -11.0694974287      -14.5217077695  SOLV      2303            0.0000000000
      7030      2315  TIP3      OH2            17.8268179118       -9.7637758710       -8.8097751544  SOLV      2304            0.0000000000
      7031      2315  TIP3      H1             18.6808133717       -9.5151920330       -9.2341025625  SOLV      2304            0.0000000000
      7032      2315  TIP3      H2             17.9755269808       -9.3669359179       -7.9300083199  SOLV      2304            0.0000000000
      7033      2316  TIP3      OH2            18.5596798194       -8.2661096128       -6.5229322004  SOLV      2305            0.0000000000
      7034      2316  TIP3      H1             17.7979246459       -7.9266467918       -6.0160126743  SOLV      2305            0.0000000000
      7035      2316  TIP3      H2             18.8823693519       -7.4487728762       -6.9630412949  SOLV      2305            0.0000000000
      7036      2317  TIP3      OH2             3.9489163587      -10.9725588552        1.4233556894  SOLV      2306            0.0000000000
      7037      2317  TIP3      H1              4.7748289751      -10.4887282014        1.3987793551  SOLV      2306            0.0000000000
      7038      2317  TIP3      H2              4.2517374943      -11.7978784680        1.8594072574  SOLV      2306            0.0000000000
      7039      2318  TIP3      OH2            23.0629421302      -12.3124517823       -0.9600078169  SOLV      2307            0.0000000000
      7040      2318  TIP3      H1             23.6499519725      -12.9661230237       -1.3939251261  SOLV      2307            0.0000000000
      7041      2318  TIP3      H2             22.7459765694      -11.7898720734       -1.7290882972  SOLV      2307            0.0000000000
      7042      2319  TIP3      OH2            17.3366432312      -13.9247995757      -13.4002074651  SOLV      2308            0.0000000000
      7043      2319  TIP3      H1             17.8075967773      -14.0980142105      -12.5580063664  SOLV      2308            0.0000000000
      7044      2319  TIP3      H2             16.7213441998      -14.6857492555      -13.4239169686  SOLV      2308            0.0000000000
      7045      2320  TIP3      OH2             4.3362146613      -14.0971111898       -5.1832328846  SOLV      2309            0.0000000000
      7046      2320  TIP3      H1              4.9770184584      -14.8315962405       -5.1130542138  SOLV      2309            0.0000000000
      7047      2320  TIP3      H2              4.9356620598      -13.3358838657       -5.2721415452  SOLV      2309            0.0000000000
      7048      2321  TIP3      OH2             2.3260556937      -11.3847347735       -4.4023210953  SOLV      2310            0.0000000000
      7049      2321  TIP3      H1              2.8244047006      -11.3693847116       -5.2428905235  SOLV      2310            0.0000000000
      7050      2321  TIP3      H2              2.3771837604      -10.4594708238       -4.1270687693  SOLV      2310            0.0000000000
      7051      2322  TIP3      OH2            21.7260322847      -10.9895142007       -2.9164241956  SOLV      2311            0.0000000000
      7052      2322  TIP3      H1             20.8657257160      -10.5597959020       -2.7364288166  SOLV      2311            0.0000000000
      7053      2322  TIP3      H2             21.4243950615      -11.7234650672       -3.4856433459  SOLV      2311            0.0000000000
      7054      2323  TIP3      OH2            18.0751030861      -14.6378278180      -17.0212262548  SOLV      2312            0.0000000000
      7055      2323  TIP3      H1             18.4812730180      -15.3131333796      -17.6032646051  SOLV      2312            0.0000000000
      7056      2323  TIP3      H2             18.7298748746      -13.9125626991      -17.0545496201  SOLV      2312            0.0000000000
      7057      2324  TIP3      OH2             2.1910076282      -16.3825859070       -9.4863245605  SOLV      2313            0.0000000000
      7058      2324  TIP3      H1              1.2744096932      -16.4084288001       -9.1606300679  SOLV      2313            0.0000000000
      7059      2324  TIP3      H2              2.1152098176      -15.7714602264      -10.2484788941  SOLV      2313            0.0000000000
      7060      2325  TIP3      OH2            13.7520390871        0.7258067137      -14.4007796167  SOLV      2314            0.0000000000
      7061      2325  TIP3      H1             14.3111291037        0.6378294433      -15.1995726587  SOLV      2314            0.0000000000
      7062      2325  TIP3      H2             14.2449899819        1.3839720798      -13.8806634017  SOLV      2314            0.0000000000
      7063      2326  TIP3      OH2             4.3783723478      -15.5447419033       -1.3221569226  SOLV      2315            0.0000000000
      7064      2326  TIP3      H1              3.8432353272      -15.5975458333       -0.5159439148  SOLV      2315            0.0000000000
      7065      2326  TIP3      H2              3.7364436487      -15.1549702122       -1.9490188788  SOLV      2315            0.0000000000
      7066      2327  TIP3      OH2            12.5949636891        2.8512390681       -5.0720339596  SOLV      2316            0.0000000000
      7067      2327  TIP3      H1             13.2216394395        2.3925205985       -5.6463281217  SOLV      2316            0.0000000000
      7068      2327  TIP3      H2             13.2276026312        3.3805092249       -4.5177491963  SOLV      2316            0.0000000000
      7069      2328  TIP3      OH2            20.7487418683      -13.3608884047       -4.1000389710  SOLV      2317            0.0000000000
      7070      2328  TIP3      H1             19.8521602038      -13.4549740111       -4.4658022234  SOLV      2317            0.0000000000
      7071      2328  TIP3      H2             21.0954462122      -14.2769776785       -4.2063944202  SOLV      2317            0.0000000000
      7072      2329  TIP3      OH2             5.9427345666        1.7912089542       -6.2126825548  SOLV      2318            0.0000000000
      7073      2329  TIP3      H1              5.2725650414        1.1854017173       -5.8953032665  SOLV      2318            0.0000000000
      7074      2329  TIP3      H2              5.6328168685        1.9946688414       -7.1179106876  SOLV      2318            0.0000000000
      7075      2330  TIP3      OH2            10.0448042397        1.8773733282       -8.4347957226  SOLV      2319            0.0000000000
      7076      2330  TIP3      H1              9.2658385451        2.0033064712       -9.0135544522  SOLV      2319            0.0000000000
      7077      2330  TIP3      H2             10.1500762874        2.7723420931       -8.0477516679  SOLV      2319            0.0000000000
      7078      2331  TIP3      OH2            12.6210832431        1.1003137728       -7.6550747884  SOLV      2320            0.0000000000
      7079      2331  TIP3      H1             11.7195634047        1.3265104556       -7.9632036499  SOLV      2320            0.0000000000
      7080      2331  TIP3      H2             13.1482237258        1.7486299548       -8.1580720068  SOLV      2320            0.0000000000
      7081      2332  TIP3      OH2            14.5783695566        2.9562939231       -8.6345313053  SOLV      2321            0.0000000000
      7082      2332  TIP3      H1             14.4916802109        3.8327080427       -9.0705850501  SOLV      2321            0.0000000000
      7083      2332  TIP3      H2             14.9084045021        2.4039354665       -9.3756511165  SOLV      2321            0.0000000000
      7084      2333  TIP3      OH2             2.5082635074       -0.3461562758       -7.3758970480  SOLV      2322            0.0000000000
      7085      2333  TIP3      H1              2.7421734698       -0.6947739534       -6.4841169119  SOLV      2322            0.0000000000
      7086      2333  TIP3      H2              3.1897633062       -0.8143206931       -7.9076870323  SOLV      2322            0.0000000000
      7087      2334  TIP3      OH2             4.3722679499       -1.6785226397       -8.8082339936  SOLV      2323            0.0000000000
      7088      2334  TIP3      H1              4.5027426586       -2.5241134553       -8.3150954702  SOLV      2323            0.0000000000
      7089      2334  TIP3      H2              5.2875421634       -1.3218284022       -8.8119914953  SOLV      2323            0.0000000000
      7090      2335  TIP3      OH2             6.9935638318       -0.8148880973       -8.8606679841  SOLV      2324            0.0000000000
      7091      2335  TIP3      H1              7.2682481398       -1.7488151539       -8.9240450182  SOLV      2324            0.0000000000
      7092      2335  TIP3      H2              7.5799148130       -0.5449197534       -8.1232837863  SOLV      2324            0.0000000000
      7093      2336  TIP3      OH2            12.8171686317      -14.1866107603       -7.8625838099  SOLV      2325            0.0000000000
      7094      2336  TIP3      H1             12.4006848725      -14.9160266220       -7.3697539838  SOLV      2325            0.0000000000
      7095      2336  TIP3      H2             13.5484364859      -14.6345325546       -8.3294333830  SOLV      2325            0.0000000000
      7096      2337  TIP3      OH2            17.9720702387      -15.4112307621       -8.8912670154  SOLV      2326            0.0000000000
      7097      2337  TIP3      H1             18.3504827377      -14.8775346959       -9.6259281126  SOLV      2326            0.0000000000
      7098      2337  TIP3      H2             17.0366749304      -15.1386183732       -8.9132671828  SOLV      2326            0.0000000000
      7099      2338  TIP3      OH2            18.9649641286      -14.4214026381      -11.2298909160  SOLV      2327            0.0000000000
      7100      2338  TIP3      H1             19.7099888423      -14.9446241936      -11.5944934013  SOLV      2327            0.0000000000
      7101      2338  TIP3      H2             19.3167139886      -13.5105825229      -11.3727767690  SOLV      2327            0.0000000000
      7102      2339  TIP3      OH2             5.2785121973      -17.1174217383       -7.7605864237  SOLV      2328            0.0000000000
      7103      2339  TIP3      H1              4.3562193743      -17.4510331899       -7.7323771766  SOLV      2328            0.0000000000
      7104      2339  TIP3      H2              5.7697464386      -17.9649284901       -7.8098642395  SOLV      2328            0.0000000000
      7105      2340  TIP3      OH2             3.2601738708      -18.3840350585      -11.2382964958  SOLV      2329            0.0000000000
      7106      2340  TIP3      H1              3.4859925478      -17.7984795269      -11.9830517069  SOLV      2329            0.0000000000
      7107      2340  TIP3      H2              2.9134384211      -17.7437300319      -10.5832409771  SOLV      2329            0.0000000000
      7108      2341  TIP3      OH2             9.7833350023      -16.8259195472       -8.9327586791  SOLV      2330            0.0000000000
      7109      2341  TIP3      H1             10.3163801156      -16.3273224567       -9.5721070636  SOLV      2330            0.0000000000
      7110      2341  TIP3      H2             10.0247743378      -16.4009941782       -8.0994496983  SOLV      2330            0.0000000000
      7111      2342  TIP3      OH2            15.1249194222      -15.3041912852       -9.0927230847  SOLV      2331            0.0000000000
      7112      2342  TIP3      H1             15.1707356169      -15.6923372330       -9.9723308438  SOLV      2331            0.0000000000
      7113      2342  TIP3      H2             15.0354139127      -16.1080922978       -8.5248811144  SOLV      2331            0.0000000000
      7114      2343  TIP3      OH2            15.5046860179      -16.0398265476      -13.4622542612  SOLV      2332            0.0000000000
      7115      2343  TIP3      H1             14.6628980995      -15.5857411364      -13.2664245769  SOLV      2332            0.0000000000
      7116      2343  TIP3      H2             15.3451811852      -16.9101269837      -13.0384420792  SOLV      2332            0.0000000000
      7117      2344  TIP3      OH2             0.3176289985       -2.6393721958      -13.5204631180  SOLV      2333            0.0000000000
      7118      2344  TIP3      H1             -0.5483534756       -2.9587363471      -13.8394193723  SOLV      2333            0.0000000000
      7119      2344  TIP3      H2              0.2313117212       -1.6964224540      -13.7510843388  SOLV      2333            0.0000000000
      7120      2345  TIP3      OH2             4.3659729167      -16.8323937380      -13.6276279404  SOLV      2334            0.0000000000
      7121      2345  TIP3      H1              4.8459186160      -17.4392677432      -14.2220275745  SOLV      2334            0.0000000000
      7122      2345  TIP3      H2              5.0956436910      -16.2813082148      -13.2783105708  SOLV      2334            0.0000000000
      7123      2346  TIP3      OH2             9.4339066481      -15.0375759745      -12.6446475754  SOLV      2335            0.0000000000
      7124      2346  TIP3      H1             10.0482251175      -15.4725939827      -12.0289055920  SOLV      2335            0.0000000000
      7125      2346  TIP3      H2              9.6100588740      -14.0993412671      -12.4086508877  SOLV      2335            0.0000000000
      7126      2347  TIP3      OH2             8.0572141596       -0.8761437460      -17.6431234819  SOLV      2336            0.0000000000
      7127      2347  TIP3      H1              8.9312020337       -0.6368104514      -18.0176190177  SOLV      2336            0.0000000000
      7128      2347  TIP3      H2              7.8331748263       -1.6255825602      -18.2412723461  SOLV      2336            0.0000000000
      7129      2348  TIP3      OH2            15.2619544547        0.4070596316      -16.7032413116  SOLV      2337            0.0000000000
      7130      2348  TIP3      H1             15.1754016358       -0.5689593676      -16.8212262642  SOLV      2337            0.0000000000
      7131      2348  TIP3      H2             14.7989853156        0.7265770026      -17.5039985532  SOLV      2337            0.0000000000
      7132      2349  TIP3      OH2             7.3294969081      -14.3438089038        1.1455234937  SOLV      2338            0.0000000000
      7133      2349  TIP3      H1              7.0156899883      -15.0530612056        1.7363882519  SOLV      2338            0.0000000000
      7134      2349  TIP3      H2              8.2697048607      -14.2889845548        1.4236084327  SOLV      2338            0.0000000000
      7135      2350  TIP3      OH2             9.8386978553      -14.3305827065        2.3269371994  SOLV      2339            0.0000000000
      7136      2350  TIP3      H1             10.7069752602      -14.5629404533        1.9572187531  SOLV      2339            0.0000000000
      7137      2350  TIP3      H2              9.7211108558      -15.0284352173        3.0032689808  SOLV      2339            0.0000000000
      7138      2351  TIP3      OH2             1.0729984312       -2.4666577563      -17.1053791763  SOLV      2340            0.0000000000
      7139      2351  TIP3      H1              1.0868418244       -2.3105845704      -16.1510100960  SOLV      2340            0.0000000000
      7140      2351  TIP3      H2              1.9444859630       -2.9026874691      -17.2566339473  SOLV      2340            0.0000000000
      7141      2352  TIP3      OH2            18.1318992637      -13.6650341032        0.2171897473  SOLV      2341            0.0000000000
      7142      2352  TIP3      H1             18.3121754022      -13.9653749614        1.1348072706  SOLV      2341            0.0000000000
      7143      2352  TIP3      H2             19.0247510846      -13.7170950051       -0.1832778994  SOLV      2341            0.0000000000
      7144      2353  TIP3      OH2            17.4835633590        1.7752896330       -4.8235917235  SOLV      2342            0.0000000000
      7145      2353  TIP3      H1             16.6831182766        1.5188869254       -5.3224689224  SOLV      2342            0.0000000000
      7146      2353  TIP3      H2             17.3642875491        2.7553070200       -4.8050544648  SOLV      2342            0.0000000000
      7147      2354  TIP3      OH2            29.3067653210       -4.7545633206      -13.2349384867  SOLV      2343            0.0000000000
      7148      2354  TIP3      H1             30.1302138328       -4.9679539884      -12.7709709806  SOLV      2343            0.0000000000
      7149      2354  TIP3      H2             29.0467859657       -5.6150783853      -13.5983674101  SOLV      2343            0.0000000000
      7150      2355  TIP3      OH2            23.1169626967       -5.5545588985       -9.7014750800  SOLV      2344            0.0000000000
      7151      2355  TIP3      H1             23.4408942585       -6.2309712671       -9.0802926619  SOLV      2344            0.0000000000
      7152      2355  TIP3      H2             23.9011609849       -4.9974816890       -9.7989216171  SOLV      2344            0.0000000000
      7153      2356  TIP3      OH2            22.8915822717       -1.4067016230      -12.5228290726  SOLV      2345            0.0000000000
      7154      2356  TIP3      H1             22.8010309225       -2.3826161807      -12.5027859182  SOLV      2345            0.0000000000
      7155      2356  TIP3      H2             23.8593158847       -1.3185580561      -12.5975924279  SOLV      2345            0.0000000000
      7156      2357  TIP3      OH2            19.9240103803       -9.4102693573      -14.7020421698  SOLV      2346            0.0000000000
      7157      2357  TIP3      H1             19.4563963319       -8.5829434097      -14.4905212382  SOLV      2346            0.0000000000
      7158      2357  TIP3      H2             19.2081882386       -9.9014174488      -15.1427088817  SOLV      2346            0.0000000000
      7159      2358  TIP3      OH2            20.4982512836       -6.5096138758      -12.8493788164  SOLV      2347            0.0000000000
      7160      2358  TIP3      H1             21.0144851452       -7.2796753163      -12.5202664691  SOLV      2347            0.0000000000
      7161      2358  TIP3      H2             21.1286976979       -6.0868556442      -13.4458167626  SOLV      2347            0.0000000000
      7162      2359  TIP3      OH2            29.3847569184        2.7436754122      -16.4761894239  SOLV      2348            0.0000000000
      7163      2359  TIP3      H1             29.8689432538        1.9333985580      -16.2641692213  SOLV      2348            0.0000000000
      7164      2359  TIP3      H2             28.9735240013        2.9180264581      -15.6209318187  SOLV      2348            0.0000000000
      7165      2360  TIP3      OH2            28.0582395799       -2.2477632474      -12.8936397639  SOLV      2349            0.0000000000
      7166      2360  TIP3      H1             28.4234674018       -3.1330680375      -13.1115849942  SOLV      2349            0.0000000000
      7167      2360  TIP3      H2             28.8179792804       -1.7015503709      -13.1417699580  SOLV      2349            0.0000000000
      7168      2361  TIP3      OH2            25.4916772143      -10.6031898470      -12.9064664057  SOLV      2350            0.0000000000
      7169      2361  TIP3      H1             25.3672708119       -9.8618124021      -13.5363887844  SOLV      2350            0.0000000000
      7170      2361  TIP3      H2             24.9942137185      -11.3124451681      -13.3695197045  SOLV      2350            0.0000000000
      7171      2362  TIP3      OH2            21.9841778481       -8.5729699726      -11.8514384261  SOLV      2351            0.0000000000
      7172      2362  TIP3      H1             22.8095127220       -8.7653728745      -11.3656061661  SOLV      2351            0.0000000000
      7173      2362  TIP3      H2             22.1280675135       -9.1202923954      -12.6518681091  SOLV      2351            0.0000000000
      7174      2363  TIP3      OH2            26.1656618398       -6.5969509426      -13.8772904604  SOLV      2352            0.0000000000
      7175      2363  TIP3      H1             27.0587384706       -6.9313028585      -13.6346636168  SOLV      2352            0.0000000000
      7176      2363  TIP3      H2             25.7710700402       -7.4185405850      -14.2444994584  SOLV      2352            0.0000000000
      7177      2364  TIP3      OH2            25.5460702355      -10.6745980396       -8.5112255921  SOLV      2353            0.0000000000
      7178      2364  TIP3      H1             24.9687036453      -10.3679610330       -9.2338506007  SOLV      2353            0.0000000000
      7179      2364  TIP3      H2             24.9791336521      -10.4892772310       -7.7342492955  SOLV      2353            0.0000000000
      7180      2365  TIP3      OH2            29.1760499911       -2.1040592928      -18.7060648696  SOLV      2354            0.0000000000
      7181      2365  TIP3      H1             28.4066641650       -2.4210415947      -19.1836885221  SOLV      2354            0.0000000000
      7182      2365  TIP3      H2             28.8616508556       -1.2348014595      -18.3904726639  SOLV      2354            0.0000000000
      7183      2366  TIP3      OH2            26.7054014777       -2.9897575063      -10.5902005649  SOLV      2355            0.0000000000
      7184      2366  TIP3      H1             26.0866247081       -2.2930575423      -10.2731229818  SOLV      2355            0.0000000000
      7185      2366  TIP3      H2             27.1406510369       -2.5365728456      -11.3428142140  SOLV      2355            0.0000000000
      7186      2367  TIP3      OH2            24.2896721882       -9.5932787637      -10.7116708226  SOLV      2356            0.0000000000
      7187      2367  TIP3      H1             24.9250750305       -8.8713462148      -10.5032287460  SOLV      2356            0.0000000000
      7188      2367  TIP3      H2             24.7643495062      -10.0146888032      -11.4681576561  SOLV      2356            0.0000000000
      7189      2368  TIP3      OH2            24.9995453418       -1.0062676189       -9.6820637908  SOLV      2357            0.0000000000
      7190      2368  TIP3      H1             24.7546478739       -0.1241744851      -10.0331603257  SOLV      2357            0.0000000000
      7191      2368  TIP3      H2             24.1988634749       -1.1846146884       -9.1423600855  SOLV      2357            0.0000000000
      7192      2369  TIP3      OH2            18.8601973356       -4.1367623567      -17.3073098323  SOLV      2358            0.0000000000
      7193      2369  TIP3      H1             18.4560183765       -3.8705254828      -18.1520951246  SOLV      2358            0.0000000000
      7194      2369  TIP3      H2             19.1582423546       -3.2707439538      -16.9529033351  SOLV      2358            0.0000000000
      7195      2370  TIP3      OH2            27.9255598383       -6.4494961149      -18.8983662518  SOLV      2359            0.0000000000
      7196      2370  TIP3      H1             27.4781156870       -5.6011561368      -18.9760186436  SOLV      2359            0.0000000000
      7197      2370  TIP3      H2             28.4060924745       -6.4915607283      -19.7437527923  SOLV      2359            0.0000000000
      7198      2371  TIP3      OH2            24.1838312579       -5.1103391569      -15.0283691365  SOLV      2360            0.0000000000
      7199      2371  TIP3      H1             23.8206540398       -5.7033998256      -15.7195375822  SOLV      2360            0.0000000000
      7200      2371  TIP3      H2             24.9487295310       -5.6301817045      -14.6968874358  SOLV      2360            0.0000000000
      7201      2372  TIP3      OH2            25.5345205155       -1.0168277783      -13.5457697908  SOLV      2361            0.0000000000
      7202      2372  TIP3      H1             25.3715512704       -1.3521410720      -14.4395947245  SOLV      2361            0.0000000000
      7203      2372  TIP3      H2             26.4053109862       -1.4102073369      -13.3331849972  SOLV      2361            0.0000000000
      7204      2373  TIP3      OH2            25.5841114911       -5.3888280342      -11.4334172541  SOLV      2362            0.0000000000
      7205      2373  TIP3      H1             25.8884539272       -5.6464592881      -12.3297148760  SOLV      2362            0.0000000000
      7206      2373  TIP3      H2             26.0664090498       -4.5518832422      -11.2717994941  SOLV      2362            0.0000000000
      7207      2374  TIP3      OH2            30.2250855994        1.2250497845      -14.0423009801  SOLV      2363            0.0000000000
      7208      2374  TIP3      H1             30.3671006969        1.8620165589      -13.3231151173  SOLV      2363            0.0000000000
      7209      2374  TIP3      H2             30.6990825706        0.4376094684      -13.7108528560  SOLV      2363            0.0000000000
      7210      2375  TIP3      OH2            27.0010243099        0.0760661493       -8.1364879811  SOLV      2364            0.0000000000
      7211      2375  TIP3      H1             26.3976802643        0.7227178862       -7.7081559627  SOLV      2364            0.0000000000
      7212      2375  TIP3      H2             26.3535997561       -0.4143891240       -8.6857958562  SOLV      2364            0.0000000000
      7213      2376  TIP3      OH2            24.5733812638       -4.3507913095       -7.1162453576  SOLV      2365            0.0000000000
      7214      2376  TIP3      H1             24.6147058748       -3.4492855517       -6.7361783572  SOLV      2365            0.0000000000
      7215      2376  TIP3      H2             23.6152646281       -4.5308094219       -7.0149854379  SOLV      2365            0.0000000000
      7216      2377  TIP3      OH2            27.9753866080        0.4672771306      -18.2687548949  SOLV      2366            0.0000000000
      7217      2377  TIP3      H1             28.0256576124        1.1793330970      -17.6224665515  SOLV      2366            0.0000000000
      7218      2377  TIP3      H2             27.2340626945        0.7448613934      -18.8255315482  SOLV      2366            0.0000000000
      7219      2378  TIP3      OH2            24.9554128072        1.7660181072       -7.3294813655  SOLV      2367            0.0000000000
      7220      2378  TIP3      H1             24.6136205060        1.8269139308       -8.2399239219  SOLV      2367            0.0000000000
      7221      2378  TIP3      H2             24.1420900230        1.5503792786       -6.8166398915  SOLV      2367            0.0000000000
      7222      2379  TIP3      OH2            22.9577653716       -6.7106867192      -17.0406252954  SOLV      2368            0.0000000000
      7223      2379  TIP3      H1             22.2381190412       -6.2660078207      -17.5378758617  SOLV      2368            0.0000000000
      7224      2379  TIP3      H2             22.5503553663       -7.5578428630      -16.8312691372  SOLV      2368            0.0000000000
      7225      2380  TIP3      OH2            20.7330219256       -2.8607350358       -7.8611527435  SOLV      2369            0.0000000000
      7226      2380  TIP3      H1             20.0501503617       -3.0456987722       -8.5393635695  SOLV      2369            0.0000000000
      7227      2380  TIP3      H2             21.1080974949       -3.7447335625       -7.6829326049  SOLV      2369            0.0000000000
      7228      2381  TIP3      OH2            19.2935222738       -0.9455495078      -11.5388317254  SOLV      2370            0.0000000000
      7229      2381  TIP3      H1             20.2575401219       -0.9467448266      -11.6191448118  SOLV      2370            0.0000000000
      7230      2381  TIP3      H2             19.1479919017       -0.1499653555      -11.0030556350  SOLV      2370            0.0000000000
      7231      2382  TIP3      OH2            28.8936902974        1.4366150488       -9.6368889426  SOLV      2371            0.0000000000
      7232      2382  TIP3      H1             28.8286819526        2.3530390326       -9.2863593452  SOLV      2371            0.0000000000
      7233      2382  TIP3      H2             28.2439336592        0.9741131426       -9.0647457264  SOLV      2371            0.0000000000
      7234      2383  TIP3      OH2            26.4660569463        2.7540398068      -20.0564831178  SOLV      2372            0.0000000000
      7235      2383  TIP3      H1             26.0143641312        2.6466172048      -20.9112154394  SOLV      2372            0.0000000000
      7236      2383  TIP3      H2             26.1688000680        3.6453201786      -19.7870327866  SOLV      2372            0.0000000000
      7237      2384  TIP3      OH2            20.9829621135        1.1971320042      -16.2619385663  SOLV      2373            0.0000000000
      7238      2384  TIP3      H1             21.4550731109        1.1189403865      -15.4016536383  SOLV      2373            0.0000000000
      7239      2384  TIP3      H2             20.4560195477        0.3844387460      -16.2594333057  SOLV      2373            0.0000000000
      7240      2385  TIP3      OH2            28.7139527986        1.4757232606      -23.6466786684  SOLV      2374            0.0000000000
      7241      2385  TIP3      H1             29.4531421689        0.8391171411      -23.7147020012  SOLV      2374            0.0000000000
      7242      2385  TIP3      H2             28.8546067197        1.7937875690      -22.7289010418  SOLV      2374            0.0000000000
      7243      2386  TIP3      OH2            28.9067701811        2.1614490937      -21.0358113552  SOLV      2375            0.0000000000
      7244      2386  TIP3      H1             28.0381379996        2.3469405267      -20.6118311098  SOLV      2375            0.0000000000
      7245      2386  TIP3      H2             29.3804836644        1.7488171826      -20.2995965007  SOLV      2375            0.0000000000
      7246      2387  TIP3      OH2            22.7991894402       -1.0523380262       -8.0747613432  SOLV      2376            0.0000000000
      7247      2387  TIP3      H1             23.2615783266       -1.1763610040       -7.2234007018  SOLV      2376            0.0000000000
      7248      2387  TIP3      H2             22.0395661427       -1.6643272926       -7.9813393907  SOLV      2376            0.0000000000
      7249      2388  TIP3      OH2            26.6129806328      -13.0492473994       -9.9415095992  SOLV      2377            0.0000000000
      7250      2388  TIP3      H1             25.6732390695      -13.1714563301      -10.1775532214  SOLV      2377            0.0000000000
      7251      2388  TIP3      H2             26.6504407280      -12.0936522556       -9.8066624224  SOLV      2377            0.0000000000
      7252      2389  TIP3      OH2            26.0660303775       -7.6519691508       -9.9964410969  SOLV      2378            0.0000000000
      7253      2389  TIP3      H1             25.5652271459       -7.4735242078       -9.1724293761  SOLV      2378            0.0000000000
      7254      2389  TIP3      H2             25.9100359552       -6.8208711720      -10.4996440164  SOLV      2378            0.0000000000
      7255      2390  TIP3      OH2            24.8920762495       -8.8077480251      -14.8445868317  SOLV      2379            0.0000000000
      7256      2390  TIP3      H1             23.9708317041       -9.1015873467      -14.6794851695  SOLV      2379            0.0000000000
      7257      2390  TIP3      H2             25.0528326830       -9.2057867206      -15.7307503872  SOLV      2379            0.0000000000
      7258      2391  TIP3      OH2            24.3329517216       -7.3688071734       -7.8634503533  SOLV      2380            0.0000000000
      7259      2391  TIP3      H1             24.4939422778       -6.7131234617       -7.1691477080  SOLV      2380            0.0000000000
      7260      2391  TIP3      H2             24.1812010869       -8.1841313436       -7.3460128262  SOLV      2380            0.0000000000
      7261      2392  TIP3      OH2            24.7178338230      -12.8019094035      -20.7235339327  SOLV      2381            0.0000000000
      7262      2392  TIP3      H1             24.6621850556      -12.7088296214      -19.7514405697  SOLV      2381            0.0000000000
      7263      2392  TIP3      H2             24.0646988168      -12.1531619632      -21.0194744632  SOLV      2381            0.0000000000
      7264      2393  TIP3      OH2            20.2287283552      -12.1958005968      -12.0462607419  SOLV      2382            0.0000000000
      7265      2393  TIP3      H1             20.9300555568      -11.8115769174      -11.4800622580  SOLV      2382            0.0000000000
      7266      2393  TIP3      H2             20.6970809654      -12.4233049457      -12.8582162929  SOLV      2382            0.0000000000
      7267      2394  TIP3      OH2            19.8112959998      -12.3638620868      -16.8800885141  SOLV      2383            0.0000000000
      7268      2394  TIP3      H1             20.2751449525      -11.9820077986      -17.6572323639  SOLV      2383            0.0000000000
      7269      2394  TIP3      H2             19.2162752065      -11.6204684630      -16.6680566841  SOLV      2383            0.0000000000
      7270      2395  TIP3      OH2            28.0470750874      -10.7003386818      -13.9606178172  SOLV      2384            0.0000000000
      7271      2395  TIP3      H1             27.1124835138      -10.7362788869      -13.6945464708  SOLV      2384            0.0000000000
      7272      2395  TIP3      H2             28.4636752548      -10.7305252434      -13.0789052283  SOLV      2384            0.0000000000
      7273      2396  TIP3      OH2            22.5343134121      -10.0144213336      -14.1574358143  SOLV      2385            0.0000000000
      7274      2396  TIP3      H1             21.5917065664       -9.9398367832      -14.4383417712  SOLV      2385            0.0000000000
      7275      2396  TIP3      H2             22.7694663671      -10.9286578659      -14.4051934999  SOLV      2385            0.0000000000
      7276      2397  TIP3      OH2            25.2207372685       -9.9240147635      -17.3092605054  SOLV      2386            0.0000000000
      7277      2397  TIP3      H1             26.0204604593       -9.5855456727      -17.7248614147  SOLV      2386            0.0000000000
      7278      2397  TIP3      H2             24.5646566321       -9.8230074597      -18.0363180890  SOLV      2386            0.0000000000
      7279      2398  TIP3      OH2            23.6069034627       -9.7536136742      -19.4582953818  SOLV      2387            0.0000000000
      7280      2398  TIP3      H1             22.9461033268      -10.2284081256      -19.9982409237  SOLV      2387            0.0000000000
      7281      2398  TIP3      H2             24.1418242904       -9.3413109697      -20.1670867677  SOLV      2387            0.0000000000
      7282      2399  TIP3      OH2            24.4130607957       -1.8489952666       -5.7953062302  SOLV      2388            0.0000000000
      7283      2399  TIP3      H1             25.1993707142       -1.5164831959       -5.3212902764  SOLV      2388            0.0000000000
      7284      2399  TIP3      H2             23.7494046159       -1.8161295196       -5.0782703016  SOLV      2388            0.0000000000
      7285      2400  TIP3      OH2            28.5812077909       -7.5808435487      -13.1321441232  SOLV      2389            0.0000000000
      7286      2400  TIP3      H1             29.0097522019       -7.8112054201      -13.9737488365  SOLV      2389            0.0000000000
      7287      2400  TIP3      H2             29.2633603107       -7.8373580078      -12.4870733499  SOLV      2389            0.0000000000
      7288      2401  TIP3      OH2            24.1729670883      -12.4367682905      -14.4378504154  SOLV      2390            0.0000000000
      7289      2401  TIP3      H1             23.8145517920      -13.2068256253      -13.9461488984  SOLV      2390            0.0000000000
      7290      2401  TIP3      H2             24.8940527229      -12.8508617949      -14.9345789619  SOLV      2390            0.0000000000
      7291      2402  TIP3      OH2            28.7480578092       -8.2967822196       -9.9801489877  SOLV      2391            0.0000000000
      7292      2402  TIP3      H1             27.8061052190       -8.1588742040      -10.2125321424  SOLV      2391            0.0000000000
      7293      2402  TIP3      H2             29.0428423167       -7.3897430302       -9.8635649200  SOLV      2391            0.0000000000
      7294      2403  TIP3      OH2            26.0568284371       -4.3007562652      -19.3863118019  SOLV      2392            0.0000000000
      7295      2403  TIP3      H1             25.3866916855       -5.0069713038      -19.5081524728  SOLV      2392            0.0000000000
      7296      2403  TIP3      H2             25.8859186683       -4.0319298328      -18.4503211834  SOLV      2392            0.0000000000
      7297      2404  TIP3      OH2            30.3121918944       -1.3696243783       -9.2013395450  SOLV      2393            0.0000000000
      7298      2404  TIP3      H1             30.0839393514       -1.2508678375       -8.2756514157  SOLV      2393            0.0000000000
      7299      2404  TIP3      H2             29.9788823592       -0.5575730567       -9.6041293809  SOLV      2393            0.0000000000
      7300      2405  TIP3      OH2            23.0878695041       -4.1878615371      -12.6482745404  SOLV      2394            0.0000000000
      7301      2405  TIP3      H1             23.4586902220       -4.4465782762      -13.5169760655  SOLV      2394            0.0000000000
      7302      2405  TIP3      H2             23.5855518649       -4.7571891874      -12.0423582074  SOLV      2394            0.0000000000
      7303      2406  TIP3      OH2            27.4446241343       -2.8391940307      -21.1701026527  SOLV      2395            0.0000000000
      7304      2406  TIP3      H1             27.0601096666       -1.9337507282      -21.0974797390  SOLV      2395            0.0000000000
      7305      2406  TIP3      H2             26.8661942341       -3.3405606550      -20.5510113793  SOLV      2395            0.0000000000
      7306      2407  TIP3      OH2            21.9423098651       -5.0334831410       -6.5058795849  SOLV      2396            0.0000000000
      7307      2407  TIP3      H1             22.0674413084       -5.1690940261       -5.5469810256  SOLV      2396            0.0000000000
      7308      2407  TIP3      H2             21.2096369602       -5.6470953346       -6.6915442801  SOLV      2396            0.0000000000
      7309      2408  TIP3      OH2            29.0776908350       -3.9853279288       -6.2873348111  SOLV      2397            0.0000000000
      7310      2408  TIP3      H1             28.3321528065       -4.4854229248       -6.6663560312  SOLV      2397            0.0000000000
      7311      2408  TIP3      H2             29.7727818399       -4.6672755234       -6.3225866511  SOLV      2397            0.0000000000
      7312      2409  TIP3      OH2            31.5442519113        1.3806410696      -10.5376568112  SOLV      2398            0.0000000000
      7313      2409  TIP3      H1             30.6148555904        1.4686841777      -10.2467512380  SOLV      2398            0.0000000000
      7314      2409  TIP3      H2             32.0067474194        1.8954713216       -9.8578932293  SOLV      2398            0.0000000000
      7315      2410  TIP3      OH2            24.1098632161       -1.0999088206      -16.3825789084  SOLV      2399            0.0000000000
      7316      2410  TIP3      H1             24.0505348990       -0.2859709523      -16.9212848289  SOLV      2399            0.0000000000
      7317      2410  TIP3      H2             23.1793286013       -1.2720871611      -16.2060184758  SOLV      2399            0.0000000000
      7318      2411  TIP3      OH2            19.7585929163       -8.1033541689      -19.3006038124  SOLV      2400            0.0000000000
      7319      2411  TIP3      H1             20.2071055712       -7.2577188746      -19.0846706197  SOLV      2400            0.0000000000
      7320      2411  TIP3      H2             18.9831069258       -8.0547418333      -18.6984932277  SOLV      2400            0.0000000000
      7321      2412  TIP3      OH2            25.3975021557       -3.4699770444      -16.9175860225  SOLV      2401            0.0000000000
      7322      2412  TIP3      H1             25.0435227373       -2.5744506742      -16.7398038829  SOLV      2401            0.0000000000
      7323      2412  TIP3      H2             25.0218890467       -3.9766153001      -16.1736567441  SOLV      2401            0.0000000000
      7324      2413  TIP3      OH2            26.8262866875        2.2716115818      -11.7154880252  SOLV      2402            0.0000000000
      7325      2413  TIP3      H1             27.2352074296        2.9994738593      -12.2259699841  SOLV      2402            0.0000000000
      7326      2413  TIP3      H2             27.5942592493        1.9227116494      -11.2343437467  SOLV      2402            0.0000000000
      7327      2414  TIP3      OH2            23.3037653937        1.2444005877      -17.8225476968  SOLV      2403            0.0000000000
      7328      2414  TIP3      H1             22.4380686427        1.3620781882      -17.3837015970  SOLV      2403            0.0000000000
      7329      2414  TIP3      H2             23.6460987620        2.1690759151      -17.7963372157  SOLV      2403            0.0000000000
      7330      2415  TIP3      OH2            23.9383737327       -9.8916590068       -6.4058523818  SOLV      2404            0.0000000000
      7331      2415  TIP3      H1             22.9688828556       -9.8808634102       -6.2940725853  SOLV      2404            0.0000000000
      7332      2415  TIP3      H2             24.2171913721      -10.4703432691       -5.6780550889  SOLV      2404            0.0000000000
      7333      2416  TIP3      OH2            21.1904329680        0.9209013480      -10.1308287465  SOLV      2405            0.0000000000
      7334      2416  TIP3      H1             21.7421823720        0.2490485366       -9.7001086117  SOLV      2405            0.0000000000
      7335      2416  TIP3      H2             21.3981210975        1.7074279021       -9.6098158966  SOLV      2405            0.0000000000
      7336      2417  TIP3      OH2            24.0009210222       -2.5764237172      -23.2570782601  SOLV      2406            0.0000000000
      7337      2417  TIP3      H1             24.3258904001       -3.4577969381      -23.5072631774  SOLV      2406            0.0000000000
      7338      2417  TIP3      H2             23.7842888225       -2.7066211995      -22.3119578647  SOLV      2406            0.0000000000
      7339      2418  TIP3      OH2            23.4991404571       -2.5870915695      -20.5332437694  SOLV      2407            0.0000000000
      7340      2418  TIP3      H1             24.2347544779       -2.8481125773      -19.9634448550  SOLV      2407            0.0000000000
      7341      2418  TIP3      H2             23.5086402578       -1.6061065986      -20.4389416292  SOLV      2407            0.0000000000
      7342      2419  TIP3      OH2            20.8278381668       -5.6668532489      -18.4872778564  SOLV      2408            0.0000000000
      7343      2419  TIP3      H1             20.1625025667       -5.2052115241      -17.9320026069  SOLV      2408            0.0000000000
      7344      2419  TIP3      H2             20.9692343428       -4.9879313136      -19.1759885171  SOLV      2408            0.0000000000
      7345      2420  TIP3      OH2            26.1744953751       -0.4541049019      -20.9527406696  SOLV      2409            0.0000000000
      7346      2420  TIP3      H1             25.2588820924       -0.2635795286      -20.6654819457  SOLV      2409            0.0000000000
      7347      2420  TIP3      H2             26.3113078839        0.2741686628      -21.5788869556  SOLV      2409            0.0000000000
      7348      2421  TIP3      OH2            23.5710338984        0.1299620690      -20.3412758675  SOLV      2410            0.0000000000
      7349      2421  TIP3      H1             23.3023405622        0.8289519385      -20.9828725229  SOLV      2410            0.0000000000
      7350      2421  TIP3      H2             23.4291050235        0.5906304916      -19.4853606620  SOLV      2410            0.0000000000
      7351      2422  TIP3      OH2            24.5623922460      -12.7123693819      -17.9562196485  SOLV      2411            0.0000000000
      7352      2422  TIP3      H1             24.5165648379      -11.8215245188      -17.5699211925  SOLV      2411            0.0000000000
      7353      2422  TIP3      H2             25.5022423602      -12.9206646425      -17.7432342230  SOLV      2411            0.0000000000
      7354      2423  TIP3      OH2            20.8198304244       -3.6311742727      -20.4599600732  SOLV      2412            0.0000000000
      7355      2423  TIP3      H1             21.5107598484       -2.9477408123      -20.3789990303  SOLV      2412            0.0000000000
      7356      2423  TIP3      H2             21.2533387651       -4.2050181609      -21.1292813953  SOLV      2412            0.0000000000
      7357      2424  TIP3      OH2            20.2188992352      -10.8197723471      -19.1091643779  SOLV      2413            0.0000000000
      7358      2424  TIP3      H1             20.2598069291       -9.8413745668      -19.1199283206  SOLV      2413            0.0000000000
      7359      2424  TIP3      H2             19.4093860642      -10.9860315832      -19.5965953462  SOLV      2413            0.0000000000
      7360      2425  TIP3      OH2            23.9466705614      -13.6009140098      -10.3948352086  SOLV      2414            0.0000000000
      7361      2425  TIP3      H1             23.7183896253      -13.9370766283      -11.2865689060  SOLV      2414            0.0000000000
      7362      2425  TIP3      H2             23.8969234003      -14.4109163292       -9.8480927954  SOLV      2414            0.0000000000
      7363      2426  TIP3      OH2            19.4373609095       -1.4711005509      -16.6185459143  SOLV      2415            0.0000000000
      7364      2426  TIP3      H1             18.8520045091       -1.1345742022      -15.9298830260  SOLV      2415            0.0000000000
      7365      2426  TIP3      H2             19.1108598360       -0.9927615858      -17.4113339546  SOLV      2415            0.0000000000
      7366      2427  TIP3      OH2            21.1115135423        4.0481754361       -5.9170126625  SOLV      2416            0.0000000000
      7367      2427  TIP3      H1             21.9633213038        4.0762639357       -5.4271209228  SOLV      2416            0.0000000000
      7368      2427  TIP3      H2             20.8984236703        3.1023926011       -5.8821267564  SOLV      2416            0.0000000000
      7369      2428  TIP3      OH2            25.8747593626        3.5304956211       -5.3872033610  SOLV      2417            0.0000000000
      7370      2428  TIP3      H1             26.8276710267        3.3589653814       -5.3903712267  SOLV      2417            0.0000000000
      7371      2428  TIP3      H2             25.5891199904        2.9520594304       -6.1233491569  SOLV      2417            0.0000000000
      7372      2429  TIP3      OH2            25.6247230215       -0.5043929798      -24.0943758279  SOLV      2418            0.0000000000
      7373      2429  TIP3      H1             25.1706831902       -1.2979117782      -23.7295594092  SOLV      2418            0.0000000000
      7374      2429  TIP3      H2             26.4071536927       -0.9020449035      -24.5343288376  SOLV      2418            0.0000000000
      7375      2430  TIP3      OH2            32.0894896314        2.8049243450       -7.9154651069  SOLV      2419            0.0000000000
      7376      2430  TIP3      H1             31.9079482157        2.0596785066       -7.2993833058  SOLV      2419            0.0000000000
      7377      2430  TIP3      H2             32.9794567261        2.5956688677       -8.2331208247  SOLV      2419            0.0000000000
      7378      2431  TIP3      OH2            22.3906145490       -1.9106753026       -3.8725045350  SOLV      2420            0.0000000000
      7379      2431  TIP3      H1             22.5405257890       -2.8726323619       -3.8233491340  SOLV      2420            0.0000000000
      7380      2431  TIP3      H2             21.5166659352       -1.8705052413       -4.3205601161  SOLV      2420            0.0000000000
      7381      2432  TIP3      OH2            22.2117843818       -5.4806242723      -21.9138454666  SOLV      2421            0.0000000000
      7382      2432  TIP3      H1             22.7921765832       -5.7315698208      -21.1714254105  SOLV      2421            0.0000000000
      7383      2432  TIP3      H2             22.8773010277       -5.4291210360      -22.6360909916  SOLV      2421            0.0000000000
      7384      2433  TIP3      OH2            28.4878774528       -1.1269372477       -6.1655981153  SOLV      2422            0.0000000000
      7385      2433  TIP3      H1             27.9916241993       -0.8547449084       -6.9655616630  SOLV      2422            0.0000000000
      7386      2433  TIP3      H2             28.7066029438       -2.0644761142       -6.3371461223  SOLV      2422            0.0000000000
      7387      2434  TIP3      OH2            26.9555681533       -3.5045406257      -23.8268188902  SOLV      2423            0.0000000000
      7388      2434  TIP3      H1             27.0483995353       -3.2751294206      -22.8786216925  SOLV      2423            0.0000000000
      7389      2434  TIP3      H2             27.6786278716       -4.1486206863      -23.9296426322  SOLV      2423            0.0000000000
      7390      2435  TIP3      OH2            23.5824468506       -4.5558329498       -4.0043738293  SOLV      2424            0.0000000000
      7391      2435  TIP3      H1             24.3729601680       -5.0029793749       -4.3253943222  SOLV      2424            0.0000000000
      7392      2435  TIP3      H2             23.8786362055       -4.2326561146       -3.1274408361  SOLV      2424            0.0000000000
      7393      2436  TIP3      OH2            24.1711294898       -6.3223736510      -19.7451867305  SOLV      2425            0.0000000000
      7394      2436  TIP3      H1             23.9315159823       -6.6764088496      -18.8710645266  SOLV      2425            0.0000000000
      7395      2436  TIP3      H2             24.5384315902       -7.1076006370      -20.1989504630  SOLV      2425            0.0000000000
      7396      2437  TIP3      OH2            27.0160748917       -5.6231625314       -7.3956637529  SOLV      2426            0.0000000000
      7397      2437  TIP3      H1             26.1753418972       -5.1148483696       -7.3989398708  SOLV      2426            0.0000000000
      7398      2437  TIP3      H2             27.4122281971       -5.3890413311       -8.2628778633  SOLV      2426            0.0000000000
      7399      2438  TIP3      OH2            25.1738268007       -8.4528520172      -21.2841934802  SOLV      2427            0.0000000000
      7400      2438  TIP3      H1             24.8788377125       -8.4793181560      -22.2189569810  SOLV      2427            0.0000000000
      7401      2438  TIP3      H2             26.1308468081       -8.4209473389      -21.3996639406  SOLV      2427            0.0000000000
      7402      2439  TIP3      OH2            28.0206221393       -7.8360403666       -6.1404295784  SOLV      2428            0.0000000000
      7403      2439  TIP3      H1             28.0716933828       -8.6387966993       -6.7023246126  SOLV      2428            0.0000000000
      7404      2439  TIP3      H2             27.6214607207       -7.1789868670       -6.7520233545  SOLV      2428            0.0000000000
      7405      2440  TIP3      OH2            28.1020468279       -9.9860165861       -7.9235697649  SOLV      2429            0.0000000000
      7406      2440  TIP3      H1             28.3948291552       -9.5131493000       -8.7336874369  SOLV      2429            0.0000000000
      7407      2440  TIP3      H2             27.1849990845      -10.2396142128       -8.1705464967  SOLV      2429            0.0000000000
      7408      2441  TIP3      OH2            28.4168624836       -4.8613113849       -9.5904189343  SOLV      2430            0.0000000000
      7409      2441  TIP3      H1             29.0727827552       -4.8111676968      -10.2934858925  SOLV      2430            0.0000000000
      7410      2441  TIP3      H2             27.8527563874       -4.0891740183       -9.8160559650  SOLV      2430            0.0000000000
      7411      2442  TIP3      OH2            26.9849091260       -6.8087443703       -3.8114115722  SOLV      2431            0.0000000000
      7412      2442  TIP3      H1             26.2952175987       -7.4808016817       -3.6343345996  SOLV      2431            0.0000000000
      7413      2442  TIP3      H2             27.2866206907       -7.0857426564       -4.7010599607  SOLV      2431            0.0000000000
      7414      2443  TIP3      OH2            29.2986883337      -12.4124017518       -7.3615193524  SOLV      2432            0.0000000000
      7415      2443  TIP3      H1             28.9112527628      -11.5142462321       -7.4291409742  SOLV      2432            0.0000000000
      7416      2443  TIP3      H2             28.5180319360      -12.9612878772       -7.1880163229  SOLV      2432            0.0000000000
      7417      2444  TIP3      OH2            30.3938815178       -6.4493467415       -5.6617172870  SOLV      2433            0.0000000000
      7418      2444  TIP3      H1             30.9882312292       -7.0307490957       -5.1684008663  SOLV      2433            0.0000000000
      7419      2444  TIP3      H2             29.5715644758       -6.9848801728       -5.6744862949  SOLV      2433            0.0000000000
      7420      2445  TIP3      OH2            25.3339198736       -8.9869060375       -3.2658417705  SOLV      2434            0.0000000000
      7421      2445  TIP3      H1             25.3820500398       -9.8916471046       -3.6269159053  SOLV      2434            0.0000000000
      7422      2445  TIP3      H2             25.7156450970       -9.1261770777       -2.3733244540  SOLV      2434            0.0000000000
      7423      2446  TIP3      OH2            30.6967489095      -10.4840973940       -3.7588876442  SOLV      2435            0.0000000000
      7424      2446  TIP3      H1             30.1553593770      -11.1040636601       -4.2526075995  SOLV      2435            0.0000000000
      7425      2446  TIP3      H2             30.0477221153       -9.8217145720       -3.4288696604  SOLV      2435            0.0000000000
      7426      2447  TIP3      OH2            23.3478379262        2.0935193882      -22.2496548623  SOLV      2436            0.0000000000
      7427      2447  TIP3      H1             24.3042189606        2.1039902870      -22.4350711947  SOLV      2436            0.0000000000
      7428      2447  TIP3      H2             23.0344210239        2.6581276522      -22.9798847881  SOLV      2436            0.0000000000
      7429      2448  TIP3      OH2            18.1272453781       -4.0029447118      -20.1273672958  SOLV      2437            0.0000000000
      7430      2448  TIP3      H1             19.0795461253       -3.7934941899      -20.2522777900  SOLV      2437            0.0000000000
      7431      2448  TIP3      H2             18.0707908338       -4.8857181713      -20.5516648715  SOLV      2437            0.0000000000
      7432      2449  TIP3      OH2            17.3069109855        2.0859339458      -15.9066372016  SOLV      2438            0.0000000000
      7433      2449  TIP3      H1             16.6423628070        1.4850546941      -16.3082633210  SOLV      2438            0.0000000000
      7434      2449  TIP3      H2             17.7480761595        1.4763050274      -15.2778754169  SOLV      2438            0.0000000000
      7435      2450  TIP3      OH2            18.6580882528        0.5131585578      -14.0816611730  SOLV      2439            0.0000000000
      7436      2450  TIP3      H1             18.5224073134       -0.1481894341      -13.3832324731  SOLV      2439            0.0000000000
      7437      2450  TIP3      H2             19.1695311896        1.1794610561      -13.5851577142  SOLV      2439            0.0000000000
      7438      2451  TIP3      OH2            20.4764038225       -5.3383211568      -10.3396654673  SOLV      2440            0.0000000000
      7439      2451  TIP3      H1             20.4367678507       -5.6746474731      -11.2596827298  SOLV      2440            0.0000000000
      7440      2451  TIP3      H2             21.4529221138       -5.3144868642      -10.1993865981  SOLV      2440            0.0000000000
      7441      2452  TIP3      OH2            22.6643962667       -8.4792214555       -3.6470965909  SOLV      2441            0.0000000000
      7442      2452  TIP3      H1             23.6428662027       -8.5159099352       -3.5771636573  SOLV      2441            0.0000000000
      7443      2452  TIP3      H2             22.4308184894       -9.3402087110       -3.2470487725  SOLV      2441            0.0000000000
      7444      2453  TIP3      OH2            22.2248057320      -11.4629508959      -10.2809651862  SOLV      2442            0.0000000000
      7445      2453  TIP3      H1             22.8241021278      -12.2365381156      -10.2215392038  SOLV      2442            0.0000000000
      7446      2453  TIP3      H2             22.8711689141      -10.7403342670      -10.3723157428  SOLV      2442            0.0000000000
      7447      2454  TIP3      OH2            20.2645799152       -8.7984200028       -9.6086704470  SOLV      2443            0.0000000000
      7448      2454  TIP3      H1             20.7788624437       -8.8385064540      -10.4385513503  SOLV      2443            0.0000000000
      7449      2454  TIP3      H2             20.5375835688       -7.9460290609       -9.2545064959  SOLV      2443            0.0000000000
      7450      2455  TIP3      OH2            20.1486377508      -13.8311494703      -14.6243465072  SOLV      2444            0.0000000000
      7451      2455  TIP3      H1             19.2355055919      -13.8313739585      -14.2920915898  SOLV      2444            0.0000000000
      7452      2455  TIP3      H2             20.0874497796      -13.2119185649      -15.3813995534  SOLV      2444            0.0000000000
      7453      2456  TIP3      OH2            22.3583789665      -12.9732882654       -6.4409741871  SOLV      2445            0.0000000000
      7454      2456  TIP3      H1             21.8452320838      -12.9940734303       -5.6181730950  SOLV      2445            0.0000000000
      7455      2456  TIP3      H2             21.7088230749      -12.5758573458       -7.0543667446  SOLV      2445            0.0000000000
      7456      2457  TIP3      OH2            22.7592320099        1.2618184646       -5.7097685329  SOLV      2446            0.0000000000
      7457      2457  TIP3      H1             21.8054824891        1.1054005802       -5.8519162890  SOLV      2446            0.0000000000
      7458      2457  TIP3      H2             22.8251243736        1.2125988142       -4.7497780162  SOLV      2446            0.0000000000
      7459      2458  TIP3      OH2            24.5844401838        1.6902271482      -10.1924545106  SOLV      2447            0.0000000000
      7460      2458  TIP3      H1             24.0776044227        2.4421149382      -10.5642571506  SOLV      2447            0.0000000000
      7461      2458  TIP3      H2             25.4265925778        1.8431279112      -10.6702148403  SOLV      2447            0.0000000000
      7462      2459  TIP3      OH2            28.8881178541        4.0708657812       -8.8046779550  SOLV      2448            0.0000000000
      7463      2459  TIP3      H1             29.2767618712        4.1101416317       -7.9054960015  SOLV      2448            0.0000000000
      7464      2459  TIP3      H2             29.5414117465        4.6052528231       -9.3068077735  SOLV      2448            0.0000000000
      7465      2460  TIP3      OH2            30.6673424365        5.6739216524      -10.1568463212  SOLV      2449            0.0000000000
      7466      2460  TIP3      H1             31.3210355966        5.3223334532      -10.7719875430  SOLV      2449            0.0000000000
      7467      2460  TIP3      H2             31.2323020646        6.2131534269       -9.5611084896  SOLV      2449            0.0000000000
      7468      2461  TIP3      OH2            21.3005465796        4.2016458482       -9.8954589151  SOLV      2450            0.0000000000
      7469      2461  TIP3      H1             20.3877376325        4.4891345410      -10.1330923012  SOLV      2450            0.0000000000
      7470      2461  TIP3      H2             21.4661779696        4.7760660041       -9.1389280991  SOLV      2450            0.0000000000
      7471      2462  TIP3      OH2            23.6401954561        4.0079110443      -11.3553861682  SOLV      2451            0.0000000000
      7472      2462  TIP3      H1             22.7711727601        4.1248103074      -10.9103959531  SOLV      2451            0.0000000000
      7473      2462  TIP3      H2             23.4442655550        4.3481265884      -12.2513607611  SOLV      2451            0.0000000000
      7474      2463  TIP3      OH2            27.9048297589        4.2626018668      -13.4334174936  SOLV      2452            0.0000000000
      7475      2463  TIP3      H1             27.1459168042        4.4447072312      -14.0234515516  SOLV      2452            0.0000000000
      7476      2463  TIP3      H2             28.0200683713        5.1361486344      -13.0002075518  SOLV      2452            0.0000000000
      7477      2464  TIP3      OH2            30.6255109523        3.8828903072      -13.0551374491  SOLV      2453            0.0000000000
      7478      2464  TIP3      H1             29.6533564144        3.9183706841      -13.1633348201  SOLV      2453            0.0000000000
      7479      2464  TIP3      H2             30.8782270989        4.7625110208      -13.3602364920  SOLV      2453            0.0000000000
      7480      2465  TIP3      OH2            20.3970866480        2.1435434704      -12.5446439986  SOLV      2454            0.0000000000
      7481      2465  TIP3      H1             20.6525741407        1.8502919275      -11.6432601676  SOLV      2454            0.0000000000
      7482      2465  TIP3      H2             21.1390023466        1.7454185082      -13.0528903390  SOLV      2454            0.0000000000
      7483      2466  TIP3      OH2            22.3723852050        0.8936238283      -13.9222449146  SOLV      2455            0.0000000000
      7484      2466  TIP3      H1             22.5109975372        0.0529081168      -13.4262519250  SOLV      2455            0.0000000000
      7485      2466  TIP3      H2             23.2851689931        1.2543339048      -13.9338462227  SOLV      2455            0.0000000000
      7486      2467  TIP3      OH2            25.0326205019        1.7667509269      -13.8430989173  SOLV      2456            0.0000000000
      7487      2467  TIP3      H1             25.3096608419        0.8303895035      -13.8928060407  SOLV      2456            0.0000000000
      7488      2467  TIP3      H2             25.5261349087        2.0387720030      -13.0464448363  SOLV      2456            0.0000000000
      7489      2468  TIP3      OH2            23.1917555751      -14.5293266890      -12.9107508115  SOLV      2457            0.0000000000
      7490      2468  TIP3      H1             22.2655809232      -14.8463734860      -12.8891782898  SOLV      2457            0.0000000000
      7491      2468  TIP3      H2             23.6652352694      -15.3883063335      -12.9166411362  SOLV      2457            0.0000000000
      7492      2469  TIP3      OH2            21.1736481654      -15.8289556494      -16.3795570875  SOLV      2458            0.0000000000
      7493      2469  TIP3      H1             21.4463043219      -15.2508712186      -17.1154852431  SOLV      2458            0.0000000000
      7494      2469  TIP3      H2             20.8658696298      -15.1735726456      -15.7197380781  SOLV      2458            0.0000000000
      7495      2470  TIP3      OH2            27.0199948142      -14.0603958688      -14.0519031835  SOLV      2459            0.0000000000
      7496      2470  TIP3      H1             27.8612577683      -13.9808876616      -14.5427812324  SOLV      2459            0.0000000000
      7497      2470  TIP3      H2             27.2585548774      -13.7045804355      -13.1922477686  SOLV      2459            0.0000000000
      7498      2471  TIP3      OH2            18.2679370334       -0.0579723077      -18.6229262538  SOLV      2460            0.0000000000
      7499      2471  TIP3      H1             17.4080569071       -0.3747914844      -18.9594130999  SOLV      2460            0.0000000000
      7500      2471  TIP3      H2             18.2067493288        0.8760171353      -18.8961131649  SOLV      2460            0.0000000000
      7501      2472  TIP3      OH2            22.3155669857      -14.2779141813      -18.7644284237  SOLV      2461            0.0000000000
      7502      2472  TIP3      H1             22.8094314777      -14.8748850556      -19.3576386692  SOLV      2461            0.0000000000
      7503      2472  TIP3      H2             23.0382497065      -13.7200355052      -18.4076307131  SOLV      2461            0.0000000000
      7504      2473  TIP3      OH2            27.2540682598      -12.7255803850      -17.4100703494  SOLV      2462            0.0000000000
      7505      2473  TIP3      H1             27.9720169033      -13.2631900310      -17.0429358191  SOLV      2462            0.0000000000
      7506      2473  TIP3      H2             27.7271932190      -12.1136243665      -17.9682624537  SOLV      2462            0.0000000000
      7507      2474  TIP3      OH2            26.0459265543        1.7830056545      -22.7600688930  SOLV      2463            0.0000000000
      7508      2474  TIP3      H1             26.9423446630        1.9250918499      -23.1174886824  SOLV      2463            0.0000000000
      7509      2474  TIP3      H2             25.7743271742        1.0214107323      -23.3265458019  SOLV      2463            0.0000000000
      7510      2475  TIP3      OH2            25.2844295610      -11.7427823020       -3.9857537059  SOLV      2464            0.0000000000
      7511      2475  TIP3      H1             24.9390159720      -12.4633134484       -3.4298946115  SOLV      2464            0.0000000000
      7512      2475  TIP3      H2             26.2269329447      -11.7465576529       -3.7128704335  SOLV      2464            0.0000000000
      7513      2476  TIP3      OH2            27.7464071565      -11.8095030198       -2.7313807319  SOLV      2465            0.0000000000
      7514      2476  TIP3      H1             28.6051332395      -12.1650702830       -2.9998412035  SOLV      2465            0.0000000000
      7515      2476  TIP3      H2             27.4984196289      -12.4363477761       -2.0191673004  SOLV      2465            0.0000000000
      7516      2477  TIP3      OH2            19.0328142352        0.0681024864      -22.2543225302  SOLV      2466            0.0000000000
      7517      2477  TIP3      H1             19.0997945045        0.3132959426      -21.3220732104  SOLV      2466            0.0000000000
      7518      2477  TIP3      H2             19.9109652457       -0.3511492382      -22.4194644513  SOLV      2466            0.0000000000
      7519      2478  TIP3      OH2           -27.3360273310        6.0040059530       -5.4386263722  SOLV      2467            0.0000000000
      7520      2478  TIP3      H1            -27.6474800744        6.9007377693       -5.6856546669  SOLV      2467            0.0000000000
      7521      2478  TIP3      H2            -28.0766922933        5.4711509268       -5.7768496456  SOLV      2467            0.0000000000
      7522      2479  TIP3      OH2           -27.3457173893        6.0077996180       -1.5420295617  SOLV      2468            0.0000000000
      7523      2479  TIP3      H1            -26.9580331138        5.7567064816       -0.6822343164  SOLV      2468            0.0000000000
      7524      2479  TIP3      H2            -27.7148688640        5.1636592804       -1.8457751295  SOLV      2468            0.0000000000
      7525      2480  TIP3      OH2           -24.8852106805        9.0489135422       -4.7542754341  SOLV      2469            0.0000000000
      7526      2480  TIP3      H1            -25.0424854887        8.3879191082       -4.0667032349  SOLV      2469            0.0000000000
      7527      2480  TIP3      H2            -24.5782644231        9.8144910133       -4.2393591304  SOLV      2469            0.0000000000
      7528      2481  TIP3      OH2           -28.4561186288       13.6111943657       -4.6374418032  SOLV      2470            0.0000000000
      7529      2481  TIP3      H1            -27.9783151893       12.9116972762       -5.1340281631  SOLV      2470            0.0000000000
      7530      2481  TIP3      H2            -28.5257158410       13.2203219284       -3.7612926593  SOLV      2470            0.0000000000
      7531      2482  TIP3      OH2           -29.3200487046        8.1644783044       -1.0518539419  SOLV      2471            0.0000000000
      7532      2482  TIP3      H1            -28.8801757783        7.4560077184       -1.5528746704  SOLV      2471            0.0000000000
      7533      2482  TIP3      H2            -28.5237726021        8.6889790401       -0.8159864437  SOLV      2471            0.0000000000
      7534      2483  TIP3      OH2           -19.2247645674        1.4265926408       -1.1744050281  SOLV      2472            0.0000000000
      7535      2483  TIP3      H1            -18.9330029200        2.2655046318       -0.7667672170  SOLV      2472            0.0000000000
      7536      2483  TIP3      H2            -18.9063022123        1.5398775275       -2.0895945542  SOLV      2472            0.0000000000
      7537      2484  TIP3      OH2           -25.2392438264        3.2385506462       -0.8426295560  SOLV      2473            0.0000000000
      7538      2484  TIP3      H1            -24.7955213085        2.3917445720       -0.6428164053  SOLV      2473            0.0000000000
      7539      2484  TIP3      H2            -25.5740128818        3.0617915127       -1.7430418650  SOLV      2473            0.0000000000
      7540      2485  TIP3      OH2           -31.7394397985       -0.1484525160       -1.2236377088  SOLV      2474            0.0000000000
      7541      2485  TIP3      H1            -31.9343407451        0.5835742709       -1.8447537840  SOLV      2474            0.0000000000
      7542      2485  TIP3      H2            -32.1549220589       -0.8940927500       -1.7030140289  SOLV      2474            0.0000000000
      7543      2486  TIP3      OH2           -24.8987261493        0.7822583542       -4.9785556409  SOLV      2475            0.0000000000
      7544      2486  TIP3      H1            -24.1846294653        0.6648973092       -4.3078901897  SOLV      2475            0.0000000000
      7545      2486  TIP3      H2            -24.3736859731        1.1271127002       -5.7236619673  SOLV      2475            0.0000000000
      7546      2487  TIP3      OH2           -31.0344393558        3.8646919017       -2.0998398371  SOLV      2476            0.0000000000
      7547      2487  TIP3      H1            -30.0938074458        3.6131257307       -1.9703430515  SOLV      2476            0.0000000000
      7548      2487  TIP3      H2            -31.4060949896        3.0235233404       -2.4472463996  SOLV      2476            0.0000000000
      7549      2488  TIP3      OH2           -18.5251043912        3.4980956753        0.6206851964  SOLV      2477            0.0000000000
      7550      2488  TIP3      H1            -19.3559672823        3.9903737202        0.4400268679  SOLV      2477            0.0000000000
      7551      2488  TIP3      H2            -18.1564365333        4.0029551865        1.3609976824  SOLV      2477            0.0000000000
      7552      2489  TIP3      OH2           -31.7685072797       -0.3400594291        2.9408689736  SOLV      2478            0.0000000000
      7553      2489  TIP3      H1            -32.4844621988       -0.0994392642        2.3225313253  SOLV      2478            0.0000000000
      7554      2489  TIP3      H2            -32.2331943050       -0.2050904214        3.7995724321  SOLV      2478            0.0000000000
      7555      2490  TIP3      OH2           -28.4360972115        8.1385055566       -6.7976769361  SOLV      2479            0.0000000000
      7556      2490  TIP3      H1            -28.8419483756        8.0132097210       -7.6641945700  SOLV      2479            0.0000000000
      7557      2490  TIP3      H2            -28.8428647993        8.9925721250       -6.5335732766  SOLV      2479            0.0000000000
      7558      2491  TIP3      OH2           -30.8650482298        7.7445721746        1.1201333440  SOLV      2480            0.0000000000
      7559      2491  TIP3      H1            -31.0091097932        8.5941251033        1.5538581093  SOLV      2480            0.0000000000
      7560      2491  TIP3      H2            -30.3104775445        8.0200149469        0.3474924663  SOLV      2480            0.0000000000
      7561      2492  TIP3      OH2           -22.8924894310        0.8824590927       -3.1662018114  SOLV      2481            0.0000000000
      7562      2492  TIP3      H1            -22.9219369869        0.3704433521       -2.3500213650  SOLV      2481            0.0000000000
      7563      2492  TIP3      H2            -22.3419495529        1.6465554424       -2.9055325867  SOLV      2481            0.0000000000
      7564      2493  TIP3      OH2           -33.1262708794        0.9928626241        0.8581771258  SOLV      2482            0.0000000000
      7565      2493  TIP3      H1            -32.4507305305        1.6059025044        1.2101432414  SOLV      2482            0.0000000000
      7566      2493  TIP3      H2            -32.6045530983        0.4801923144        0.2059121147  SOLV      2482            0.0000000000
      7567      2494  TIP3      OH2           -24.2205561846       11.4726090960       -3.1553668581  SOLV      2483            0.0000000000
      7568      2494  TIP3      H1            -25.1150464932       11.3917884930       -2.7502316848  SOLV      2483            0.0000000000
      7569      2494  TIP3      H2            -24.2974074111       12.3384578097       -3.6035147036  SOLV      2483            0.0000000000
      7570      2495  TIP3      OH2           -21.2729259929        0.4281512152        0.4961297820  SOLV      2484            0.0000000000
      7571      2495  TIP3      H1            -22.1464215022        0.6921120754        0.1638642162  SOLV      2484            0.0000000000
      7572      2495  TIP3      H2            -20.6724312010        0.7463080073       -0.2103649436  SOLV      2484            0.0000000000
      7573      2496  TIP3      OH2           -28.3364128281       -3.2139594028        0.2992166932  SOLV      2485            0.0000000000
      7574      2496  TIP3      H1            -28.4826223498       -4.1518313045        0.5327859179  SOLV      2485            0.0000000000
      7575      2496  TIP3      H2            -29.1115934771       -2.8055508332        0.7506749537  SOLV      2485            0.0000000000
      7576      2497  TIP3      OH2           -27.2043349683       11.9187315793       -6.3741714289  SOLV      2486            0.0000000000
      7577      2497  TIP3      H1            -26.7034197396       11.0951676794       -6.5792903557  SOLV      2486            0.0000000000
      7578      2497  TIP3      H2            -26.6029563180       12.5745818726       -6.7932502826  SOLV      2486            0.0000000000
      7579      2498  TIP3      OH2           -25.8041285639        9.7462029224       -7.2668196896  SOLV      2487            0.0000000000
      7580      2498  TIP3      H1            -26.2007239651        8.9341117475       -7.6063266974  SOLV      2487            0.0000000000
      7581      2498  TIP3      H2            -25.3975380622        9.4321740507       -6.4291682163  SOLV      2487            0.0000000000
      7582      2499  TIP3      OH2           -21.9702622379       10.5475679508        0.3151957300  SOLV      2488            0.0000000000
      7583      2499  TIP3      H1            -22.0879486544        9.7889901462       -0.2974400411  SOLV      2488            0.0000000000
      7584      2499  TIP3      H2            -22.1564507527       11.3072728931       -0.2775735695  SOLV      2488            0.0000000000
      7585      2500  TIP3      OH2           -28.9933660897        4.4682865841       -7.0654804121  SOLV      2489            0.0000000000
      7586      2500  TIP3      H1            -29.7861596261        5.0124037568       -7.2575739934  SOLV      2489            0.0000000000
      7587      2500  TIP3      H2            -28.5421582613        4.4654963990       -7.9294495680  SOLV      2489            0.0000000000
      7588      2501  TIP3      OH2           -29.4689996351        2.4199441347      -10.0004214741  SOLV      2490            0.0000000000
      7589      2501  TIP3      H1            -28.7959338244        2.9109450365       -9.4952693510  SOLV      2490            0.0000000000
      7590      2501  TIP3      H2            -28.8993537848        1.7786447448      -10.4704521665  SOLV      2490            0.0000000000
      7591      2502  TIP3      OH2           -20.0269414400        6.9694955664       -1.1955784038  SOLV      2491            0.0000000000
      7592      2502  TIP3      H1            -20.8617051856        7.4862655754       -1.1839290903  SOLV      2491            0.0000000000
      7593      2502  TIP3      H2            -19.7107710159        7.1790633111       -2.1016107245  SOLV      2491            0.0000000000
      7594      2503  TIP3      OH2           -25.5721723817        5.3435370742       -7.4191722115  SOLV      2492            0.0000000000
      7595      2503  TIP3      H1            -26.1081329985        5.5979275195       -6.6315184136  SOLV      2492            0.0000000000
      7596      2503  TIP3      H2            -24.7277698160        5.0974655448       -6.9853297964  SOLV      2492            0.0000000000
      7597      2504  TIP3      OH2           -23.2450431442        5.6945469870        1.7977854884  SOLV      2493            0.0000000000
      7598      2504  TIP3      H1            -23.2645188689        6.5403355705        2.2836090216  SOLV      2493            0.0000000000
      7599      2504  TIP3      H2            -24.0923369047        5.7480813173        1.3117581785  SOLV      2493            0.0000000000
      7600      2505  TIP3      OH2           -33.0323238440        5.4457347532       -3.2684019081  SOLV      2494            0.0000000000
      7601      2505  TIP3      H1            -33.4818362328        5.0781254091       -4.0409629067  SOLV      2494            0.0000000000
      7602      2505  TIP3      H2            -32.2530176480        4.8686189621       -3.1466292576  SOLV      2494            0.0000000000
      7603      2506  TIP3      OH2           -31.7309592163        9.9502762632       -1.9673128762  SOLV      2495            0.0000000000
      7604      2506  TIP3      H1            -32.1265138490        9.0943850448       -2.1651706807  SOLV      2495            0.0000000000
      7605      2506  TIP3      H2            -30.8072100852        9.7280600946       -1.8070539586  SOLV      2495            0.0000000000
      7606      2507  TIP3      OH2           -31.3688806625        5.0127667212        0.4405970682  SOLV      2496            0.0000000000
      7607      2507  TIP3      H1            -31.0599407621        4.8394820002       -0.4701428284  SOLV      2496            0.0000000000
      7608      2507  TIP3      H2            -31.0095883104        5.8961296326        0.6431631822  SOLV      2496            0.0000000000
      7609      2508  TIP3      OH2           -26.6011581953       11.3954352241       -1.8868752423  SOLV      2497            0.0000000000
      7610      2508  TIP3      H1            -26.7772573365       12.1969367746       -1.3641185222  SOLV      2497            0.0000000000
      7611      2508  TIP3      H2            -26.8164758898       10.6744756297       -1.2637688495  SOLV      2497            0.0000000000
      7612      2509  TIP3      OH2           -27.1938278249        3.9338054535       -9.1318302071  SOLV      2498            0.0000000000
      7613      2509  TIP3      H1            -26.5884501358        4.5308179113       -8.6333753606  SOLV      2498            0.0000000000
      7614      2509  TIP3      H2            -26.9317573244        4.1396624052      -10.0613584563  SOLV      2498            0.0000000000
      7615      2510  TIP3      OH2           -29.6528578781       10.5940003489       -6.5230563425  SOLV      2499            0.0000000000
      7616      2510  TIP3      H1            -28.9072523316       11.1996926690       -6.3623856771  SOLV      2499            0.0000000000
      7617      2510  TIP3      H2            -30.4193457146       11.1811138760       -6.5029374823  SOLV      2499            0.0000000000
      7618      2511  TIP3      OH2           -22.0209896914       -3.6988597504       -8.6389981494  SOLV      2500            0.0000000000
      7619      2511  TIP3      H1            -22.8291025583       -3.4789799459       -8.1326809462  SOLV      2500            0.0000000000
      7620      2511  TIP3      H2            -21.8847603584       -2.8743916632       -9.1480278897  SOLV      2500            0.0000000000
      7621      2512  TIP3      OH2           -24.0033864778        9.9693932159      -13.1490002139  SOLV      2501            0.0000000000
      7622      2512  TIP3      H1            -23.9187319211       10.9379257874      -13.2960723967  SOLV      2501            0.0000000000
      7623      2512  TIP3      H2            -23.0692254193        9.6848148028      -13.2594871184  SOLV      2501            0.0000000000
      7624      2513  TIP3      OH2           -19.5959998906       14.0693338015        0.8227755571  SOLV      2502            0.0000000000
      7625      2513  TIP3      H1            -19.6039038377       13.1023173798        0.9556283075  SOLV      2502            0.0000000000
      7626      2513  TIP3      H2            -20.4389487259       14.3126842868        1.2663853083  SOLV      2502            0.0000000000
      7627      2514  TIP3      OH2           -28.3865728041       11.8085849913        2.4459394936  SOLV      2503            0.0000000000
      7628      2514  TIP3      H1            -28.3221436294       12.7741066673        2.5990376996  SOLV      2503            0.0000000000
      7629      2514  TIP3      H2            -29.3421466520       11.6903721601        2.5245722463  SOLV      2503            0.0000000000
      7630      2515  TIP3      OH2           -30.9300098465       13.2074767636       -8.3785241191  SOLV      2504            0.0000000000
      7631      2515  TIP3      H1            -31.4016998263       13.1780110043       -9.2253669941  SOLV      2504            0.0000000000
      7632      2515  TIP3      H2            -31.0423351625       14.1400589138       -8.0996613146  SOLV      2504            0.0000000000
      7633      2516  TIP3      OH2           -28.9895857490       12.1238523272      -11.9408318445  SOLV      2505            0.0000000000
      7634      2516  TIP3      H1            -28.3684251807       11.4481102618      -12.2909678084  SOLV      2505            0.0000000000
      7635      2516  TIP3      H2            -28.6169015427       12.2824349790      -11.0462180906  SOLV      2505            0.0000000000
      7636      2517  TIP3      OH2           -28.4020287966       12.6623155451       -9.2827143318  SOLV      2506            0.0000000000
      7637      2517  TIP3      H1            -29.2730856888       12.7336903533       -8.8329626381  SOLV      2506            0.0000000000
      7638      2517  TIP3      H2            -27.8420318360       12.3245500012       -8.5663518137  SOLV      2506            0.0000000000
      7639      2518  TIP3      OH2           -20.7242477405        5.2937166003        3.5714864093  SOLV      2507            0.0000000000
      7640      2518  TIP3      H1            -21.5396264216        5.4017091395        3.0597799013  SOLV      2507            0.0000000000
      7641      2518  TIP3      H2            -20.5707078840        4.3302821812        3.4947714972  SOLV      2507            0.0000000000
      7642      2519  TIP3      OH2           -30.6359140622       -2.3909098072        1.5413734333  SOLV      2508            0.0000000000
      7643      2519  TIP3      H1            -31.5488633802       -2.7228387313        1.3941286944  SOLV      2508            0.0000000000
      7644      2519  TIP3      H2            -30.8732781622       -1.5493130560        1.9838976760  SOLV      2508            0.0000000000
      7645      2520  TIP3      OH2           -25.3934803872       -1.1732784839        3.5829461142  SOLV      2509            0.0000000000
      7646      2520  TIP3      H1            -24.7171335706       -1.4958123288        4.2130634727  SOLV      2509            0.0000000000
      7647      2520  TIP3      H2            -26.2326977371       -1.4095619261        4.0320984460  SOLV      2509            0.0000000000
      7648      2521  TIP3      OH2           -23.0561612403        3.0686354633        2.7812144657  SOLV      2510            0.0000000000
      7649      2521  TIP3      H1            -23.5347230858        3.0875889557        3.6404379680  SOLV      2510            0.0000000000
      7650      2521  TIP3      H2            -23.2651591629        3.9441197152        2.4018286835  SOLV      2510            0.0000000000
      7651      2522  TIP3      OH2           -26.4269510144        4.2795903929      -11.7026035781  SOLV      2511            0.0000000000
      7652      2522  TIP3      H1            -26.7637879196        4.0981341225      -12.5997457758  SOLV      2511            0.0000000000
      7653      2522  TIP3      H2            -25.5904455830        4.7421225770      -11.9093896880  SOLV      2511            0.0000000000
      7654      2523  TIP3      OH2           -29.2781505771       -1.8885267689       -8.6532738092  SOLV      2512            0.0000000000
      7655      2523  TIP3      H1            -29.6192742233       -1.9177417667       -7.7389274318  SOLV      2512            0.0000000000
      7656      2523  TIP3      H2            -29.6667638261       -2.7155801467       -8.9999923544  SOLV      2512            0.0000000000
      7657      2524  TIP3      OH2           -31.2417559994        2.7304851990        1.8704319210  SOLV      2513            0.0000000000
      7658      2524  TIP3      H1            -31.6879428998        3.0365332079        2.6763959875  SOLV      2513            0.0000000000
      7659      2524  TIP3      H2            -31.3196983863        3.5452931477        1.3234938801  SOLV      2513            0.0000000000
      7660      2525  TIP3      OH2           -32.3696011720        1.7111712140       -3.1034606890  SOLV      2514            0.0000000000
      7661      2525  TIP3      H1            -33.2831096432        1.7471352942       -2.7321777461  SOLV      2514            0.0000000000
      7662      2525  TIP3      H2            -32.4892105265        1.2166669686       -3.9396139490  SOLV      2514            0.0000000000
      7663      2526  TIP3      OH2           -27.7000420092        2.4603147261       -5.7295626182  SOLV      2515            0.0000000000
      7664      2526  TIP3      H1            -28.1809364127        3.1928766310       -6.1762793460  SOLV      2515            0.0000000000
      7665      2526  TIP3      H2            -27.1229884901        2.1396080895       -6.4501134659  SOLV      2515            0.0000000000
      7666      2527  TIP3      OH2           -25.9011804097        5.2596309483        5.0760621328  SOLV      2516            0.0000000000
      7667      2527  TIP3      H1            -26.1367024868        4.5484584767        5.7109727723  SOLV      2516            0.0000000000
      7668      2527  TIP3      H2            -24.9585942481        5.3976220348        5.2987752581  SOLV      2516            0.0000000000
      7669      2528  TIP3      OH2           -26.1302642931        2.7538416542       -3.3950569803  SOLV      2517            0.0000000000
      7670      2528  TIP3      H1            -26.7601584944        3.0249014040       -4.0934408437  SOLV      2517            0.0000000000
      7671      2528  TIP3      H2            -25.7582959418        1.9667096726       -3.8454328309  SOLV      2517            0.0000000000
      7672      2529  TIP3      OH2           -32.6361643865       -2.1372374194       -8.9766914299  SOLV      2518            0.0000000000
      7673      2529  TIP3      H1            -32.8181053449       -2.2403828913       -8.0209806238  SOLV      2518            0.0000000000
      7674      2529  TIP3      H2            -33.3906222848       -1.5925912417       -9.2538817269  SOLV      2518            0.0000000000
      7675      2530  TIP3      OH2           -26.0140624094        5.2213281645        0.8015468744  SOLV      2519            0.0000000000
      7676      2530  TIP3      H1            -25.6816769580        4.5101884033        0.2036649779  SOLV      2519            0.0000000000
      7677      2530  TIP3      H2            -26.3145402804        4.6790631028        1.5595563748  SOLV      2519            0.0000000000
      7678      2531  TIP3      OH2           -29.1819021686       -0.1329193884       -2.4513282401  SOLV      2520            0.0000000000
      7679      2531  TIP3      H1            -29.9707433257       -0.1316695691       -1.8718106140  SOLV      2520            0.0000000000
      7680      2531  TIP3      H2            -28.4590229339       -0.2469505498       -1.8073468975  SOLV      2520            0.0000000000
      7681      2532  TIP3      OH2           -32.3463254667        0.3555472591       -5.4950798758  SOLV      2521            0.0000000000
      7682      2532  TIP3      H1            -31.3813238690        0.5327045831       -5.5608222778  SOLV      2521            0.0000000000
      7683      2532  TIP3      H2            -32.6904304850        0.7003924157       -6.3474597872  SOLV      2521            0.0000000000
      7684      2533  TIP3      OH2           -24.3714273118        0.6471189434       -0.3445730727  SOLV      2522            0.0000000000
      7685      2533  TIP3      H1            -24.7477371181        0.7793496710        0.5522625344  SOLV      2522            0.0000000000
      7686      2533  TIP3      H2            -25.0230524599        0.0410658771       -0.7325725265  SOLV      2522            0.0000000000
      7687      2534  TIP3      OH2           -33.8635635677        0.9761137509       -7.6808648832  SOLV      2523            0.0000000000
      7688      2534  TIP3      H1            -34.4640708021        0.4343204559       -8.2232597159  SOLV      2523            0.0000000000
      7689      2534  TIP3      H2            -33.2650379557        1.2950588496       -8.3941971657  SOLV      2523            0.0000000000
      7690      2535  TIP3      OH2           -22.6404368812       17.5273127700        1.8007654687  SOLV      2524            0.0000000000
      7691      2535  TIP3      H1            -22.6732985114       17.7741130520        0.8580894542  SOLV      2524            0.0000000000
      7692      2535  TIP3      H2            -21.8340969938       17.9968172482        2.0942356309  SOLV      2524            0.0000000000
      7693      2536  TIP3      OH2           -28.4392978218        3.1994873299       -1.4302480019  SOLV      2525            0.0000000000
      7694      2536  TIP3      H1            -27.7364216145        2.7636050235       -1.9360035180  SOLV      2525            0.0000000000
      7695      2536  TIP3      H2            -28.3961619876        2.7336559059       -0.5706244790  SOLV      2525            0.0000000000
      7696      2537  TIP3      OH2           -32.9751462766       -2.0059216854       -2.8261047545  SOLV      2526            0.0000000000
      7697      2537  TIP3      H1            -32.9787060629       -2.7763073551       -2.2203417634  SOLV      2526            0.0000000000
      7698      2537  TIP3      H2            -32.5026888663       -2.3681130571       -3.5900881308  SOLV      2526            0.0000000000
      7699      2538  TIP3      OH2           -28.6145169295        2.1797403752        1.2899057904  SOLV      2527            0.0000000000
      7700      2538  TIP3      H1            -29.5373395763        2.4075170933        1.5304245455  SOLV      2527            0.0000000000
      7701      2538  TIP3      H2            -28.0857584618        2.7591720170        1.8724527387  SOLV      2527            0.0000000000
      7702      2539  TIP3      OH2           -31.1832173933        6.0283619832       -7.5620258955  SOLV      2528            0.0000000000
      7703      2539  TIP3      H1            -31.9135265154        5.3732921555       -7.6573154057  SOLV      2528            0.0000000000
      7704      2539  TIP3      H2            -31.3899126829        6.4166600441       -6.6760064310  SOLV      2528            0.0000000000
      7705      2540  TIP3      OH2           -22.3779372238        8.4025913328       -1.3731425453  SOLV      2529            0.0000000000
      7706      2540  TIP3      H1            -22.1145033553        8.9042966913       -2.1752311955  SOLV      2529            0.0000000000
      7707      2540  TIP3      H2            -23.2235314576        7.9907397384       -1.6539175764  SOLV      2529            0.0000000000
      7708      2541  TIP3      OH2           -26.7765834216       -0.8726352082       -8.9304774543  SOLV      2530            0.0000000000
      7709      2541  TIP3      H1            -27.7389077334       -1.0731609063       -8.8405792736  SOLV      2530            0.0000000000
      7710      2541  TIP3      H2            -26.7157130109        0.0711606954       -8.6820401052  SOLV      2530            0.0000000000
      7711      2542  TIP3      OH2           -27.4895957182        9.1780503154        2.4371528863  SOLV      2531            0.0000000000
      7712      2542  TIP3      H1            -27.0491402505        9.1041125534        3.2908087460  SOLV      2531            0.0000000000
      7713      2542  TIP3      H2            -27.7874208105       10.1123275635        2.4519885640  SOLV      2531            0.0000000000
      7714      2543  TIP3      OH2           -26.1079723757        1.6419263530       -7.9172992047  SOLV      2532            0.0000000000
      7715      2543  TIP3      H1            -25.1419568164        1.7031018966       -7.7750925126  SOLV      2532            0.0000000000
      7716      2543  TIP3      H2            -26.2981700917        2.4504843626       -8.4311550176  SOLV      2532            0.0000000000
      7717      2544  TIP3      OH2           -29.9230302704        7.5564000985       -9.4174986729  SOLV      2533            0.0000000000
      7718      2544  TIP3      H1            -30.4491348178        8.3840508030       -9.3371843241  SOLV      2533            0.0000000000
      7719      2544  TIP3      H2            -30.3860352482        6.9681569154       -8.7806346668  SOLV      2533            0.0000000000
      7720      2545  TIP3      OH2           -28.2658077760        6.5878430500        5.4546959762  SOLV      2534            0.0000000000
      7721      2545  TIP3      H1            -28.7647573161        6.1150628984        4.7718575441  SOLV      2534            0.0000000000
      7722      2545  TIP3      H2            -27.3568298385        6.2869128070        5.2384758754  SOLV      2534            0.0000000000
      7723      2546  TIP3      OH2           -25.7292983748       11.7709642877        1.4304315878  SOLV      2535            0.0000000000
      7724      2546  TIP3      H1            -26.6941198414       11.7406507806        1.5553039027  SOLV      2535            0.0000000000
      7725      2546  TIP3      H2            -25.4760097882       12.3625113602        2.1676570016  SOLV      2535            0.0000000000
      7726      2547  TIP3      OH2           -21.7254033829        2.5821584070       -9.5992580930  SOLV      2536            0.0000000000
      7727      2547  TIP3      H1            -22.3272568261        2.1315411096      -10.2365289446  SOLV      2536            0.0000000000
      7728      2547  TIP3      H2            -21.7565946058        3.4788825786      -10.0007573583  SOLV      2536            0.0000000000
      7729      2548  TIP3      OH2           -19.4720122649       11.1752983990        1.1923017801  SOLV      2537            0.0000000000
      7730      2548  TIP3      H1            -20.4467856826       11.0870989007        1.1028299671  SOLV      2537            0.0000000000
      7731      2548  TIP3      H2            -19.1980262002       10.8702005612        0.2971937912  SOLV      2537            0.0000000000
      7732      2549  TIP3      OH2           -24.6856775750       10.7501622838      -10.5121004632  SOLV      2538            0.0000000000
      7733      2549  TIP3      H1            -24.9117386751       10.0458935626       -9.8902614786  SOLV      2538            0.0000000000
      7734      2549  TIP3      H2            -24.5132407751       10.2725594889      -11.3429978397  SOLV      2538            0.0000000000
      7735      2550  TIP3      OH2           -24.7092305846        7.0393911963       -2.2178550014  SOLV      2539            0.0000000000
      7736      2550  TIP3      H1            -25.6429872381        6.7896800582       -2.0798369681  SOLV      2539            0.0000000000
      7737      2550  TIP3      H2            -24.3686203751        6.2300634452       -2.6498340626  SOLV      2539            0.0000000000
      7738      2551  TIP3      OH2           -31.8316182625        7.1621225884       -5.1912897581  SOLV      2540            0.0000000000
      7739      2551  TIP3      H1            -32.0119443644        8.1027514845       -5.0812882223  SOLV      2540            0.0000000000
      7740      2551  TIP3      H2            -32.3237870625        6.7602786447       -4.4532566473  SOLV      2540            0.0000000000
      7741      2552  TIP3      OH2           -30.2083078175       12.3983146274       -0.2127133663  SOLV      2541            0.0000000000
      7742      2552  TIP3      H1            -29.6766057010       13.0685038729       -0.6533654269  SOLV      2541            0.0000000000
      7743      2552  TIP3      H2            -30.3963532960       12.8166355791        0.6506832756  SOLV      2541            0.0000000000
      7744      2553  TIP3      OH2           -26.8677986828        9.1004068460       -0.2558378462  SOLV      2542            0.0000000000
      7745      2553  TIP3      H1            -26.9663681356        9.0590688909        0.7209980419  SOLV      2542            0.0000000000
      7746      2553  TIP3      H2            -26.0511165670        8.6031170724       -0.3924765842  SOLV      2542            0.0000000000
      7747      2554  TIP3      OH2           -27.0481361329        8.0390822108      -11.4823343510  SOLV      2543            0.0000000000
      7748      2554  TIP3      H1            -26.5108167295        7.7872325934      -10.6946796567  SOLV      2543            0.0000000000
      7749      2554  TIP3      H2            -27.9252207062        7.7334732550      -11.2062632939  SOLV      2543            0.0000000000
      7750      2555  TIP3      OH2           -24.3543962148       14.4164880402        0.1702195550  SOLV      2544            0.0000000000
      7751      2555  TIP3      H1            -25.1740710221       13.8940628370        0.0685787782  SOLV      2544            0.0000000000
      7752      2555  TIP3      H2            -24.4590648594       15.0568543178       -0.5684967252  SOLV      2544            0.0000000000
      7753      2556  TIP3      OH2           -23.6996503617       12.7204292305      -13.3322286071  SOLV      2545            0.0000000000
      7754      2556  TIP3      H1            -23.2416960356       13.4633186870      -13.7624710661  SOLV      2545            0.0000000000
      7755      2556  TIP3      H2            -24.4912195707       13.1913448974      -12.9954603117  SOLV      2545            0.0000000000
      7756      2557  TIP3      OH2           -25.4506430741        7.3093594230       -9.3759210967  SOLV      2546            0.0000000000
      7757      2557  TIP3      H1            -25.5415255098        6.6646379847       -8.6460616256  SOLV      2546            0.0000000000
      7758      2557  TIP3      H2            -24.4766935799        7.3075091477       -9.4872646759  SOLV      2546            0.0000000000
      7759      2558  TIP3      OH2           -33.2953721058        7.5425848393      -11.5537994201  SOLV      2547            0.0000000000
      7760      2558  TIP3      H1            -33.2102203969        6.6297420639      -11.9108555388  SOLV      2547            0.0000000000
      7761      2558  TIP3      H2            -33.2639056966        7.3612936208      -10.5887247732  SOLV      2547            0.0000000000
      7762      2559  TIP3      OH2           -33.4783788229        7.4591002193       -8.8177179446  SOLV      2548            0.0000000000
      7763      2559  TIP3      H1            -32.6462586021        7.6726038983       -8.3904919983  SOLV      2548            0.0000000000
      7764      2559  TIP3      H2            -33.9640196976        8.3113219721       -8.7501516010  SOLV      2548            0.0000000000
      7765      2560  TIP3      OH2           -25.1800383155        1.2345342310        2.2448628637  SOLV      2549            0.0000000000
      7766      2560  TIP3      H1            -24.3166246983        1.5779259679        2.5330653851  SOLV      2549            0.0000000000
      7767      2560  TIP3      H2            -25.2609660734        0.3972277545        2.7542060106  SOLV      2549            0.0000000000
      7768      2561  TIP3      OH2           -26.3155603417       -1.3665997900       -6.1116700324  SOLV      2550            0.0000000000
      7769      2561  TIP3      H1            -26.4317664323       -1.1434957560       -7.0553422672  SOLV      2550            0.0000000000
      7770      2561  TIP3      H2            -25.8869657408       -0.5560880579       -5.7620914762  SOLV      2550            0.0000000000
      7771      2562  TIP3      OH2           -31.4535270002        9.8105949650       -9.2207542597  SOLV      2551            0.0000000000
      7772      2562  TIP3      H1            -31.9024389532       10.2584792181       -8.4944194503  SOLV      2551            0.0000000000
      7773      2562  TIP3      H2            -31.2319599649       10.5564148036       -9.7981021039  SOLV      2551            0.0000000000
      7774      2563  TIP3      OH2           -29.5744122817        0.5207897820       -5.1152138583  SOLV      2552            0.0000000000
      7775      2563  TIP3      H1            -28.9048138099        1.2128420692       -5.3129263555  SOLV      2552            0.0000000000
      7776      2563  TIP3      H2            -29.4392861516        0.4095789404       -4.1480918628  SOLV      2552            0.0000000000
      7777      2564  TIP3      OH2           -26.7616804778        3.6253995970        2.8894339615  SOLV      2553            0.0000000000
      7778      2564  TIP3      H1            -26.4622526278        4.1045743144        3.6876855754  SOLV      2553            0.0000000000
      7779      2564  TIP3      H2            -26.2264942397        2.8086230785        2.9153915186  SOLV      2553            0.0000000000
      7780      2565  TIP3      OH2           -28.0187083835       -2.3531951778       -4.1461193109  SOLV      2554            0.0000000000
      7781      2565  TIP3      H1            -28.0701082694       -1.5859426715       -3.5471597067  SOLV      2554            0.0000000000
      7782      2565  TIP3      H2            -27.3791623987       -2.0149018921       -4.8163929915  SOLV      2554            0.0000000000
      7783      2566  TIP3      OH2           -32.8226219163       -2.2870912112       -6.2001989679  SOLV      2555            0.0000000000
      7784      2566  TIP3      H1            -32.7702289281       -1.3566573059       -5.9118545408  SOLV      2555            0.0000000000
      7785      2566  TIP3      H2            -31.8685297505       -2.5099228020       -6.1832142934  SOLV      2555            0.0000000000
      7786      2567  TIP3      OH2           -20.3806608662        2.5990275285        2.8318720450  SOLV      2556            0.0000000000
      7787      2567  TIP3      H1            -21.3644371603        2.5804718414        2.8101927140  SOLV      2556            0.0000000000
      7788      2567  TIP3      H2            -20.1810654884        2.3551382007        1.9170503899  SOLV      2556            0.0000000000
      7789      2568  TIP3      OH2           -23.8542909834        4.5843061633       -3.3791070623  SOLV      2557            0.0000000000
      7790      2568  TIP3      H1            -24.6091347438        3.9819965832       -3.2590933114  SOLV      2557            0.0000000000
      7791      2568  TIP3      H2            -23.1386989672        4.1175627200       -2.8948678585  SOLV      2557            0.0000000000
      7792      2569  TIP3      OH2           -24.1361394305       14.1807778600       -3.9208845590  SOLV      2558            0.0000000000
      7793      2569  TIP3      H1            -24.5565732656       14.6506915429       -4.6773438241  SOLV      2558            0.0000000000
      7794      2569  TIP3      H2            -23.1894185570       14.3638424904       -4.1179733045  SOLV      2558            0.0000000000
      7795      2570  TIP3      OH2           -33.2234355238       -3.1849111840        1.6024680366  SOLV      2559            0.0000000000
      7796      2570  TIP3      H1            -33.4202690336       -3.4760164891        0.6922781928  SOLV      2559            0.0000000000
      7797      2570  TIP3      H2            -33.3656443160       -3.9963140399        2.1294849353  SOLV      2559            0.0000000000
      7798      2571  TIP3      OH2           -31.8279137321        9.7688938290      -12.3548542258  SOLV      2560            0.0000000000
      7799      2571  TIP3      H1            -32.3478287582        9.0194890214      -11.9835116804  SOLV      2560            0.0000000000
      7800      2571  TIP3      H2            -30.9999656852        9.3086067526      -12.5689087533  SOLV      2560            0.0000000000
      7801      2572  TIP3      OH2           -25.3013495562       13.2439622037        3.7338770632  SOLV      2561            0.0000000000
      7802      2572  TIP3      H1            -25.2869461529       12.4912006140        4.3701378958  SOLV      2561            0.0000000000
      7803      2572  TIP3      H2            -24.4879619125       13.7296865560        3.9766989266  SOLV      2561            0.0000000000
      7804      2573  TIP3      OH2           -27.4735192474       10.2102350777      -13.2344620125  SOLV      2562            0.0000000000
      7805      2573  TIP3      H1            -27.0484960567        9.5857845054      -12.6135146605  SOLV      2562            0.0000000000
      7806      2573  TIP3      H2            -26.8637164842       10.2015717334      -13.9960614948  SOLV      2562            0.0000000000
      7807      2574  TIP3      OH2           -28.8674342234        9.3563320109        5.3943335056  SOLV      2563            0.0000000000
      7808      2574  TIP3      H1            -29.4911221167        9.1654670463        4.6898732450  SOLV      2563            0.0000000000
      7809      2574  TIP3      H2            -28.5264205176        8.4642049719        5.5964376555  SOLV      2563            0.0000000000
      7810      2575  TIP3      OH2           -30.0698568914        7.0017381348      -12.0907903926  SOLV      2564            0.0000000000
      7811      2575  TIP3      H1            -30.1095897421        7.1281913861      -11.1198631657  SOLV      2564            0.0000000000
      7812      2575  TIP3      H2            -30.1379552905        6.0233929781      -12.1466067800  SOLV      2564            0.0000000000
      7813      2576  TIP3      OH2           -24.1232728256        9.5216870555        1.7164314836  SOLV      2565            0.0000000000
      7814      2576  TIP3      H1            -23.3525996774        9.9116960031        1.2599058034  SOLV      2565            0.0000000000
      7815      2576  TIP3      H2            -24.7818338563       10.2329194597        1.5809472391  SOLV      2565            0.0000000000
      7816      2577  TIP3      OH2           -33.0025524931        3.9948771365       -7.8514618041  SOLV      2566            0.0000000000
      7817      2577  TIP3      H1            -33.5433749066        3.4147746186       -7.3097722371  SOLV      2566            0.0000000000
      7818      2577  TIP3      H2            -32.7017242064        3.3824263966       -8.5527530495  SOLV      2566            0.0000000000
      7819      2578  TIP3      OH2           -30.6725103125        4.5122676076        4.2447758060  SOLV      2567            0.0000000000
      7820      2578  TIP3      H1            -31.1281454380        5.2396470846        4.6886098288  SOLV      2567            0.0000000000
      7821      2578  TIP3      H2            -30.1758869044        4.9713797696        3.5323209603  SOLV      2567            0.0000000000
      7822      2579  TIP3      OH2           -32.2105493926        2.0082355674       -9.5810498859  SOLV      2568            0.0000000000
      7823      2579  TIP3      H1            -32.4960943725        2.0029893916      -10.5204929370  SOLV      2568            0.0000000000
      7824      2579  TIP3      H2            -31.2375885635        2.0668234145       -9.6847797831  SOLV      2568            0.0000000000
      7825      2580  TIP3      OH2           -25.4160423644        8.6891047290        5.6423273481  SOLV      2569            0.0000000000
      7826      2580  TIP3      H1            -24.6431209916        8.3903374608        5.1514197748  SOLV      2569            0.0000000000
      7827      2580  TIP3      H2            -25.4335910354        8.0689341957        6.3950176511  SOLV      2569            0.0000000000
      7828      2581  TIP3      OH2           -24.1000839948        5.2807111600      -12.8452332813  SOLV      2570            0.0000000000
      7829      2581  TIP3      H1            -24.3062780766        4.8501646592      -13.6963463197  SOLV      2570            0.0000000000
      7830      2581  TIP3      H2            -24.3985399858        6.1964667738      -13.0562039923  SOLV      2570            0.0000000000
      7831      2582  TIP3      OH2           -29.2400307085        2.5647892232        5.5091312569  SOLV      2571            0.0000000000
      7832      2582  TIP3      H1            -29.2603379572        1.7417488740        4.9772114346  SOLV      2571            0.0000000000
      7833      2582  TIP3      H2            -29.7824067105        3.1622470868        4.9487402008  SOLV      2571            0.0000000000
      7834      2583  TIP3      OH2           -29.2397686794        0.4688241387        3.5986104459  SOLV      2572            0.0000000000
      7835      2583  TIP3      H1            -28.9118221857        0.8384209464        2.7601070918  SOLV      2572            0.0000000000
      7836      2583  TIP3      H2            -30.1644253692        0.2384563149        3.3584368113  SOLV      2572            0.0000000000
      7837      2584  TIP3      OH2           -29.0940536342        5.9733061963        2.5746901037  SOLV      2573            0.0000000000
      7838      2584  TIP3      H1            -28.2365790263        5.8718069488        2.1429450050  SOLV      2573            0.0000000000
      7839      2584  TIP3      H2            -29.4919470327        6.7030565472        2.0660714198  SOLV      2573            0.0000000000
      7840      2585  TIP3      OH2           -23.2815255339        5.5916224791        6.0992392410  SOLV      2574            0.0000000000
      7841      2585  TIP3      H1            -22.7846593849        4.8141646886        6.3984598789  SOLV      2574            0.0000000000
      7842      2585  TIP3      H2            -22.5849775512        6.1355924095        5.6986269636  SOLV      2574            0.0000000000
      7843      2586  TIP3      OH2           -22.8509484371        8.0221508651        3.5521505069  SOLV      2575            0.0000000000
      7844      2586  TIP3      H1            -23.4205909226        8.5852592681        2.9736729504  SOLV      2575            0.0000000000
      7845      2586  TIP3      H2            -21.9707107392        8.2290913877        3.1634175173  SOLV      2575            0.0000000000
      7846      2587  TIP3      OH2           -30.2282578184        3.9251106274        7.7948416790  SOLV      2576            0.0000000000
      7847      2587  TIP3      H1            -30.8469002022        3.2185686121        8.0941084187  SOLV      2576            0.0000000000
      7848      2587  TIP3      H2            -29.9240669216        3.5487071949        6.9429204028  SOLV      2576            0.0000000000
      7849      2588  TIP3      OH2           -27.9617831084       -1.9010777125        4.3870314984  SOLV      2577            0.0000000000
      7850      2588  TIP3      H1            -28.4780835107       -1.1060676407        4.1368686240  SOLV      2577            0.0000000000
      7851      2588  TIP3      H2            -28.6183698077       -2.6158157346        4.2413587708  SOLV      2577            0.0000000000
      7852      2589  TIP3      OH2           -26.7306125325        3.0742851135        6.4903647895  SOLV      2578            0.0000000000
      7853      2589  TIP3      H1            -26.9496600414        2.8868162848        7.4241259553  SOLV      2578            0.0000000000
      7854      2589  TIP3      H2            -27.5968406294        2.8485923665        6.0826480109  SOLV      2578            0.0000000000
      7855      2590  TIP3      OH2           -24.3352993108        2.6437525571        5.1498791565  SOLV      2579            0.0000000000
      7856      2590  TIP3      H1            -25.1716044630        2.6939777976        5.6601043689  SOLV      2579            0.0000000000
      7857      2590  TIP3      H2            -23.7808352567        2.1119963202        5.7332058758  SOLV      2579            0.0000000000
      7858      2591  TIP3      OH2           -21.6891297458        1.4730959367        7.0076091608  SOLV      2580            0.0000000000
      7859      2591  TIP3      H1            -22.1406043236        0.8370597284        7.5716226174  SOLV      2580            0.0000000000
      7860      2591  TIP3      H2            -21.8910807941        2.3131972520        7.4724629122  SOLV      2580            0.0000000000
      7861      2592  TIP3      OH2           -27.1286770704       -1.8261367172        6.9997080589  SOLV      2581            0.0000000000
      7862      2592  TIP3      H1            -26.4751423508       -2.5545277464        6.9386815853  SOLV      2581            0.0000000000
      7863      2592  TIP3      H2            -27.4921732221       -1.8515252316        6.0901192101  SOLV      2581            0.0000000000
      7864      2593  TIP3      OH2           -26.3069037487        0.3170884562        8.4768332584  SOLV      2582            0.0000000000
      7865      2593  TIP3      H1            -26.5759197663       -0.4185119481        7.8808194723  SOLV      2582            0.0000000000
      7866      2593  TIP3      H2            -27.1024551740        0.8887673398        8.4557370299  SOLV      2582            0.0000000000
      7867      2594  TIP3      OH2           -21.5646272230       15.0092059565       -4.2824274072  SOLV      2583            0.0000000000
      7868      2594  TIP3      H1            -21.3134621201       15.3766489931       -3.4168411268  SOLV      2583            0.0000000000
      7869      2594  TIP3      H2            -20.9373248889       15.4426994690       -4.8813442925  SOLV      2583            0.0000000000
      7870      2595  TIP3      OH2           -21.3326802432       15.2561119477       -1.4431607131  SOLV      2584            0.0000000000
      7871      2595  TIP3      H1            -21.7717397676       14.3811097474       -1.5038525781  SOLV      2584            0.0000000000
      7872      2595  TIP3      H2            -20.5645451106       15.0164377062       -0.9020300948  SOLV      2584            0.0000000000
      7873      2596  TIP3      OH2           -20.8320767506       12.0258511773        4.2715311816  SOLV      2585            0.0000000000
      7874      2596  TIP3      H1            -21.5500825501       12.1380546090        4.9259105069  SOLV      2585            0.0000000000
      7875      2596  TIP3      H2            -20.4047030589       12.9058928187        4.2988651166  SOLV      2585            0.0000000000
      7876      2597  TIP3      OH2           -22.6640072350        7.1503954597       -9.5888874473  SOLV      2586            0.0000000000
      7877      2597  TIP3      H1            -22.0076552478        7.8153782183       -9.8837664692  SOLV      2586            0.0000000000
      7878      2597  TIP3      H2            -22.2136885934        6.7796965742       -8.7978277341  SOLV      2586            0.0000000000
      7879      2598  TIP3      OH2           -21.3954534187        5.8224627838       -7.5357629708  SOLV      2587            0.0000000000
      7880      2598  TIP3      H1            -22.0574525158        5.4231573935       -6.9320803195  SOLV      2587            0.0000000000
      7881      2598  TIP3      H2            -20.7256124068        6.1780065766       -6.9142515202  SOLV      2587            0.0000000000
      7882      2599  TIP3      OH2           -20.8282385935        9.7733490330       -3.2105494067  SOLV      2588            0.0000000000
      7883      2599  TIP3      H1            -20.2941036992        9.0982876883       -3.6718520171  SOLV      2588            0.0000000000
      7884      2599  TIP3      H2            -20.8524961950       10.5007003135       -3.8643128255  SOLV      2588            0.0000000000
      7885      2600  TIP3      OH2           -22.5826713946       12.7425435271       -1.2631878428  SOLV      2589            0.0000000000
      7886      2600  TIP3      H1            -23.3106811515       13.1639671970       -0.7697890916  SOLV      2589            0.0000000000
      7887      2600  TIP3      H2            -23.0606706077       12.2910739546       -1.9918271808  SOLV      2589            0.0000000000
      7888      2601  TIP3      OH2           -22.0468633807        4.9132515281      -11.0798633952  SOLV      2590            0.0000000000
      7889      2601  TIP3      H1            -22.7799763817        4.9542532323      -11.7351820868  SOLV      2590            0.0000000000
      7890      2601  TIP3      H2            -22.2854289737        5.6858530420      -10.5259262265  SOLV      2590            0.0000000000
      7891      2602  TIP3      OH2           -23.3423505820        1.5993880681      -11.5606361615  SOLV      2591            0.0000000000
      7892      2602  TIP3      H1            -23.8445527930        1.9742255908      -12.2902017459  SOLV      2591            0.0000000000
      7893      2602  TIP3      H2            -23.5277557288        0.6439660510      -11.6744775520  SOLV      2591            0.0000000000
      7894      2603  TIP3      OH2           -23.3094353830        4.4279895513       -6.0869766130  SOLV      2592            0.0000000000
      7895      2603  TIP3      H1            -23.2020319125        3.4652381532       -6.1482462099  SOLV      2592            0.0000000000
      7896      2603  TIP3      H2            -23.4456082626        4.5632204961       -5.1238390765  SOLV      2592            0.0000000000
      7897      2604  TIP3      OH2           -20.3840207224        8.6591483321        2.5168183106  SOLV      2593            0.0000000000
      7898      2604  TIP3      H1            -19.6796944946        7.9829715929        2.3937961110  SOLV      2593            0.0000000000
      7899      2604  TIP3      H2            -20.1473506200        9.3249561446        1.8531477852  SOLV      2593            0.0000000000
      7900      2605  TIP3      OH2           -18.5821897832        6.6462425772        2.6019785040  SOLV      2594            0.0000000000
      7901      2605  TIP3      H1            -19.3295212149        6.1516989966        3.0021592967  SOLV      2594            0.0000000000
      7902      2605  TIP3      H2            -17.8477572787        6.0238477724        2.7816348770  SOLV      2594            0.0000000000
      7903      2606  TIP3      OH2           -23.8592985807       -1.0978378460      -11.8387927752  SOLV      2595            0.0000000000
      7904      2606  TIP3      H1            -23.1500477524       -1.3584848554      -11.2131902481  SOLV      2595            0.0000000000
      7905      2606  TIP3      H2            -24.6280046597       -1.6075038630      -11.5275211626  SOLV      2595            0.0000000000
      7906      2607  TIP3      OH2           -23.3109348826        1.5843338113       -7.1856913224  SOLV      2596            0.0000000000
      7907      2607  TIP3      H1            -22.8836485833        0.7066634665       -7.0361622374  SOLV      2596            0.0000000000
      7908      2607  TIP3      H2            -22.7303927038        1.9339800551       -7.8860524789  SOLV      2596            0.0000000000
      7909      2608  TIP3      OH2           -21.7207977031        3.2806219145       -2.1712983915  SOLV      2597            0.0000000000
      7910      2608  TIP3      H1            -20.8654896658        3.5205494779       -2.5993527316  SOLV      2597            0.0000000000
      7911      2608  TIP3      H2            -21.5555711995        3.6529120962       -1.2853165122  SOLV      2597            0.0000000000
      7912      2609  TIP3      OH2           -20.9751351407        4.7603057893        0.1514117530  SOLV      2598            0.0000000000
      7913      2609  TIP3      H1            -21.7598888832        5.1150894928        0.6087251548  SOLV      2598            0.0000000000
      7914      2609  TIP3      H2            -20.6494979674        5.5556535456       -0.3267698772  SOLV      2598            0.0000000000
      7915      2610  TIP3      OH2           -16.6375080933        0.5591972423        5.6527252494  SOLV      2599            0.0000000000
      7916      2610  TIP3      H1            -15.9155265832        0.0035917580        5.2804075372  SOLV      2599            0.0000000000
      7917      2610  TIP3      H2            -16.7894002637        1.1950168313        4.9184502097  SOLV      2599            0.0000000000
      7918      2611  TIP3      OH2           -22.2296675282       -0.9127620940       -6.7538510117  SOLV      2600            0.0000000000
      7919      2611  TIP3      H1            -21.7397308375       -1.0909369196       -5.9231939667  SOLV      2600            0.0000000000
      7920      2611  TIP3      H2            -22.8305010904       -1.6857121859       -6.7772106837  SOLV      2600            0.0000000000
      7921      2612  TIP3      OH2           -17.8632147474        1.9823005187        3.7498471677  SOLV      2601            0.0000000000
      7922      2612  TIP3      H1            -18.7337724155        2.4351587975        3.7664711591  SOLV      2601            0.0000000000
      7923      2612  TIP3      H2            -18.0876139153        1.2340570404        3.1689177830  SOLV      2601            0.0000000000
      7924      2613  TIP3      OH2           -21.4953488973       -1.6112715951      -10.4238311813  SOLV      2602            0.0000000000
      7925      2613  TIP3      H1            -21.0570356065       -2.3122951082      -10.9517561020  SOLV      2602            0.0000000000
      7926      2613  TIP3      H2            -20.8189537859       -0.9055627474      -10.4171540555  SOLV      2602            0.0000000000
      7927      2614  TIP3      OH2           -25.7873272138       13.7368842767       -7.7645338453  SOLV      2603            0.0000000000
      7928      2614  TIP3      H1            -25.2495608443       13.6413033398       -8.5778831025  SOLV      2603            0.0000000000
      7929      2614  TIP3      H2            -25.2911104597       14.4173467585       -7.2790499265  SOLV      2603            0.0000000000
      7930      2615  TIP3      OH2           -28.2610651102       14.5245870583        3.0102313819  SOLV      2604            0.0000000000
      7931      2615  TIP3      H1            -27.6682814479       14.4570054586        3.7824545684  SOLV      2604            0.0000000000
      7932      2615  TIP3      H2            -27.7173017305       15.0761921166        2.4055279135  SOLV      2604            0.0000000000
      7933      2616  TIP3      OH2           -26.7047795777       16.1554457895        1.4763122781  SOLV      2605            0.0000000000
      7934      2616  TIP3      H1            -26.0023893358       15.6979177307        0.9912364633  SOLV      2605            0.0000000000
      7935      2616  TIP3      H2            -26.1764576459       16.7372663367        2.0657952585  SOLV      2605            0.0000000000
      7936      2617  TIP3      OH2           -18.9288328592       -0.4860875237        2.9052990029  SOLV      2606            0.0000000000
      7937      2617  TIP3      H1            -19.7292988196       -0.5284314477        2.3427810338  SOLV      2606            0.0000000000
      7938      2617  TIP3      H2            -18.4890080158       -1.3242484441        2.6160283051  SOLV      2606            0.0000000000
      7939      2618  TIP3      OH2           -29.4320706028       14.7820859152       -1.6416640030  SOLV      2607            0.0000000000
      7940      2618  TIP3      H1            -30.3174720711       14.6977973573       -2.0291660016  SOLV      2607            0.0000000000
      7941      2618  TIP3      H2            -29.4184731131       15.7240589980       -1.4024063922  SOLV      2607            0.0000000000
      7942      2619  TIP3      OH2           -26.8432500973       14.1047421577       -1.0698906413  SOLV      2608            0.0000000000
      7943      2619  TIP3      H1            -27.7773214612       14.3095840701       -1.2828574533  SOLV      2608            0.0000000000
      7944      2619  TIP3      H2            -26.3823877244       14.7923060597       -1.5792595521  SOLV      2608            0.0000000000
      7945      2620  TIP3      OH2           -24.8642593075       16.0115555585       -1.9915260928  SOLV      2609            0.0000000000
      7946      2620  TIP3      H1            -25.0063079938       16.8702337854       -2.4479015839  SOLV      2609            0.0000000000
      7947      2620  TIP3      H2            -24.5919614303       15.4373868477       -2.7408404180  SOLV      2609            0.0000000000
      7948      2621  TIP3      OH2           -26.7862100323       -1.2126314220       -1.2770471444  SOLV      2610            0.0000000000
      7949      2621  TIP3      H1            -27.1566567994       -1.9481147220       -0.7540804035  SOLV      2610            0.0000000000
      7950      2621  TIP3      H2            -26.0280492527       -1.6348913144       -1.7243635746  SOLV      2610            0.0000000000
      7951      2622  TIP3      OH2           -21.5879631202       -2.3014824329       -2.2110061034  SOLV      2611            0.0000000000
      7952      2622  TIP3      H1            -21.2100809952       -1.8315876840       -2.9875622064  SOLV      2611            0.0000000000
      7953      2622  TIP3      H2            -22.5417565977       -2.1371555310       -2.3160691713  SOLV      2611            0.0000000000
      7954      2623  TIP3      OH2           -20.5920369297       -1.3980699159       -4.5871967638  SOLV      2612            0.0000000000
      7955      2623  TIP3      H1            -19.8538457885       -1.9389340728       -4.9441317940  SOLV      2612            0.0000000000
      7956      2623  TIP3      H2            -20.2181596638       -0.4968013855       -4.7321820693  SOLV      2612            0.0000000000
      7957      2624  TIP3      OH2           -33.4326677926       -4.0365295388       -1.0503378809  SOLV      2613            0.0000000000
      7958      2624  TIP3      H1            -34.3527800370       -4.1771643664       -1.3619164546  SOLV      2613            0.0000000000
      7959      2624  TIP3      H2            -33.0641899122       -4.9374536294       -1.1206306868  SOLV      2613            0.0000000000
      7960      2625  TIP3      OH2           -29.8185471880       -3.7317955842       -2.3055347604  SOLV      2614            0.0000000000
      7961      2625  TIP3      H1            -29.2193648323       -3.2850519528       -2.9253450010  SOLV      2614            0.0000000000
      7962      2625  TIP3      H2            -29.4892551485       -3.4192661022       -1.4503187522  SOLV      2614            0.0000000000
      7963      2626  TIP3      OH2           -24.4318034597       -2.3027667245       -2.4687530078  SOLV      2615            0.0000000000
      7964      2626  TIP3      H1            -24.3473386651       -2.7265782909       -3.3296303123  SOLV      2615            0.0000000000
      7965      2626  TIP3      H2            -24.5089542664       -3.0910743836       -1.8755609608  SOLV      2615            0.0000000000
      7966      2627  TIP3      OH2           -24.0522835913       -3.0380075174       -6.8278561768  SOLV      2616            0.0000000000
      7967      2627  TIP3      H1            -24.9097146384       -2.6157491689       -6.6412598816  SOLV      2616            0.0000000000
      7968      2627  TIP3      H2            -24.1810805698       -3.9095762414       -6.3936152604  SOLV      2616            0.0000000000
      7969      2628  TIP3      OH2           -34.9519227730       -4.4082348657       -6.5431210289  SOLV      2617            0.0000000000
      7970      2628  TIP3      H1            -34.8598528023       -4.4024120304       -7.5063184739  SOLV      2617            0.0000000000
      7971      2628  TIP3      H2            -34.4078946677       -3.6435039512       -6.2954725533  SOLV      2617            0.0000000000
      7972      2629  TIP3      OH2           -30.0853842996       -2.0169390056       -6.0063064030  SOLV      2618            0.0000000000
      7973      2629  TIP3      H1            -29.4626886586       -2.4651935153       -5.4065607953  SOLV      2618            0.0000000000
      7974      2629  TIP3      H2            -29.9020119768       -1.0833074784       -5.7613416517  SOLV      2618            0.0000000000
      7975      2630  TIP3      OH2           -31.6262870173       12.2681927546      -11.1111415458  SOLV      2619            0.0000000000
      7976      2630  TIP3      H1            -30.7105142799       12.4031109871      -11.4372867681  SOLV      2619            0.0000000000
      7977      2630  TIP3      H2            -31.8483395040       11.4429396856      -11.5907091199  SOLV      2619            0.0000000000
      7978      2631  TIP3      OH2           -24.3041192058       13.4153611878      -10.0760325401  SOLV      2620            0.0000000000
      7979      2631  TIP3      H1            -24.3891683630       12.4403238687      -10.1992945419  SOLV      2620            0.0000000000
      7980      2631  TIP3      H2            -24.7529798411       13.7350829930      -10.8843371571  SOLV      2620            0.0000000000
      7981      2632  TIP3      OH2           -32.1780501166       -1.5463895602        7.9920345692  SOLV      2621            0.0000000000
      7982      2632  TIP3      H1            -32.1948249071       -2.4740664169        8.2415584115  SOLV      2621            0.0000000000
      7983      2632  TIP3      H2            -31.2496349923       -1.2960413048        8.1979167155  SOLV      2621            0.0000000000
      7984      2633  TIP3      OH2           -29.5816635869       -1.3688896255        8.8336044701  SOLV      2622            0.0000000000
      7985      2633  TIP3      H1            -28.7644957806       -1.6036495079        8.3590046326  SOLV      2622            0.0000000000
      7986      2633  TIP3      H2            -29.5665181638       -1.9995352801        9.5714384106  SOLV      2622            0.0000000000
      7987      2634  TIP3      OH2           -22.1008774104       14.8155818504        1.8035070309  SOLV      2623            0.0000000000
      7988      2634  TIP3      H1            -22.8746172596       14.5230939400        1.2782653647  SOLV      2623            0.0000000000
      7989      2634  TIP3      H2            -22.2750242217       15.7775905240        1.8454640190  SOLV      2623            0.0000000000
      7990      2635  TIP3      OH2            -9.3595994633        8.6204210142      -10.6313644420  SOLV      2624            0.0000000000
      7991      2635  TIP3      H1             -9.7032474240        9.5060956452      -10.8710146904  SOLV      2624            0.0000000000
      7992      2635  TIP3      H2            -10.1169901876        8.0650178566      -10.8833373041  SOLV      2624            0.0000000000
      7993      2636  TIP3      OH2            -9.3952370619        8.5613730757       -6.6457717580  SOLV      2625            0.0000000000
      7994      2636  TIP3      H1             -9.0054205025        8.3080270824       -5.7898775057  SOLV      2625            0.0000000000
      7995      2636  TIP3      H2             -9.8009708431        7.7180338089       -6.9246438887  SOLV      2625            0.0000000000
      7996      2637  TIP3      OH2           -16.4459992161        7.4784780616       -3.0195091136  SOLV      2626            0.0000000000
      7997      2637  TIP3      H1            -16.1366538335        6.8068976275       -2.3803686989  SOLV      2626            0.0000000000
      7998      2637  TIP3      H2            -15.6054722842        7.8644042514       -3.3055383489  SOLV      2626            0.0000000000
      7999      2638  TIP3      OH2            -6.9081225130       11.6153977198       -9.8967225509  SOLV      2627            0.0000000000
      8000      2638  TIP3      H1             -7.1099427398       10.9254776641       -9.2490446568  SOLV      2627            0.0000000000
      8001      2638  TIP3      H2             -6.6310248422       12.3556338785       -9.3323628077  SOLV      2627            0.0000000000
      8002      2639  TIP3      OH2           -16.6502892956       11.6025686037       -5.8663238619  SOLV      2628            0.0000000000
      8003      2639  TIP3      H1            -16.7500904443       10.6268260107       -5.8685010070  SOLV      2628            0.0000000000
      8004      2639  TIP3      H2            -15.6831751510       11.6795931991       -5.9614480128  SOLV      2628            0.0000000000
      8005      2640  TIP3      OH2           -19.6293547195        3.5935659902       -8.0672404014  SOLV      2629            0.0000000000
      8006      2640  TIP3      H1            -20.0850188165        4.4268895559       -7.8598312092  SOLV      2629            0.0000000000
      8007      2640  TIP3      H2            -20.3503830088        3.1029938316       -8.4977753334  SOLV      2629            0.0000000000
      8008      2641  TIP3      OH2           -19.0533545220        6.4856250293       -6.2053512837  SOLV      2630            0.0000000000
      8009      2641  TIP3      H1            -18.5376967112        5.7145013094       -5.8762816192  SOLV      2630            0.0000000000
      8010      2641  TIP3      H2            -18.4192817516        6.9067213501       -6.7992769790  SOLV      2630            0.0000000000
      8011      2642  TIP3      OH2           -10.3662491291       16.2289615551       -9.7220321465  SOLV      2631            0.0000000000
      8012      2642  TIP3      H1             -9.9869720141       15.5026329048      -10.2603534014  SOLV      2631            0.0000000000
      8013      2642  TIP3      H2            -10.5427652371       15.7831239487       -8.8884386544  SOLV      2631            0.0000000000
      8014      2643  TIP3      OH2           -11.4250194893       10.8224329516       -6.2746299180  SOLV      2632            0.0000000000
      8015      2643  TIP3      H1            -11.0140741728       10.0370999678       -6.6770409175  SOLV      2632            0.0000000000
      8016      2643  TIP3      H2            -10.6057572705       11.3026074621       -6.0296111087  SOLV      2632            0.0000000000
      8017      2644  TIP3      OH2            -1.3052828474        4.0609072903       -6.3036065913  SOLV      2633            0.0000000000
      8018      2644  TIP3      H1             -0.9796385270        4.8797574452       -5.8872523346  SOLV      2633            0.0000000000
      8019      2644  TIP3      H2             -1.0304562099        4.1909714783       -7.2255188834  SOLV      2633            0.0000000000
      8020      2645  TIP3      OH2            -7.2188143730        5.8384851158       -5.9978878208  SOLV      2634            0.0000000000
      8021      2645  TIP3      H1             -6.8433206858        4.9592239079       -5.7955097244  SOLV      2634            0.0000000000
      8022      2645  TIP3      H2             -7.6049030225        5.6688981999       -6.8799285854  SOLV      2634            0.0000000000
      8023      2646  TIP3      OH2           -13.9032099364        2.4531977078       -6.3173730884  SOLV      2635            0.0000000000
      8024      2646  TIP3      H1            -14.0738685103        3.1584232951       -6.9728673121  SOLV      2635            0.0000000000
      8025      2646  TIP3      H2            -14.3788306228        1.7027311391       -6.7285700660  SOLV      2635            0.0000000000
      8026      2647  TIP3      OH2            -6.9252456451        3.3107694702      -10.1249832446  SOLV      2636            0.0000000000
      8027      2647  TIP3      H1             -6.2269636251        3.1916600956       -9.4380194480  SOLV      2636            0.0000000000
      8028      2647  TIP3      H2             -6.3913127405        3.6876496593      -10.8460358823  SOLV      2636            0.0000000000
      8029      2648  TIP3      OH2           -17.5525023162        4.4229187406       -5.2060941168  SOLV      2637            0.0000000000
      8030      2648  TIP3      H1            -16.7169362978        4.2232781189       -4.7385635558  SOLV      2637            0.0000000000
      8031      2648  TIP3      H2            -17.4121450171        3.8917100172       -6.0189728253  SOLV      2637            0.0000000000
      8032      2649  TIP3      OH2           -13.2226483857        6.4281867599       -7.1853085248  SOLV      2638            0.0000000000
      8033      2649  TIP3      H1            -12.2615090904        6.2342449698       -7.1376582411  SOLV      2638            0.0000000000
      8034      2649  TIP3      H2            -13.5762587433        5.5818327736       -7.5358128118  SOLV      2638            0.0000000000
      8035      2650  TIP3      OH2            -0.5542355674        6.1501903668       -4.5509349936  SOLV      2639            0.0000000000
      8036      2650  TIP3      H1             -1.3207675750        6.6994296502       -4.8140487612  SOLV      2639            0.0000000000
      8037      2650  TIP3      H2             -0.9436567514        5.7294349477       -3.7651952950  SOLV      2639            0.0000000000
      8038      2651  TIP3      OH2           -14.0895243871        2.1188735756       -1.8814424881  SOLV      2640            0.0000000000
      8039      2651  TIP3      H1            -14.5475440649        2.5435763707       -2.6241543917  SOLV      2640            0.0000000000
      8040      2651  TIP3      H2            -14.5145229960        2.5309955738       -1.1142379458  SOLV      2640            0.0000000000
      8041      2652  TIP3      OH2           -10.4798545495       10.8011305900      -11.9402675295  SOLV      2641            0.0000000000
      8042      2652  TIP3      H1            -10.9298079461       10.6310961336      -12.7799808147  SOLV      2641            0.0000000000
      8043      2652  TIP3      H2            -10.9600640668       11.6002251520      -11.6329384302  SOLV      2641            0.0000000000
      8044      2653  TIP3      OH2           -12.8680345368       10.0046533009       -4.0600129242  SOLV      2642            0.0000000000
      8045      2653  TIP3      H1            -13.4631354941       10.7047501585       -3.7117793131  SOLV      2642            0.0000000000
      8046      2653  TIP3      H2            -12.4200621077       10.4689538193       -4.7970060667  SOLV      2642            0.0000000000
      8047      2654  TIP3      OH2            -4.9359421444        3.4301110386       -8.2996650652  SOLV      2643            0.0000000000
      8048      2654  TIP3      H1             -5.0932003632        2.9451133153       -7.4802808461  SOLV      2643            0.0000000000
      8049      2654  TIP3      H2             -4.4134439964        4.1962783256       -7.9901821630  SOLV      2643            0.0000000000
      8050      2655  TIP3      OH2           -15.2218972056        3.3838176326       -4.1136380302  SOLV      2644            0.0000000000
      8051      2655  TIP3      H1            -14.5824574449        4.0901979521       -3.8655729949  SOLV      2644            0.0000000000
      8052      2655  TIP3      H2            -14.7086210290        2.9581876640       -4.8413859033  SOLV      2644            0.0000000000
      8053      2656  TIP3      OH2           -14.5481215736       12.0104515702       -3.0373172327  SOLV      2645            0.0000000000
      8054      2656  TIP3      H1            -14.8106828622       12.8823201247       -3.3968321780  SOLV      2645            0.0000000000
      8055      2656  TIP3      H2            -15.3429326162       11.8188326595       -2.4957324478  SOLV      2645            0.0000000000
      8056      2657  TIP3      OH2           -20.6987208144        8.8767893375      -10.6579048739  SOLV      2646            0.0000000000
      8057      2657  TIP3      H1            -21.0735743775        9.1235330265      -11.5240724406  SOLV      2646            0.0000000000
      8058      2657  TIP3      H2            -20.3869879695        9.7449953073      -10.3235507972  SOLV      2646            0.0000000000
      8059      2658  TIP3      OH2            -6.2648275605       14.0598903579       -8.2748829012  SOLV      2647            0.0000000000
      8060      2658  TIP3      H1             -7.1605229231       13.9600989140       -7.8754794886  SOLV      2647            0.0000000000
      8061      2658  TIP3      H2             -6.3607039778       14.9220820867       -8.7239540385  SOLV      2647            0.0000000000
      8062      2659  TIP3      OH2            -3.4444063537        3.2280447173       -4.5927725457  SOLV      2648            0.0000000000
      8063      2659  TIP3      H1             -4.3132588958        3.3030130218       -5.0123867265  SOLV      2648            0.0000000000
      8064      2659  TIP3      H2             -2.8262527553        3.4624528652       -5.3153985947  SOLV      2648            0.0000000000
      8065      2660  TIP3      OH2           -10.6942409006       -0.4845789840       -5.1220541426  SOLV      2649            0.0000000000
      8066      2660  TIP3      H1            -10.4483037426       -1.3014430037       -4.6596074711  SOLV      2649            0.0000000000
      8067      2660  TIP3      H2            -11.3509908007       -0.1115588566       -4.4877312701  SOLV      2649            0.0000000000
      8068      2661  TIP3      OH2            -9.2890897706       14.4836004130      -11.5822340941  SOLV      2650            0.0000000000
      8069      2661  TIP3      H1             -8.7743576704       13.6611378825      -11.7530682735  SOLV      2650            0.0000000000
      8070      2661  TIP3      H2             -8.6781978732       15.1396182947      -11.9848434898  SOLV      2650            0.0000000000
      8071      2662  TIP3      OH2            -7.8272862985       12.3145367543      -12.4112683728  SOLV      2651            0.0000000000
      8072      2662  TIP3      H1             -8.3413285986       11.5328654632      -12.6569424574  SOLV      2651            0.0000000000
      8073      2662  TIP3      H2             -7.4097867521       12.0123357734      -11.5739272972  SOLV      2651            0.0000000000
      8074      2663  TIP3      OH2            -4.0051711287       13.1241751849       -4.8309170529  SOLV      2652            0.0000000000
      8075      2663  TIP3      H1             -4.1470545067       12.3516604024       -5.4207488740  SOLV      2652            0.0000000000
      8076      2663  TIP3      H2             -4.1906452015       13.8719715912       -5.4368038566  SOLV      2652            0.0000000000
      8077      2664  TIP3      OH2           -11.0846432249        7.0715479642      -12.2137828969  SOLV      2653            0.0000000000
      8078      2664  TIP3      H1            -11.8932299049        7.5874299583      -12.4112614115  SOLV      2653            0.0000000000
      8079      2664  TIP3      H2            -10.6322208159        7.0705649642      -13.0751955371  SOLV      2653            0.0000000000
      8080      2665  TIP3      OH2           -11.5228194199        4.9917530336      -15.1396263154  SOLV      2654            0.0000000000
      8081      2665  TIP3      H1            -10.8508627707        5.4683343501      -14.6200426800  SOLV      2654            0.0000000000
      8082      2665  TIP3      H2            -10.9562583940        4.3491874062      -15.6107407138  SOLV      2654            0.0000000000
      8083      2666  TIP3      OH2            -2.0403452179        9.6090869849       -6.3346810235  SOLV      2655            0.0000000000
      8084      2666  TIP3      H1             -2.8977575445       10.0880800176       -6.3141369821  SOLV      2655            0.0000000000
      8085      2666  TIP3      H2             -1.7576905974        9.7988040436       -7.2549036411  SOLV      2655            0.0000000000
      8086      2667  TIP3      OH2            -7.5872728258        7.9170203164      -12.5666539821  SOLV      2656            0.0000000000
      8087      2667  TIP3      H1             -8.1425066149        8.1711979003      -11.7904859918  SOLV      2656            0.0000000000
      8088      2667  TIP3      H2             -6.7594547850        7.6571433476      -12.1119009861  SOLV      2656            0.0000000000
      8089      2668  TIP3      OH2            -5.2663766741        8.2546988457       -3.3772096501  SOLV      2657            0.0000000000
      8090      2668  TIP3      H1             -5.3194523983        9.0950833218       -2.8877277955  SOLV      2657            0.0000000000
      8091      2668  TIP3      H2             -6.1404873159        8.2536328123       -3.8231180182  SOLV      2657            0.0000000000
      8092      2669  TIP3      OH2           -15.2753576433        7.8643122964       -8.3649574039  SOLV      2658            0.0000000000
      8093      2669  TIP3      H1            -15.6657457505        7.2725278686       -9.0428797519  SOLV      2658            0.0000000000
      8094      2669  TIP3      H2            -14.5245972231        7.3264780505       -8.0323667684  SOLV      2658            0.0000000000
      8095      2670  TIP3      OH2           -13.9975737824       11.9965114210       -6.9124204168  SOLV      2659            0.0000000000
      8096      2670  TIP3      H1            -14.1807259545       11.6723365331       -7.8066904006  SOLV      2659            0.0000000000
      8097      2670  TIP3      H2            -13.1080831646       11.6254674807       -6.7366436198  SOLV      2659            0.0000000000
      8098      2671  TIP3      OH2           -14.0485282914        7.6162218053       -4.7851778150  SOLV      2660            0.0000000000
      8099      2671  TIP3      H1            -13.6809629307        7.3025125780       -5.6411166784  SOLV      2660            0.0000000000
      8100      2671  TIP3      H2            -13.5408055782        8.4419185893       -4.6295386126  SOLV      2660            0.0000000000
      8101      2672  TIP3      OH2            -8.6528729956       13.9803645246       -7.0341755056  SOLV      2661            0.0000000000
      8102      2672  TIP3      H1             -8.8000678604       14.7611192919       -6.4731959080  SOLV      2661            0.0000000000
      8103      2672  TIP3      H2             -8.8121659644       13.2325205016       -6.4219495805  SOLV      2661            0.0000000000
      8104      2673  TIP3      OH2           -12.5304576286       13.1418515640       -1.5503176483  SOLV      2662            0.0000000000
      8105      2673  TIP3      H1            -13.1504029905       13.7621163002       -1.1098944369  SOLV      2662            0.0000000000
      8106      2673  TIP3      H2            -13.1669616377       12.6160308407       -2.0799683290  SOLV      2662            0.0000000000
      8107      2674  TIP3      OH2            -9.2223598366        6.4924677186      -14.2611897497  SOLV      2663            0.0000000000
      8108      2674  TIP3      H1             -8.6230500407        7.0931774520      -13.7608961988  SOLV      2663            0.0000000000
      8109      2674  TIP3      H2             -8.9654340924        6.7040479283      -15.1897419825  SOLV      2663            0.0000000000
      8110      2675  TIP3      OH2           -14.9551210508        8.6978772491       -0.4319337940  SOLV      2664            0.0000000000
      8111      2675  TIP3      H1            -14.9557149316        9.6130594566       -0.0889534283  SOLV      2664            0.0000000000
      8112      2675  TIP3      H2            -15.9140148600        8.5061868065       -0.4321442890  SOLV      2664            0.0000000000
      8113      2676  TIP3      OH2           -11.7478879118       13.2400672680      -11.5185630551  SOLV      2665            0.0000000000
      8114      2676  TIP3      H1            -10.9438017996       13.7819015871      -11.4525103083  SOLV      2665            0.0000000000
      8115      2676  TIP3      H2            -12.3619336663       13.8272194833      -11.9824730453  SOLV      2665            0.0000000000
      8116      2677  TIP3      OH2           -14.6008996670       14.7915156214       -0.7004140304  SOLV      2666            0.0000000000
      8117      2677  TIP3      H1            -14.9330565019       14.8298651468       -1.6162155642  SOLV      2666            0.0000000000
      8118      2677  TIP3      H2            -15.4186459270       14.5863738963       -0.1914016957  SOLV      2666            0.0000000000
      8119      2678  TIP3      OH2            -4.0626800619       -1.1469504715      -13.7595020721  SOLV      2667            0.0000000000
      8120      2678  TIP3      H1             -4.8739777903       -0.9373126853      -13.2502402059  SOLV      2667            0.0000000000
      8121      2678  TIP3      H2             -3.9338579416       -0.3146753899      -14.2579145009  SOLV      2667            0.0000000000
      8122      2679  TIP3      OH2           -16.5906831037        6.3289472222      -10.3731918267  SOLV      2668            0.0000000000
      8123      2679  TIP3      H1            -17.3190311467        6.7466827709      -10.8788367168  SOLV      2668            0.0000000000
      8124      2679  TIP3      H2            -16.9442376118        5.4492820290      -10.2055231371  SOLV      2668            0.0000000000
      8125      2680  TIP3      OH2            -6.0476297493       12.5417167898      -18.2966580148  SOLV      2669            0.0000000000
      8126      2680  TIP3      H1             -5.9769031161       13.5108066482      -18.4297334541  SOLV      2669            0.0000000000
      8127      2680  TIP3      H2             -5.1177114694       12.2611243866      -18.4322704107  SOLV      2669            0.0000000000
      8128      2681  TIP3      OH2           -18.8258137226       10.1767952356       -1.2356209441  SOLV      2670            0.0000000000
      8129      2681  TIP3      H1            -19.4923631433        9.9664878943       -1.9221251914  SOLV      2670            0.0000000000
      8130      2681  TIP3      H2            -18.4413681238        9.2998395472       -1.0318961479  SOLV      2670            0.0000000000
      8131      2682  TIP3      OH2           -20.2614560090       12.0542271161       -4.8988784271  SOLV      2671            0.0000000000
      8132      2682  TIP3      H1            -19.3013922130       12.0284352104       -5.0120790796  SOLV      2671            0.0000000000
      8133      2682  TIP3      H2            -20.3727219206       12.8566605812       -4.3660929234  SOLV      2671            0.0000000000
      8134      2683  TIP3      OH2            -1.6409730512       16.6346616686       -4.3320084537  SOLV      2672            0.0000000000
      8135      2683  TIP3      H1             -1.6387458811       15.6690664978       -4.1835325686  SOLV      2672            0.0000000000
      8136      2683  TIP3      H2             -2.4775447049       16.8753999261       -3.8726151135  SOLV      2672            0.0000000000
      8137      2684  TIP3      OH2           -10.5758782368       14.4466693689       -2.9934864295  SOLV      2673            0.0000000000
      8138      2684  TIP3      H1            -10.6233738895       15.3773996777       -2.6845435815  SOLV      2673            0.0000000000
      8139      2684  TIP3      H2            -11.2894957852       14.0371437260       -2.4558320402  SOLV      2673            0.0000000000
      8140      2685  TIP3      OH2           -12.8914267320       15.7089848757      -13.4380082463  SOLV      2674            0.0000000000
      8141      2685  TIP3      H1            -13.3528041692       15.4739549021      -14.2719453840  SOLV      2674            0.0000000000
      8142      2685  TIP3      H2            -13.3006008793       16.5597244915      -13.2060677452  SOLV      2674            0.0000000000
      8143      2686  TIP3      OH2           -18.5687077066       14.2043033505       -9.6266962400  SOLV      2675            0.0000000000
      8144      2686  TIP3      H1            -18.1052064602       14.1095841012       -8.7647718708  SOLV      2675            0.0000000000
      8145      2686  TIP3      H2            -19.0771469690       13.3799153316       -9.6605555729  SOLV      2675            0.0000000000
      8146      2687  TIP3      OH2           -10.8895703258       14.7913766351      -17.1500975067  SOLV      2676            0.0000000000
      8147      2687  TIP3      H1            -10.3248668869       14.0547386724      -17.4702289987  SOLV      2676            0.0000000000
      8148      2687  TIP3      H2            -10.5917938903       14.8804124289      -16.2199720508  SOLV      2676            0.0000000000
      8149      2688  TIP3      OH2           -10.4087755485       15.2506598451      -14.4429741359  SOLV      2677            0.0000000000
      8150      2688  TIP3      H1            -11.3073576919       15.3485004896      -14.0501935025  SOLV      2677            0.0000000000
      8151      2688  TIP3      H2             -9.9342821621       14.8381196557      -13.7054386460  SOLV      2677            0.0000000000
      8152      2689  TIP3      OH2            -2.6826457617        7.8067077377       -1.6378209398  SOLV      2678            0.0000000000
      8153      2689  TIP3      H1             -3.5333238899        7.9451696760       -2.0808115730  SOLV      2678            0.0000000000
      8154      2689  TIP3      H2             -2.5230418890        6.8599918182       -1.8308181427  SOLV      2678            0.0000000000
      8155      2690  TIP3      OH2           -16.7586549425       11.9850499530       -1.4170174432  SOLV      2679            0.0000000000
      8156      2690  TIP3      H1            -16.2794778641       11.8215660630       -0.5809356563  SOLV      2679            0.0000000000
      8157      2690  TIP3      H2            -17.5101212615       11.3600997545       -1.3437767341  SOLV      2679            0.0000000000
      8158      2691  TIP3      OH2           -12.8034663893        0.3071197241       -3.5572885463  SOLV      2680            0.0000000000
      8159      2691  TIP3      H1            -13.7365240432        0.0435536072       -3.6310320864  SOLV      2680            0.0000000000
      8160      2691  TIP3      H2            -12.8711850990        1.0174940546       -2.8917777200  SOLV      2680            0.0000000000
      8161      2692  TIP3      OH2            -5.0405511383        5.7742781478       -2.1524082820  SOLV      2681            0.0000000000
      8162      2692  TIP3      H1             -5.5461990364        6.0241474344       -1.3750480506  SOLV      2681            0.0000000000
      8163      2692  TIP3      H2             -5.2473638270        6.5005122463       -2.7713240080  SOLV      2681            0.0000000000
      8164      2693  TIP3      OH2            -8.4572964082        6.8554723473      -16.8416526028  SOLV      2682            0.0000000000
      8165      2693  TIP3      H1             -8.7983194581        6.6611002386      -17.7346861463  SOLV      2682            0.0000000000
      8166      2693  TIP3      H2             -7.6207501590        7.3117310394      -17.0559109553  SOLV      2682            0.0000000000
      8167      2694  TIP3      OH2           -11.3275738264        0.6767154090      -13.7786401719  SOLV      2683            0.0000000000
      8168      2694  TIP3      H1            -11.6480726529        0.6645032369      -12.8544027159  SOLV      2683            0.0000000000
      8169      2694  TIP3      H2            -11.7277106996       -0.1550481116      -14.1006030844  SOLV      2683            0.0000000000
      8170      2695  TIP3      OH2           -13.4962826510        5.3372637769       -3.3192997569  SOLV      2684            0.0000000000
      8171      2695  TIP3      H1            -13.9744207535        5.5426963598       -2.4939787712  SOLV      2684            0.0000000000
      8172      2695  TIP3      H2            -13.6232475024        6.1626231739       -3.8314558243  SOLV      2684            0.0000000000
      8173      2696  TIP3      OH2           -14.6484129308        4.2721038673       -8.2050543086  SOLV      2685            0.0000000000
      8174      2696  TIP3      H1            -15.5579577157        3.9734794612       -7.9916062686  SOLV      2685            0.0000000000
      8175      2696  TIP3      H2            -14.5206878994        3.8291380247       -9.0736247516  SOLV      2685            0.0000000000
      8176      2697  TIP3      OH2            -9.7285990171        5.0689662555      -10.8586399169  SOLV      2686            0.0000000000
      8177      2697  TIP3      H1            -10.2339149469        5.7812227906      -11.3075906282  SOLV      2686            0.0000000000
      8178      2697  TIP3      H2             -9.1761129720        4.7257848963      -11.5860699783  SOLV      2686            0.0000000000
      8179      2698  TIP3      OH2            -7.8748122906        7.7694073781       -0.0635917100  SOLV      2687            0.0000000000
      8180      2698  TIP3      H1             -8.1955543212        7.1234740422        0.6091495066  SOLV      2687            0.0000000000
      8181      2698  TIP3      H2             -6.9661152430        7.9295109027        0.2606102946  SOLV      2687            0.0000000000
      8182      2699  TIP3      OH2            -8.0807415762        5.3394248803       -8.5621316540  SOLV      2688            0.0000000000
      8183      2699  TIP3      H1             -8.7831320999        5.5799891050       -9.1984975453  SOLV      2688            0.0000000000
      8184      2699  TIP3      H2             -7.7583569528        4.5268270084       -9.0023665781  SOLV      2688            0.0000000000
      8185      2700  TIP3      OH2           -15.2954797139        5.6746732784       -1.1929638041  SOLV      2689            0.0000000000
      8186      2700  TIP3      H1            -14.8283325782        6.2452734997       -0.5659961785  SOLV      2689            0.0000000000
      8187      2700  TIP3      H2            -15.3887873827        4.8422188523       -0.6865320784  SOLV      2689            0.0000000000
      8188      2701  TIP3      OH2           -14.7619497167        0.4309058248      -14.1420888206  SOLV      2690            0.0000000000
      8189      2701  TIP3      H1            -14.8385165465        0.4144585090      -13.1650257497  SOLV      2690            0.0000000000
      8190      2701  TIP3      H2            -15.5374598950        0.9703774532      -14.3760297411  SOLV      2690            0.0000000000
      8191      2702  TIP3      OH2           -19.3032985714        0.8250009988       -5.3937422532  SOLV      2691            0.0000000000
      8192      2702  TIP3      H1            -18.5898010859        1.1814381345       -4.8255290232  SOLV      2691            0.0000000000
      8193      2702  TIP3      H2            -18.8346768722        0.5570695687       -6.1943802005  SOLV      2691            0.0000000000
      8194      2703  TIP3      OH2           -19.7451093918        0.6389967853      -10.2578090621  SOLV      2692            0.0000000000
      8195      2703  TIP3      H1            -19.2586408548        1.0114016201      -11.0245903749  SOLV      2692            0.0000000000
      8196      2703  TIP3      H2            -20.3177231668        1.3983320565      -10.0440275105  SOLV      2692            0.0000000000
      8197      2704  TIP3      OH2            -7.9565533472        7.8009961682       -4.3172043334  SOLV      2693            0.0000000000
      8198      2704  TIP3      H1             -7.6644308304        7.0864483652       -4.9323871505  SOLV      2693            0.0000000000
      8199      2704  TIP3      H2             -8.3087947283        7.2564852590       -3.5809985883  SOLV      2693            0.0000000000
      8200      2705  TIP3      OH2           -11.3064100374        2.5299537990       -7.5465998732  SOLV      2694            0.0000000000
      8201      2705  TIP3      H1            -12.0673097173        2.4335827832       -6.9408541648  SOLV      2694            0.0000000000
      8202      2705  TIP3      H2            -10.5669214887        2.2417131888       -6.9791689624  SOLV      2694            0.0000000000
      8203      2706  TIP3      OH2           -16.9952557730        3.0217240465       -7.5186362288  SOLV      2695            0.0000000000
      8204      2706  TIP3      H1            -17.9351879681        3.0508370555       -7.8102266666  SOLV      2695            0.0000000000
      8205      2706  TIP3      H2            -16.7183438793        2.1086965839       -7.7332759914  SOLV      2695            0.0000000000
      8206      2707  TIP3      OH2           -14.3827905423        2.9324583569      -10.5706855768  SOLV      2696            0.0000000000
      8207      2707  TIP3      H1            -13.4330489844        3.0929766518      -10.7416428179  SOLV      2696            0.0000000000
      8208      2707  TIP3      H2            -14.8158910823        3.1758488121      -11.4185171908  SOLV      2696            0.0000000000
      8209      2708  TIP3      OH2            -6.4480526225        3.2273865987       -5.4940069641  SOLV      2697            0.0000000000
      8210      2708  TIP3      H1             -6.8401945564        3.3150275439       -4.6017424986  SOLV      2697            0.0000000000
      8211      2708  TIP3      H2             -7.0202260115        2.5417569920       -5.8750914939  SOLV      2697            0.0000000000
      8212      2709  TIP3      OH2           -15.8500988841        3.3165588768      -12.8608155149  SOLV      2698            0.0000000000
      8213      2709  TIP3      H1            -16.5423942225        2.8607890795      -13.3708086506  SOLV      2698            0.0000000000
      8214      2709  TIP3      H2            -15.3160656424        3.7043666561      -13.5852238518  SOLV      2698            0.0000000000
      8215      2710  TIP3      OH2            -4.6671238568       20.0895598274       -3.3190929680  SOLV      2699            0.0000000000
      8216      2710  TIP3      H1             -4.6977249845       20.3314509235       -4.2611138280  SOLV      2699            0.0000000000
      8217      2710  TIP3      H2             -3.8638373847       20.5598816579       -3.0202458151  SOLV      2699            0.0000000000
      8218      2711  TIP3      OH2           -15.1684141678       11.2017488719        0.8510582988  SOLV      2700            0.0000000000
      8219      2711  TIP3      H1            -14.3663793833       11.4991114248        1.3228343811  SOLV      2700            0.0000000000
      8220      2711  TIP3      H2            -15.8181457798       11.2099961347        1.5807766756  SOLV      2700            0.0000000000
      8221      2712  TIP3      OH2           -10.5216129276        5.9132861943       -6.7122052021  SOLV      2701            0.0000000000
      8222      2712  TIP3      H1             -9.9109279845        5.2523188988       -7.0626384800  SOLV      2701            0.0000000000
      8223      2712  TIP3      H2            -10.6215936456        5.5952898275       -5.7807506409  SOLV      2701            0.0000000000
      8224      2713  TIP3      OH2           -15.4055644444        0.5959501964       -7.7473516114  SOLV      2702            0.0000000000
      8225      2713  TIP3      H1            -15.7385248575       -0.1729621842       -7.2335187294  SOLV      2702            0.0000000000
      8226      2713  TIP3      H2            -14.7839461441        0.1642771908       -8.3466235000  SOLV      2702            0.0000000000
      8227      2714  TIP3      OH2           -10.7606137620        5.1075930038       -4.1395983128  SOLV      2703            0.0000000000
      8228      2714  TIP3      H1            -11.6140090897        4.9089592636       -3.7150455960  SOLV      2703            0.0000000000
      8229      2714  TIP3      H2            -10.1662456622        5.2219868933       -3.3812163251  SOLV      2703            0.0000000000
      8230      2715  TIP3      OH2           -13.3766923932        8.5744456500      -12.7554257744  SOLV      2704            0.0000000000
      8231      2715  TIP3      H1            -14.1260884414        7.9580194819      -12.9009496125  SOLV      2704            0.0000000000
      8232      2715  TIP3      H2            -13.5973277330        8.9268701225      -11.8583411533  SOLV      2704            0.0000000000
      8233      2716  TIP3      OH2            -4.4301929043       10.9687176313       -6.5056648927  SOLV      2705            0.0000000000
      8234      2716  TIP3      H1             -4.1960081792       11.4676797679       -7.3157306285  SOLV      2705            0.0000000000
      8235      2716  TIP3      H2             -5.2746898479       10.5380510526       -6.7639686117  SOLV      2705            0.0000000000
      8236      2717  TIP3      OH2            -8.8521390020        1.7384752557      -14.1642601275  SOLV      2706            0.0000000000
      8237      2717  TIP3      H1             -9.7981801971        1.5118730387      -13.9999728472  SOLV      2706            0.0000000000
      8238      2717  TIP3      H2             -8.7748379941        2.6548205162      -13.8313031770  SOLV      2706            0.0000000000
      8239      2718  TIP3      OH2            -9.3761420786       11.8242898410       -2.7950006602  SOLV      2707            0.0000000000
      8240      2718  TIP3      H1             -9.1150343362       11.6073500942       -1.8929547566  SOLV      2707            0.0000000000
      8241      2718  TIP3      H2             -9.7786053269       12.7047835143       -2.7046634466  SOLV      2707            0.0000000000
      8242      2719  TIP3      OH2            -8.1517575352        4.1930344045      -13.0547331650  SOLV      2708            0.0000000000
      8243      2719  TIP3      H1             -7.1900161049        4.2613189637      -12.8928728641  SOLV      2708            0.0000000000
      8244      2719  TIP3      H2             -8.3432290770        5.0094211734      -13.5558519599  SOLV      2708            0.0000000000
      8245      2720  TIP3      OH2           -16.4558843702        8.8204544557       -6.0431146325  SOLV      2709            0.0000000000
      8246      2720  TIP3      H1            -16.0789618393        8.5615879010       -6.9099633883  SOLV      2709            0.0000000000
      8247      2720  TIP3      H2            -15.9171082842        8.2881651414       -5.4387209950  SOLV      2709            0.0000000000
      8248      2721  TIP3      OH2           -11.9572042994       10.1304879320      -14.5102117537  SOLV      2710            0.0000000000
      8249      2721  TIP3      H1            -12.4569388436       10.9795343151      -14.4670108835  SOLV      2710            0.0000000000
      8250      2721  TIP3      H2            -12.4994496362        9.5621091988      -13.9205609871  SOLV      2710            0.0000000000
      8251      2722  TIP3      OH2           -17.6484579965        8.0536117876        0.1593057999  SOLV      2711            0.0000000000
      8252      2722  TIP3      H1            -17.4598544665        7.8683637574        1.0977477052  SOLV      2711            0.0000000000
      8253      2722  TIP3      H2            -18.3204975847        7.3808871800       -0.0457945745  SOLV      2711            0.0000000000
      8254      2723  TIP3      OH2           -10.3269729382        9.1682393719        0.3858865175  SOLV      2712            0.0000000000
      8255      2723  TIP3      H1            -10.9380843677        8.6734563074       -0.1825777403  SOLV      2712            0.0000000000
      8256      2723  TIP3      H2             -9.4696045670        8.8248011403        0.0640948110  SOLV      2712            0.0000000000
      8257      2724  TIP3      OH2            -7.8106577703       14.4489653448       -3.8230924165  SOLV      2713            0.0000000000
      8258      2724  TIP3      H1             -8.7728641082       14.3946507537       -3.6895735746  SOLV      2713            0.0000000000
      8259      2724  TIP3      H2             -7.5446533882       14.9504726851       -3.0233509313  SOLV      2713            0.0000000000
      8260      2725  TIP3      OH2            -3.7307057835        5.1354377969      -14.7482297647  SOLV      2714            0.0000000000
      8261      2725  TIP3      H1             -4.3485821398        4.6928265347      -15.3767498499  SOLV      2714            0.0000000000
      8262      2725  TIP3      H2             -3.7765782413        6.0370639710      -15.1347006620  SOLV      2714            0.0000000000
      8263      2726  TIP3      OH2            -1.5076428150       13.7516832203       -3.9482313709  SOLV      2715            0.0000000000
      8264      2726  TIP3      H1             -2.4829755776       13.6560311666       -4.0263204900  SOLV      2715            0.0000000000
      8265      2726  TIP3      H2             -1.2394674402       13.4343658321       -4.8399785711  SOLV      2715            0.0000000000
      8266      2727  TIP3      OH2            -6.6287365510       13.3147232164      -15.6034794922  SOLV      2716            0.0000000000
      8267      2727  TIP3      H1             -6.9703401501       12.6667160303      -14.9706280959  SOLV      2716            0.0000000000
      8268      2727  TIP3      H2             -6.5706749654       12.8063346009      -16.4312191263  SOLV      2716            0.0000000000
      8269      2728  TIP3      OH2            -6.7571277134        9.6018864927       -7.3598243762  SOLV      2717            0.0000000000
      8270      2728  TIP3      H1             -7.6831598920        9.3328540194       -7.2033852266  SOLV      2717            0.0000000000
      8271      2728  TIP3      H2             -6.4086425068        8.7891832683       -7.7804818786  SOLV      2717            0.0000000000
      8272      2729  TIP3      OH2           -15.4280713028       11.9065711267       -9.7070614460  SOLV      2718            0.0000000000
      8273      2729  TIP3      H1            -15.4606465721       12.7034556157      -10.2721119709  SOLV      2718            0.0000000000
      8274      2729  TIP3      H2            -16.3647653192       11.6994542650       -9.6260303139  SOLV      2718            0.0000000000
      8275      2730  TIP3      OH2           -19.8264244878        4.9079956855      -12.7267376027  SOLV      2719            0.0000000000
      8276      2730  TIP3      H1            -19.3536233914        5.7397168968      -12.5057639010  SOLV      2719            0.0000000000
      8277      2730  TIP3      H2            -20.5742849908        4.9562285561      -12.0915365991  SOLV      2719            0.0000000000
      8278      2731  TIP3      OH2           -14.1577220500        9.5188533257      -10.3376928278  SOLV      2720            0.0000000000
      8279      2731  TIP3      H1            -14.4747030098       10.4192704119      -10.1266986961  SOLV      2720            0.0000000000
      8280      2731  TIP3      H2            -14.4961652136        9.0114217256       -9.5768013304  SOLV      2720            0.0000000000
      8281      2732  TIP3      OH2           -12.7228524715       15.2807816253       -5.0566600352  SOLV      2721            0.0000000000
      8282      2732  TIP3      H1            -12.3187967077       16.0118561078       -5.5676157193  SOLV      2721            0.0000000000
      8283      2732  TIP3      H2            -11.9459243211       14.9177992649       -4.6023681105  SOLV      2721            0.0000000000
      8284      2733  TIP3      OH2           -16.2600159720       14.2261362417      -11.2344109323  SOLV      2722            0.0000000000
      8285      2733  TIP3      H1            -17.1288376620       14.3435202401      -10.8039038926  SOLV      2722            0.0000000000
      8286      2733  TIP3      H2            -15.9156170333       15.1480570288      -11.2043274519  SOLV      2722            0.0000000000
      8287      2734  TIP3      OH2            -8.8976314671       11.6749766834       -5.4713707473  SOLV      2723            0.0000000000
      8288      2734  TIP3      H1             -9.0055213535       11.6619179717       -4.4925719256  SOLV      2723            0.0000000000
      8289      2734  TIP3      H2             -8.1554393457       11.0667647127       -5.5884279818  SOLV      2723            0.0000000000
      8290      2735  TIP3      OH2            -9.1000982507       10.6245127408      -16.6347652923  SOLV      2724            0.0000000000
      8291      2735  TIP3      H1             -8.5746048563       10.3594454235      -15.8427143585  SOLV      2724            0.0000000000
      8292      2735  TIP3      H2             -9.9806908018       10.3052798112      -16.3789937220  SOLV      2724            0.0000000000
      8293      2736  TIP3      OH2            -6.3937556637       16.9506534489       -4.9491040387  SOLV      2725            0.0000000000
      8294      2736  TIP3      H1             -7.1807688170       16.3726821797       -4.9792300479  SOLV      2725            0.0000000000
      8295      2736  TIP3      H2             -6.5868304421       17.5768307590       -5.6803969176  SOLV      2725            0.0000000000
      8296      2737  TIP3      OH2            -5.7543919728       15.3114402904      -18.4677160714  SOLV      2726            0.0000000000
      8297      2737  TIP3      H1             -5.4039093406       16.0754419758      -18.9528623399  SOLV      2726            0.0000000000
      8298      2737  TIP3      H2             -6.5575983254       15.7223369755      -18.0839455620  SOLV      2726            0.0000000000
      8299      2738  TIP3      OH2           -15.5745545653        3.1952884190        0.2474365006  SOLV      2727            0.0000000000
      8300      2738  TIP3      H1            -16.5364555986        3.0529077386        0.2764224011  SOLV      2727            0.0000000000
      8301      2738  TIP3      H2            -15.2535430825        2.4957966511        0.8367418937  SOLV      2727            0.0000000000
      8302      2739  TIP3      OH2            -7.4880227335        9.8662869834      -14.5468520765  SOLV      2728            0.0000000000
      8303      2739  TIP3      H1             -7.5986336776        9.2422908358      -13.8015953760  SOLV      2728            0.0000000000
      8304      2739  TIP3      H2             -6.5126551932        9.8655943298      -14.6269613803  SOLV      2728            0.0000000000
      8305      2740  TIP3      OH2           -18.3664281083       13.9248828885       -3.4872221422  SOLV      2729            0.0000000000
      8306      2740  TIP3      H1            -17.8248213091       13.2120022674       -3.1122608997  SOLV      2729            0.0000000000
      8307      2740  TIP3      H2            -18.0822567997       14.6796839900       -2.9571877562  SOLV      2729            0.0000000000
      8308      2741  TIP3      OH2           -15.3286827810       10.2869606003      -16.6416544411  SOLV      2730            0.0000000000
      8309      2741  TIP3      H1            -15.2976395475        9.3328739887      -16.8364527991  SOLV      2730            0.0000000000
      8310      2741  TIP3      H2            -15.6426191347       10.2872545262      -15.7144348387  SOLV      2730            0.0000000000
      8311      2742  TIP3      OH2           -15.9946478406       10.4704078207      -13.9678140430  SOLV      2731            0.0000000000
      8312      2742  TIP3      H1            -15.2901048824       10.2612441680      -13.3436945335  SOLV      2731            0.0000000000
      8313      2742  TIP3      H2            -16.0376539177       11.4497902498      -13.9079347241  SOLV      2731            0.0000000000
      8314      2743  TIP3      OH2           -18.7360572564        7.3324094563      -11.8682984637  SOLV      2732            0.0000000000
      8315      2743  TIP3      H1            -19.3904071854        7.7974569086      -11.3046736817  SOLV      2732            0.0000000000
      8316      2743  TIP3      H2            -18.5863700379        8.0166478706      -12.5502694743  SOLV      2732            0.0000000000
      8317      2744  TIP3      OH2            -7.2845114340        3.7561295000       -2.8191322069  SOLV      2733            0.0000000000
      8318      2744  TIP3      H1             -6.3584150606        3.7701462261       -2.5428336246  SOLV      2733            0.0000000000
      8319      2744  TIP3      H2             -7.6385729203        2.9610604793       -2.3837126621  SOLV      2733            0.0000000000
      8320      2745  TIP3      OH2            -8.2976213576        1.1804695352      -11.2659579199  SOLV      2734            0.0000000000
      8321      2745  TIP3      H1             -8.4455442660        1.4520545648      -12.1878379879  SOLV      2734            0.0000000000
      8322      2745  TIP3      H2             -7.8917864250        1.9864129210      -10.8764116494  SOLV      2734            0.0000000000
      8323      2746  TIP3      OH2           -13.3880639884       12.4378328738      -14.3997361896  SOLV      2735            0.0000000000
      8324      2746  TIP3      H1            -14.2910923557       12.6814285762      -14.1180215747  SOLV      2735            0.0000000000
      8325      2746  TIP3      H2            -13.2007150847       13.1937556731      -14.9826954420  SOLV      2735            0.0000000000
      8326      2747  TIP3      OH2           -11.5686533993        3.0768124447      -10.2428759274  SOLV      2736            0.0000000000
      8327      2747  TIP3      H1            -10.9069782484        3.7829331196      -10.3988827182  SOLV      2736            0.0000000000
      8328      2747  TIP3      H2            -11.4715460919        2.9462961511       -9.2709338094  SOLV      2736            0.0000000000
      8329      2748  TIP3      OH2            -8.7438409532        6.1807448077       -2.2598111428  SOLV      2737            0.0000000000
      8330      2748  TIP3      H1             -8.4787347897        6.6297790003       -1.4343733915  SOLV      2737            0.0000000000
      8331      2748  TIP3      H2             -8.2597490007        5.3323020864       -2.2298734744  SOLV      2737            0.0000000000
      8332      2749  TIP3      OH2           -10.0335646631        0.2052154605       -9.2836991778  SOLV      2738            0.0000000000
      8333      2749  TIP3      H1             -9.8924191477        0.8350028144       -8.5550658580  SOLV      2738            0.0000000000
      8334      2749  TIP3      H2             -9.4188132039        0.5671880732       -9.9610538908  SOLV      2738            0.0000000000
      8335      2750  TIP3      OH2           -15.9987315793       13.2322653241      -13.8409980406  SOLV      2739            0.0000000000
      8336      2750  TIP3      H1            -16.5221882773       13.8441248011      -14.3893002288  SOLV      2739            0.0000000000
      8337      2750  TIP3      H2            -16.1078999258       13.6344352763      -12.9515875819  SOLV      2739            0.0000000000
      8338      2751  TIP3      OH2           -14.9093471481        0.2868787728      -11.3964598663  SOLV      2740            0.0000000000
      8339      2751  TIP3      H1            -14.9639689263        1.1664681262      -10.9736855302  SOLV      2740            0.0000000000
      8340      2751  TIP3      H2            -13.9481105847        0.1212443842      -11.2903040806  SOLV      2740            0.0000000000
      8341      2752  TIP3      OH2            -2.4246990844        5.1555215638       -2.6810829322  SOLV      2741            0.0000000000
      8342      2752  TIP3      H1             -3.3840274122        5.2484237969       -2.4876270605  SOLV      2741            0.0000000000
      8343      2752  TIP3      H2             -2.4549991509        4.2961674865       -3.1305553452  SOLV      2741            0.0000000000
      8344      2753  TIP3      OH2            -5.8868213308        7.1675345292       -8.5285468530  SOLV      2742            0.0000000000
      8345      2753  TIP3      H1             -6.6565869940        6.5764835766       -8.4169569030  SOLV      2742            0.0000000000
      8346      2753  TIP3      H2             -5.1919324339        6.6833505962       -8.0315683472  SOLV      2742            0.0000000000
      8347      2754  TIP3      OH2           -18.7791341682        9.3946031767      -13.8465750347  SOLV      2743            0.0000000000
      8348      2754  TIP3      H1            -18.2385452929       10.2026946057      -13.8941134301  SOLV      2743            0.0000000000
      8349      2754  TIP3      H2            -18.2836981422        8.8368198567      -14.4838826670  SOLV      2743            0.0000000000
      8350      2755  TIP3      OH2           -19.3429630539        2.1965846572      -12.4850394026  SOLV      2744            0.0000000000
      8351      2755  TIP3      H1            -19.2640849353        3.1709145954      -12.5112956413  SOLV      2744            0.0000000000
      8352      2755  TIP3      H2            -20.1833089950        2.0592718127      -12.9246034919  SOLV      2744            0.0000000000
      8353      2756  TIP3      OH2            -6.1839391509       16.7782294945       -9.0571847138  SOLV      2745            0.0000000000
      8354      2756  TIP3      H1             -6.6103868521       17.2406364928       -9.8126758762  SOLV      2745            0.0000000000
      8355      2756  TIP3      H2             -5.2381613104       16.9550313742       -9.2603438162  SOLV      2745            0.0000000000
      8356      2757  TIP3      OH2           -15.5477826633       -0.5797991343       -3.7271152878  SOLV      2746            0.0000000000
      8357      2757  TIP3      H1            -15.7231356197       -0.9511852831       -4.6143923623  SOLV      2746            0.0000000000
      8358      2757  TIP3      H2            -15.5251665850       -1.3804610662       -3.1678937916  SOLV      2746            0.0000000000
      8359      2758  TIP3      OH2           -20.0790390285       11.5525854681       -9.9701676998  SOLV      2747            0.0000000000
      8360      2758  TIP3      H1            -20.6843705817       11.8773545584       -9.2935209962  SOLV      2747            0.0000000000
      8361      2758  TIP3      H2            -20.4155245850       12.0191319926      -10.7676712152  SOLV      2747            0.0000000000
      8362      2759  TIP3      OH2           -18.4288820090       17.1037712690        0.7563414156  SOLV      2748            0.0000000000
      8363      2759  TIP3      H1            -17.5675193341       17.1178541618        1.2326292066  SOLV      2748            0.0000000000
      8364      2759  TIP3      H2            -18.6109083892       16.1498463361        0.7360242698  SOLV      2748            0.0000000000
      8365      2760  TIP3      OH2           -13.7016974991       16.5726635749        1.2249916858  SOLV      2749            0.0000000000
      8366      2760  TIP3      H1            -12.7452678442       16.4378470557        1.2604779622  SOLV      2749            0.0000000000
      8367      2760  TIP3      H2            -13.9455585282       15.9643871750        0.4964075930  SOLV      2749            0.0000000000
      8368      2761  TIP3      OH2           -13.8717795748       12.3932578914      -17.5588052040  SOLV      2750            0.0000000000
      8369      2761  TIP3      H1            -14.4169083704       11.6831512992      -17.1428361807  SOLV      2750            0.0000000000
      8370      2761  TIP3      H2            -13.0928071590       11.8813758159      -17.8213152441  SOLV      2750            0.0000000000
      8371      2762  TIP3      OH2            -7.2967404264       15.7415796280       -1.4474660562  SOLV      2751            0.0000000000
      8372      2762  TIP3      H1             -7.3366432155       15.0294736796       -0.7680053429  SOLV      2751            0.0000000000
      8373      2762  TIP3      H2             -6.5162684386       16.2534360790       -1.1587454325  SOLV      2751            0.0000000000
      8374      2763  TIP3      OH2            -9.4782894333       12.7652233318      -18.3669805240  SOLV      2752            0.0000000000
      8375      2763  TIP3      H1             -9.1498386684       12.0813335052      -17.7466878622  SOLV      2752            0.0000000000
      8376      2763  TIP3      H2             -8.8688408277       12.6857293476      -19.1213530367  SOLV      2752            0.0000000000
      8377      2764  TIP3      OH2           -17.1781380890       11.0810205121        2.7711357368  SOLV      2753            0.0000000000
      8378      2764  TIP3      H1            -17.0200371486       10.1190786015        2.8044669629  SOLV      2753            0.0000000000
      8379      2764  TIP3      H2            -18.0442703806       11.1216876657        2.3086103224  SOLV      2753            0.0000000000
      8380      2765  TIP3      OH2           -17.3664042553        7.5056448239      -15.2604211601  SOLV      2754            0.0000000000
      8381      2765  TIP3      H1            -16.7877878902        7.2608107632      -14.5143890772  SOLV      2754            0.0000000000
      8382      2765  TIP3      H2            -16.6966374206        7.5754796398      -15.9756682907  SOLV      2754            0.0000000000
      8383      2766  TIP3      OH2           -11.1050780938       11.9493718348        0.5088228462  SOLV      2755            0.0000000000
      8384      2766  TIP3      H1            -11.5204035678       12.1616511176       -0.3515334318  SOLV      2755            0.0000000000
      8385      2766  TIP3      H2            -10.7818208387       11.0340143441        0.3771952615  SOLV      2755            0.0000000000
      8386      2767  TIP3      OH2           -12.0826636996        9.5730243218      -17.2124010565  SOLV      2756            0.0000000000
      8387      2767  TIP3      H1            -12.1868832572        9.7197428605      -16.2500530930  SOLV      2756            0.0000000000
      8388      2767  TIP3      H2            -12.1642205969        8.5952701280      -17.2562978419  SOLV      2756            0.0000000000
      8389      2768  TIP3      OH2            -6.1564123010       12.0990140801       -3.3866780250  SOLV      2757            0.0000000000
      8390      2768  TIP3      H1             -5.4155730056       12.5317733478       -3.8520323442  SOLV      2757            0.0000000000
      8391      2768  TIP3      H2             -6.8781624256       12.7280495111       -3.5662528603  SOLV      2757            0.0000000000
      8392      2769  TIP3      OH2           -15.9643881897        8.4422901418        2.6348290172  SOLV      2758            0.0000000000
      8393      2769  TIP3      H1            -15.1604776067        8.1099073994        2.2213524481  SOLV      2758            0.0000000000
      8394      2769  TIP3      H2            -15.6374048415        8.7613045285        3.5020560629  SOLV      2758            0.0000000000
      8395      2770  TIP3      OH2           -15.3692605904        6.6582325361      -13.1288827376  SOLV      2759            0.0000000000
      8396      2770  TIP3      H1            -15.6078016486        6.2933151941      -12.2597143138  SOLV      2759            0.0000000000
      8397      2770  TIP3      H2            -14.9814541470        5.8832432108      -13.5844754444  SOLV      2759            0.0000000000
      8398      2771  TIP3      OH2           -12.6801208179        7.1640872837       -0.7527656601  SOLV      2760            0.0000000000
      8399      2771  TIP3      H1            -13.4142055680        7.8168388953       -0.7089011281  SOLV      2760            0.0000000000
      8400      2771  TIP3      H2            -12.1475355130        7.5310304260       -1.4894587013  SOLV      2760            0.0000000000
      8401      2772  TIP3      OH2           -14.2807005438        4.5958444846      -14.7018249570  SOLV      2761            0.0000000000
      8402      2772  TIP3      H1            -14.5378728167        4.6769516128      -15.6424004515  SOLV      2761            0.0000000000
      8403      2772  TIP3      H2            -13.3048739167        4.6460868973      -14.7738391001  SOLV      2761            0.0000000000
      8404      2773  TIP3      OH2            -7.4306542731       11.2914913121        0.5210831529  SOLV      2762            0.0000000000
      8405      2773  TIP3      H1             -6.7083685092       10.9329360067       -0.0047617910  SOLV      2762            0.0000000000
      8406      2773  TIP3      H2             -7.5000805011       10.6440740781        1.2462703962  SOLV      2762            0.0000000000
      8407      2774  TIP3      OH2            -6.1131639760        7.8473932633      -18.0029669278  SOLV      2763            0.0000000000
      8408      2774  TIP3      H1             -6.3239115311        7.4057957443      -18.8479335996  SOLV      2763            0.0000000000
      8409      2774  TIP3      H2             -6.4386558214        8.7539891007      -18.2135902324  SOLV      2763            0.0000000000
      8410      2775  TIP3      OH2           -11.3806761472        5.0842300042        0.6246107418  SOLV      2764            0.0000000000
      8411      2775  TIP3      H1            -11.2816353822        4.2274599739        0.1743373916  SOLV      2764            0.0000000000
      8412      2775  TIP3      H2            -11.7948222100        5.6443427365       -0.0667926197  SOLV      2764            0.0000000000
      8413      2776  TIP3      OH2           -11.1334938985        8.4781266608       -2.5385952125  SOLV      2765            0.0000000000
      8414      2776  TIP3      H1            -10.3589152981        8.3034070188       -3.0874014281  SOLV      2765            0.0000000000
      8415      2776  TIP3      H2            -11.6639791661        9.0703587352       -3.1141660506  SOLV      2765            0.0000000000
      8416      2777  TIP3      OH2            -5.3121782608        7.9701850620        1.0471240566  SOLV      2766            0.0000000000
      8417      2777  TIP3      H1             -4.8367881604        7.3176404484        1.5952855688  SOLV      2766            0.0000000000
      8418      2777  TIP3      H2             -4.5849283667        8.4751511515        0.6495508537  SOLV      2766            0.0000000000
      8419      2778  TIP3      OH2            -4.8837021744       10.5878827732       -1.5501110250  SOLV      2767            0.0000000000
      8420      2778  TIP3      H1             -5.4528832004       11.1447147900       -2.1344503293  SOLV      2767            0.0000000000
      8421      2778  TIP3      H2             -4.0047020243       10.7832092045       -1.9448514938  SOLV      2767            0.0000000000
      8422      2779  TIP3      OH2           -12.5694619428        6.2483364919        2.8964408300  SOLV      2768            0.0000000000
      8423      2779  TIP3      H1            -13.2731287403        5.5739120963        2.9827256692  SOLV      2768            0.0000000000
      8424      2779  TIP3      H2            -12.2733233804        6.0875009349        1.9795139309  SOLV      2768            0.0000000000
      8425      2780  TIP3      OH2            -8.8838046830        5.8920491552        1.5665954289  SOLV      2769            0.0000000000
      8426      2780  TIP3      H1             -8.9731242523        5.5723291937        2.4746121563  SOLV      2769            0.0000000000
      8427      2780  TIP3      H2             -9.6722568632        5.4947075405        1.1456922824  SOLV      2769            0.0000000000
      8428      2781  TIP3      OH2           -14.2391214695        4.0438218064        3.3513070161  SOLV      2770            0.0000000000
      8429      2781  TIP3      H1            -14.2159442404        3.1473774101        2.9624426959  SOLV      2770            0.0000000000
      8430      2781  TIP3      H2            -13.8818991307        3.8614789261        4.2435560428  SOLV      2770            0.0000000000
      8431      2782  TIP3      OH2           -21.4360748408        8.9909267127      -13.4284948771  SOLV      2771            0.0000000000
      8432      2782  TIP3      H1            -20.4976505036        9.2344499735      -13.5977829361  SOLV      2771            0.0000000000
      8433      2782  TIP3      H2            -21.4842791676        8.1301151688      -13.8965737920  SOLV      2771            0.0000000000
      8434      2783  TIP3      OH2           -22.2657251929       15.1097197434       -9.2691027148  SOLV      2772            0.0000000000
      8435      2783  TIP3      H1            -22.9081159141       14.4976279333       -9.6889167231  SOLV      2772            0.0000000000
      8436      2783  TIP3      H2            -21.8119401827       14.4984852093       -8.6509970108  SOLV      2772            0.0000000000
      8437      2784  TIP3      OH2           -20.9123599449       13.5392636842       -7.4412765462  SOLV      2773            0.0000000000
      8438      2784  TIP3      H1            -21.0460821932       12.8650927648       -6.7555221010  SOLV      2773            0.0000000000
      8439      2784  TIP3      H2            -20.3877128599       14.1922481270       -6.9432251764  SOLV      2773            0.0000000000
      8440      2785  TIP3      OH2            -3.6049662594       17.6049395803       -9.4181023389  SOLV      2774            0.0000000000
      8441      2785  TIP3      H1             -3.3654152341       17.9009965491       -8.5208276486  SOLV      2774            0.0000000000
      8442      2785  TIP3      H2             -2.9363090430       18.0390883913       -9.9673941740  SOLV      2774            0.0000000000
      8443      2786  TIP3      OH2            -3.3366804209       17.8100177627       -6.5975857622  SOLV      2775            0.0000000000
      8444      2786  TIP3      H1             -3.8145341335       16.9527484365       -6.6373261254  SOLV      2775            0.0000000000
      8445      2786  TIP3      H2             -2.6122894666       17.5589600899       -6.0016218352  SOLV      2775            0.0000000000
      8446      2787  TIP3      OH2            -2.8788806079       14.6035752986       -0.8790140537  SOLV      2776            0.0000000000
      8447      2787  TIP3      H1             -3.5932712233       14.7004006328       -0.2182371121  SOLV      2776            0.0000000000
      8448      2787  TIP3      H2             -2.4490336809       15.4816713961       -0.8329632758  SOLV      2776            0.0000000000
      8449      2788  TIP3      OH2            -4.6877895682        9.7061684644      -14.7098003846  SOLV      2777            0.0000000000
      8450      2788  TIP3      H1             -4.0256678540       10.3717451617      -14.9786611030  SOLV      2777            0.0000000000
      8451      2788  TIP3      H2             -4.2631410643        9.3243005466      -13.9094955188  SOLV      2777            0.0000000000
      8452      2789  TIP3      OH2            -3.4347312737        8.3823312989      -12.6512596198  SOLV      2778            0.0000000000
      8453      2789  TIP3      H1             -4.1070260324        7.9638763057      -12.0687388089  SOLV      2778            0.0000000000
      8454      2789  TIP3      H2             -2.7904875373        8.7399360010      -12.0060766705  SOLV      2778            0.0000000000
      8455      2790  TIP3      OH2            -2.8607550561       12.3536541289       -8.3432202117  SOLV      2779            0.0000000000
      8456      2790  TIP3      H1             -2.3260820172       11.6676922726       -8.7889858055  SOLV      2779            0.0000000000
      8457      2790  TIP3      H2             -2.9309325785       13.0438876668       -9.0287147022  SOLV      2779            0.0000000000
      8458      2791  TIP3      OH2            -4.6182845278       15.3318796995       -6.4145346964  SOLV      2780            0.0000000000
      8459      2791  TIP3      H1             -5.3358233639       15.7348122303       -5.8891105803  SOLV      2780            0.0000000000
      8460      2791  TIP3      H2             -5.1176160341       14.8667914269       -7.1206581536  SOLV      2780            0.0000000000
      8461      2792  TIP3      OH2            -4.0785778982        7.4841661514      -16.2149410497  SOLV      2781            0.0000000000
      8462      2792  TIP3      H1             -4.8149969746        7.5065069525      -16.8684521681  SOLV      2781            0.0000000000
      8463      2792  TIP3      H2             -4.3421529072        8.2421755719      -15.6519316224  SOLV      2781            0.0000000000
      8464      2793  TIP3      OH2            -5.3527144355        4.1822703533      -16.7177645634  SOLV      2782            0.0000000000
      8465      2793  TIP3      H1             -5.8689446474        4.5251846709      -17.4543589446  SOLV      2782            0.0000000000
      8466      2793  TIP3      H2             -5.5522735772        3.2234933763      -16.7880848071  SOLV      2782            0.0000000000
      8467      2794  TIP3      OH2            -5.3303948464        6.9798141421      -11.2211981689  SOLV      2783            0.0000000000
      8468      2794  TIP3      H1             -5.2651201190        6.0124939039      -11.2753539238  SOLV      2783            0.0000000000
      8469      2794  TIP3      H2             -5.4865408570        7.1207727072      -10.2602120387  SOLV      2783            0.0000000000
      8470      2795  TIP3      OH2           -19.0772816051        7.6825451079       -3.6991443500  SOLV      2784            0.0000000000
      8471      2795  TIP3      H1            -19.1050621934        7.3306112723       -4.6140675079  SOLV      2784            0.0000000000
      8472      2795  TIP3      H2            -18.1016959234        7.7094935161       -3.5473829077  SOLV      2784            0.0000000000
      8473      2796  TIP3      OH2            -2.4137760770       11.2049930202       -2.6112360237  SOLV      2785            0.0000000000
      8474      2796  TIP3      H1             -1.7289833801       10.5144169070       -2.7609280767  SOLV      2785            0.0000000000
      8475      2796  TIP3      H2             -2.1950829910       11.8626179946       -3.2868842605  SOLV      2785            0.0000000000
      8476      2797  TIP3      OH2            -0.5726579586        9.2119242072       -2.6162389988  SOLV      2786            0.0000000000
      8477      2797  TIP3      H1             -1.2876113389        8.6458558546       -2.2426631766  SOLV      2786            0.0000000000
      8478      2797  TIP3      H2              0.2122923139        8.8209624436       -2.2288307059  SOLV      2786            0.0000000000
      8479      2798  TIP3      OH2            -5.9146097609        1.5077404389      -16.9039764801  SOLV      2787            0.0000000000
      8480      2798  TIP3      H1             -5.2142746814        1.2047682501      -16.2905038622  SOLV      2787            0.0000000000
      8481      2798  TIP3      H2             -6.6850453453        0.9698814652      -16.6520485548  SOLV      2787            0.0000000000
      8482      2799  TIP3      OH2            -5.3459423033        4.1489656338      -12.3187991262  SOLV      2788            0.0000000000
      8483      2799  TIP3      H1             -4.9316209252        3.2662799959      -12.1649538742  SOLV      2788            0.0000000000
      8484      2799  TIP3      H2             -4.7636026875        4.4857392814      -13.0219360343  SOLV      2788            0.0000000000
      8485      2800  TIP3      OH2            -3.7697585216        5.8260320253       -7.3306529140  SOLV      2789            0.0000000000
      8486      2800  TIP3      H1             -2.9051122975        6.0603636601       -7.7369372332  SOLV      2789            0.0000000000
      8487      2800  TIP3      H2             -3.6161332373        6.1774260149       -6.4329159826  SOLV      2789            0.0000000000
      8488      2801  TIP3      OH2            -3.0260230888        7.3669169801       -5.0739112393  SOLV      2790            0.0000000000
      8489      2801  TIP3      H1             -3.7967548657        7.6784372866       -4.5651202233  SOLV      2790            0.0000000000
      8490      2801  TIP3      H2             -2.7152268539        8.1924956356       -5.5007962783  SOLV      2790            0.0000000000
      8491      2802  TIP3      OH2           -16.9246196393        4.5165789939        2.9858187503  SOLV      2791            0.0000000000
      8492      2802  TIP3      H1            -15.9445300373        4.4809004876        2.9894315201  SOLV      2791            0.0000000000
      8493      2802  TIP3      H2            -17.1322938040        3.6514972196        3.3883699114  SOLV      2791            0.0000000000
      8494      2803  TIP3      OH2            -4.2613624063        1.6442346581      -11.9152497859  SOLV      2792            0.0000000000
      8495      2803  TIP3      H1             -3.7970590948        1.4796339916      -11.0661684464  SOLV      2792            0.0000000000
      8496      2803  TIP3      H2             -4.8803160218        0.8846934784      -11.9271643666  SOLV      2792            0.0000000000
      8497      2804  TIP3      OH2           -17.3071242961        1.5310084832       -3.5849718665  SOLV      2793            0.0000000000
      8498      2804  TIP3      H1            -16.7065092049        0.7542845468       -3.5408587036  SOLV      2793            0.0000000000
      8499      2804  TIP3      H2            -16.6522456942        2.2396998139       -3.7224082770  SOLV      2793            0.0000000000
      8500      2805  TIP3      OH2           -19.2836657926        4.2323364468       -2.9821532557  SOLV      2794            0.0000000000
      8501      2805  TIP3      H1            -18.7667029382        4.1289148625       -3.8058150351  SOLV      2794            0.0000000000
      8502      2805  TIP3      H2            -18.9410444687        5.0691754945       -2.6535475566  SOLV      2794            0.0000000000
      8503      2806  TIP3      OH2            -3.5186361798        0.9457547873      -15.5350844769  SOLV      2795            0.0000000000
      8504      2806  TIP3      H1             -3.1112469039        0.2493734287      -16.0914986688  SOLV      2795            0.0000000000
      8505      2806  TIP3      H2             -2.8470491791        1.6540289647      -15.5599753017  SOLV      2795            0.0000000000
      8506      2807  TIP3      OH2           -19.4130997711       -0.8020156124       -7.9850929296  SOLV      2796            0.0000000000
      8507      2807  TIP3      H1            -20.3242308041       -0.8028679570       -7.6498829704  SOLV      2796            0.0000000000
      8508      2807  TIP3      H2            -19.4713048474       -0.1852450495       -8.7428812733  SOLV      2796            0.0000000000
      8509      2808  TIP3      OH2            -7.7904060865       16.3012831889      -12.8823134306  SOLV      2797            0.0000000000
      8510      2808  TIP3      H1             -7.2492288347       16.2009894074      -13.6897204042  SOLV      2797            0.0000000000
      8511      2808  TIP3      H2             -7.2846868781       16.9556572860      -12.3727895407  SOLV      2797            0.0000000000
      8512      2809  TIP3      OH2           -17.2264219708        0.2118409269        0.3359887004  SOLV      2798            0.0000000000
      8513      2809  TIP3      H1            -17.8314353847        0.0509160321        1.0635091667  SOLV      2798            0.0000000000
      8514      2809  TIP3      H2            -17.8454233181        0.4662734285       -0.3765080176  SOLV      2798            0.0000000000
      8515      2810  TIP3      OH2           -16.8157977587       14.3539838598        0.9288426546  SOLV      2799            0.0000000000
      8516      2810  TIP3      H1            -17.7561249613       14.1332523254        0.7861356903  SOLV      2799            0.0000000000
      8517      2810  TIP3      H2            -16.7153875129       14.1992107043        1.8741904687  SOLV      2799            0.0000000000
      8518      2811  TIP3      OH2           -14.9795285389       14.7227582068       -3.5443746327  SOLV      2800            0.0000000000
      8519      2811  TIP3      H1            -15.4682855867       15.4785642524       -3.9307296661  SOLV      2800            0.0000000000
      8520      2811  TIP3      H2            -14.1319483261       14.8486945513       -4.0207362538  SOLV      2800            0.0000000000
      8521      2812  TIP3      OH2           -10.6334885267       17.1078714787       -2.2031900314  SOLV      2801            0.0000000000
      8522      2812  TIP3      H1            -10.2086584200       17.0888112420       -1.3182618805  SOLV      2801            0.0000000000
      8523      2812  TIP3      H2             -9.9757402139       17.6309697881       -2.7094150522  SOLV      2801            0.0000000000
      8524      2813  TIP3      OH2            -8.8278867543       18.6631731071       -3.5629057363  SOLV      2802            0.0000000000
      8525      2813  TIP3      H1             -8.1346794906       18.1391558419       -3.9888190966  SOLV      2802            0.0000000000
      8526      2813  TIP3      H2             -8.2917397222       19.2274707924       -2.9631994986  SOLV      2802            0.0000000000
      8527      2814  TIP3      OH2           -18.2554302255       17.2341914361       -3.2898640788  SOLV      2803            0.0000000000
      8528      2814  TIP3      H1            -19.1679534890       17.5217091175       -3.5242263750  SOLV      2803            0.0000000000
      8529      2814  TIP3      H2            -18.1101367962       17.7598107849       -2.4960994830  SOLV      2803            0.0000000000
      8530      2815  TIP3      OH2           -15.9010264713       17.0487940174       -4.7150179741  SOLV      2804            0.0000000000
      8531      2815  TIP3      H1            -16.7776512921       17.1533250641       -4.2815564828  SOLV      2804            0.0000000000
      8532      2815  TIP3      H2            -16.0989075172       17.3553611416       -5.6223578000  SOLV      2804            0.0000000000
      8533      2816  TIP3      OH2           -11.6513460939       17.2736385412       -6.7422636863  SOLV      2805            0.0000000000
      8534      2816  TIP3      H1            -12.3613668251       17.4473991370       -7.3891423249  SOLV      2805            0.0000000000
      8535      2816  TIP3      H2            -11.5382368010       18.1569906676       -6.3348659021  SOLV      2805            0.0000000000
      8536      2817  TIP3      OH2            -8.9587881380       16.6920257115       -6.2074840567  SOLV      2806            0.0000000000
      8537      2817  TIP3      H1             -9.9026615413       16.8406886749       -6.4138378504  SOLV      2806            0.0000000000
      8538      2817  TIP3      H2             -8.5362242247       17.4146984833       -6.6955703547  SOLV      2806            0.0000000000
      8539      2818  TIP3      OH2            -6.8808034759       18.6024118488       -7.1096394345  SOLV      2807            0.0000000000
      8540      2818  TIP3      H1             -7.0353644522       19.4402566468       -7.5930907948  SOLV      2807            0.0000000000
      8541      2818  TIP3      H2             -6.6327589718       17.9934021159       -7.8403932378  SOLV      2807            0.0000000000
      8542      2819  TIP3      OH2           -19.1618990362       15.1546823716       -5.8911706206  SOLV      2808            0.0000000000
      8543      2819  TIP3      H1            -18.8927937486       14.8598194013       -4.9943909856  SOLV      2808            0.0000000000
      8544      2819  TIP3      H2            -18.4270408370       14.7551423099       -6.4106305484  SOLV      2808            0.0000000000
      8545      2820  TIP3      OH2           -17.1842184722       13.9080127442       -7.2649648804  SOLV      2809            0.0000000000
      8546      2820  TIP3      H1            -17.0365712475       13.0581140900       -6.7884386307  SOLV      2809            0.0000000000
      8547      2820  TIP3      H2            -16.2697154153       14.2596644229       -7.3033768409  SOLV      2809            0.0000000000
      8548      2821  TIP3      OH2           -14.5051024364       14.8064628042       -7.2193329984  SOLV      2810            0.0000000000
      8549      2821  TIP3      H1            -14.2294050355       13.8750700768       -7.3251232521  SOLV      2810            0.0000000000
      8550      2821  TIP3      H2            -14.0130894033       15.0300600873       -6.4078093427  SOLV      2810            0.0000000000
      8551      2822  TIP3      OH2            -8.9515464495        1.2767544154       -6.5616070890  SOLV      2811            0.0000000000
      8552      2822  TIP3      H1             -9.3423865421        0.6766555310       -5.8861823581  SOLV      2811            0.0000000000
      8553      2822  TIP3      H2             -8.1173380149        0.8255451252       -6.7597003485  SOLV      2811            0.0000000000
      8554      2823  TIP3      OH2            -3.5874966558        0.1242806097       -7.4231293412  SOLV      2812            0.0000000000
      8555      2823  TIP3      H1             -3.2427427485        0.6845987501       -8.1507302350  SOLV      2812            0.0000000000
      8556      2823  TIP3      H2             -4.5364505114        0.3583837829       -7.4181528455  SOLV      2812            0.0000000000
      8557      2824  TIP3      OH2            -2.6217035747        1.2008363693       -9.7558083125  SOLV      2813            0.0000000000
      8558      2824  TIP3      H1             -1.8677132863        0.6702471472      -10.0860010724  SOLV      2813            0.0000000000
      8559      2824  TIP3      H2             -2.2723546312        2.1109595294       -9.8906335769  SOLV      2813            0.0000000000
      8560      2825  TIP3      OH2           -16.3141892891       -1.5586825823       -6.2631031284  SOLV      2814            0.0000000000
      8561      2825  TIP3      H1            -17.2246137555       -1.9129084848       -6.2115756475  SOLV      2814            0.0000000000
      8562      2825  TIP3      H2            -15.8008017037       -2.3966181056       -6.2962304269  SOLV      2814            0.0000000000
      8563      2826  TIP3      OH2           -18.4835438904       -2.8115069723       -9.7637490357  SOLV      2815            0.0000000000
      8564      2826  TIP3      H1            -18.1270203380       -2.2403295520      -10.4661571193  SOLV      2815            0.0000000000
      8565      2826  TIP3      H2            -18.7259659710       -2.1559436713       -9.0779281141  SOLV      2815            0.0000000000
      8566      2827  TIP3      OH2           -11.9025728893       -1.1955968817       -7.4832588034  SOLV      2816            0.0000000000
      8567      2827  TIP3      H1            -11.2953954792       -0.6939908134       -8.0442871388  SOLV      2816            0.0000000000
      8568      2827  TIP3      H2            -11.5702864403       -0.9510366593       -6.5918057338  SOLV      2816            0.0000000000
      8569      2828  TIP3      OH2            -6.3565551846        0.3464003269       -7.6146738901  SOLV      2817            0.0000000000
      8570      2828  TIP3      H1             -6.4231819463       -0.0908898086       -8.4692837498  SOLV      2817            0.0000000000
      8571      2828  TIP3      H2             -6.5242306765       -0.4228005418       -7.0114321505  SOLV      2817            0.0000000000
      8572      2829  TIP3      OH2            -6.0882932802       -0.4725034170      -11.9600501739  SOLV      2818            0.0000000000
      8573      2829  TIP3      H1             -6.9290658188       -0.0260981038      -11.7417958682  SOLV      2818            0.0000000000
      8574      2829  TIP3      H2             -6.2284178394       -1.3376223403      -11.5155042708  SOLV      2818            0.0000000000
      8575      2830  TIP3      OH2           -21.3278064265       12.9586024596      -11.8986709858  SOLV      2819            0.0000000000
      8576      2830  TIP3      H1            -22.1511064461       12.6195879779      -12.2948956402  SOLV      2819            0.0000000000
      8577      2830  TIP3      H2            -21.3263657591       13.8543484002      -12.2803723814  SOLV      2819            0.0000000000
      8578      2831  TIP3      OH2           -17.2054843415       -1.2155163840      -12.1555920560  SOLV      2820            0.0000000000
      8579      2831  TIP3      H1            -16.7221202558       -1.8621921092      -12.7044512633  SOLV      2820            0.0000000000
      8580      2831  TIP3      H2            -16.4661951581       -0.6884640532      -11.7861982745  SOLV      2820            0.0000000000
      8581      2832  TIP3      OH2           -12.1388967198        0.5591629962      -11.1349261577  SOLV      2821            0.0000000000
      8582      2832  TIP3      H1            -11.5542138308        0.1082730249      -10.4992088180  SOLV      2821            0.0000000000
      8583      2832  TIP3      H2            -11.9623065673        1.4894707715      -10.8717607194  SOLV      2821            0.0000000000
      8584      2833  TIP3      OH2           -13.4138472123       14.7169457036      -16.0003716261  SOLV      2822            0.0000000000
      8585      2833  TIP3      H1            -12.6044569260       14.8648057609      -16.5253316695  SOLV      2822            0.0000000000
      8586      2833  TIP3      H2            -13.9201449262       14.1496011060      -16.6124367043  SOLV      2822            0.0000000000
      8587      2834  TIP3      OH2            -6.2919126793       15.9895073930      -15.2038226641  SOLV      2823            0.0000000000
      8588      2834  TIP3      H1             -6.3705591997       15.0098664416      -15.3031491098  SOLV      2823            0.0000000000
      8589      2834  TIP3      H2             -6.7982515058       16.2890087896      -15.9858496325  SOLV      2823            0.0000000000
      8590      2835  TIP3      OH2           -14.2439375934        1.3063431933        2.7543099569  SOLV      2824            0.0000000000
      8591      2835  TIP3      H1            -14.5145577760        0.5267193214        3.2670451988  SOLV      2824            0.0000000000
      8592      2835  TIP3      H2            -13.2757889795        1.2830742564        2.8743136613  SOLV      2824            0.0000000000
      8593      2836  TIP3      OH2           -11.6262963849        1.4226250740        3.9299249367  SOLV      2825            0.0000000000
      8594      2836  TIP3      H1            -10.8872091038        1.2274100514        3.3267550501  SOLV      2825            0.0000000000
      8595      2836  TIP3      H2            -11.6530334906        0.5993792884        4.4579506668  SOLV      2825            0.0000000000
      8596      2837  TIP3      OH2           -20.6240862552       12.9467887276      -15.5436873992  SOLV      2826            0.0000000000
      8597      2837  TIP3      H1            -20.3222527508       13.6736012026      -14.9833874733  SOLV      2826            0.0000000000
      8598      2837  TIP3      H2            -19.7499776690       12.5722351324      -15.8036183875  SOLV      2826            0.0000000000
      8599      2838  TIP3      OH2            -4.1239956056       17.3812535921       -3.3490841974  SOLV      2827            0.0000000000
      8600      2838  TIP3      H1             -4.9148466866       17.0825646196       -3.8447548406  SOLV      2827            0.0000000000
      8601      2838  TIP3      H2             -4.3206212029       18.3359389060       -3.2677070823  SOLV      2827            0.0000000000
      8602      2839  TIP3      OH2             8.6043124176       11.1418365856      -15.7399852719  SOLV      2828            0.0000000000
      8603      2839  TIP3      H1              8.2784338111       12.0433906562      -15.9399447938  SOLV      2828            0.0000000000
      8604      2839  TIP3      H2              7.8381255204       10.6141795918      -16.0221664509  SOLV      2828            0.0000000000
      8605      2840  TIP3      OH2             8.5431209336       11.1452195231      -11.7837442101  SOLV      2829            0.0000000000
      8606      2840  TIP3      H1              8.9395453248       10.9222631508      -10.9186945018  SOLV      2829            0.0000000000
      8607      2840  TIP3      H2              8.1459375987       10.2970528424      -12.0370914626  SOLV      2829            0.0000000000
      8608      2841  TIP3      OH2             1.5205383671       10.0402873526       -8.2201106754  SOLV      2830            0.0000000000
      8609      2841  TIP3      H1              1.8134159670        9.3534584297       -7.5905108077  SOLV      2830            0.0000000000
      8610      2841  TIP3      H2              2.3278399291       10.5653192167       -8.2993082006  SOLV      2830            0.0000000000
      8611      2842  TIP3      OH2            11.0278764358       14.1935697309      -15.0097254675  SOLV      2831            0.0000000000
      8612      2842  TIP3      H1             10.8935905037       13.5054722803      -14.3419495419  SOLV      2831            0.0000000000
      8613      2842  TIP3      H2             11.3424336180       14.9401716824      -14.4714637547  SOLV      2831            0.0000000000
      8614      2843  TIP3      OH2             1.3014864304       14.1838674569      -11.0239321285  SOLV      2832            0.0000000000
      8615      2843  TIP3      H1              1.2046634204       13.2064471613      -11.0156213553  SOLV      2832            0.0000000000
      8616      2843  TIP3      H2              2.2710719134       14.2601236476      -11.0368022564  SOLV      2832            0.0000000000
      8617      2844  TIP3      OH2            -1.6440427413        6.2099633354      -13.2133204021  SOLV      2833            0.0000000000
      8618      2844  TIP3      H1             -2.1466824434        7.0143371762      -12.9942195683  SOLV      2833            0.0000000000
      8619      2844  TIP3      H2             -2.3509816229        5.6689176518      -13.6066852046  SOLV      2833            0.0000000000
      8620      2845  TIP3      OH2            -1.0869593901        9.0626000386      -11.3363852905  SOLV      2834            0.0000000000
      8621      2845  TIP3      H1             -0.5812898753        8.2887356124      -10.9992100990  SOLV      2834            0.0000000000
      8622      2845  TIP3      H2             -0.4771568750        9.4269343584      -11.9890068886  SOLV      2834            0.0000000000
      8623      2846  TIP3      OH2             7.5453512147       18.7594515884      -14.8632376527  SOLV      2835            0.0000000000
      8624      2846  TIP3      H1              7.9575643586       18.0391674056      -15.3835056045  SOLV      2835            0.0000000000
      8625      2846  TIP3      H2              7.4701788014       18.3537529859      -13.9926839321  SOLV      2835            0.0000000000
      8626      2847  TIP3      OH2             6.5432555198       13.3975640670      -11.4065923695  SOLV      2836            0.0000000000
      8627      2847  TIP3      H1              6.9687250665       12.6118471451      -11.7935194517  SOLV      2836            0.0000000000
      8628      2847  TIP3      H2              7.3560466910       13.8822242163      -11.1468917250  SOLV      2836            0.0000000000
      8629      2848  TIP3      OH2            16.7211934820        6.5839239413      -11.3990563136  SOLV      2837            0.0000000000
      8630      2848  TIP3      H1             17.0069627796        7.4127213821      -10.9617933553  SOLV      2837            0.0000000000
      8631      2848  TIP3      H2             16.9527264796        6.7702808442      -12.3256223649  SOLV      2837            0.0000000000
      8632      2849  TIP3      OH2            10.6778386411        8.3879699775      -11.1173904923  SOLV      2838            0.0000000000
      8633      2849  TIP3      H1             11.1123768861        7.5439467068      -10.8928094955  SOLV      2838            0.0000000000
      8634      2849  TIP3      H2             10.3487556211        8.1917419201      -12.0152640133  SOLV      2838            0.0000000000
      8635      2850  TIP3      OH2             4.1170837092        4.9961784937      -11.4637876375  SOLV      2839            0.0000000000
      8636      2850  TIP3      H1              3.8927991462        5.7166868115      -12.0885563834  SOLV      2839            0.0000000000
      8637      2850  TIP3      H2              3.6065865141        4.2582191363      -11.8640310499  SOLV      2839            0.0000000000
      8638      2851  TIP3      OH2            11.0455340821        5.8992348789      -15.2377007003  SOLV      2840            0.0000000000
      8639      2851  TIP3      H1             11.7573428613        5.7746199601      -14.5657768469  SOLV      2840            0.0000000000
      8640      2851  TIP3      H2             11.5700619790        6.2558057154      -15.9770893244  SOLV      2840            0.0000000000
      8641      2852  TIP3      OH2             0.4146285590        7.0089664017      -10.3402053773  SOLV      2841            0.0000000000
      8642      2852  TIP3      H1              1.2395777847        6.7966018666       -9.8634502913  SOLV      2841            0.0000000000
      8643      2852  TIP3      H2              0.5343348343        6.4518093842      -11.1375513654  SOLV      2841            0.0000000000
      8644      2853  TIP3      OH2             4.7801816537        8.9869321229      -12.3761953754  SOLV      2842            0.0000000000
      8645      2853  TIP3      H1              5.7223353206        8.7450494760      -12.2516895939  SOLV      2842            0.0000000000
      8646      2853  TIP3      H2              4.3978441398        8.1433808013      -12.7006861255  SOLV      2842            0.0000000000
      8647      2854  TIP3      OH2            17.4592249724        8.6944069540       -9.7335045577  SOLV      2843            0.0000000000
      8648      2854  TIP3      H1             16.5871815813        9.1253667720       -9.8590417318  SOLV      2843            0.0000000000
      8649      2854  TIP3      H2             17.6810492420        9.0009235575       -8.8380837330  SOLV      2843            0.0000000000
      8650      2855  TIP3      OH2             4.0439838116        4.8525784636       -7.0802062790  SOLV      2844            0.0000000000
      8651      2855  TIP3      H1              3.4796435402        5.1861223692       -7.8033106677  SOLV      2844            0.0000000000
      8652      2855  TIP3      H2              3.4703521154        5.0493955970       -6.3151776854  SOLV      2844            0.0000000000
      8653      2856  TIP3      OH2             7.4360287188       13.3222976098      -17.0117900006  SOLV      2845            0.0000000000
      8654      2856  TIP3      H1              7.0153705966       13.1825852521      -17.8665104213  SOLV      2845            0.0000000000
      8655      2856  TIP3      H2              7.0026642287       14.1537074199      -16.7262403325  SOLV      2845            0.0000000000
      8656      2857  TIP3      OH2             5.0811392714       12.5897614742       -9.1914177784  SOLV      2846            0.0000000000
      8657      2857  TIP3      H1              4.4905689969       13.2859584753       -8.8274039134  SOLV      2846            0.0000000000
      8658      2857  TIP3      H2              5.5401348408       13.0674582622       -9.9109831666  SOLV      2846            0.0000000000
      8659      2858  TIP3      OH2            13.0364504019        5.9829395920      -13.3952825679  SOLV      2847            0.0000000000
      8660      2858  TIP3      H1             12.8199826137        5.6160095258      -12.5277203154  SOLV      2847            0.0000000000
      8661      2858  TIP3      H2             13.5741042482        6.7633000579      -13.1518376708  SOLV      2847            0.0000000000
      8662      2859  TIP3      OH2             2.7767224434        5.9693615435       -9.2675410459  SOLV      2848            0.0000000000
      8663      2859  TIP3      H1              3.3829198798        6.7071749308       -9.0319904122  SOLV      2848            0.0000000000
      8664      2859  TIP3      H2              3.2788054826        5.5695946015      -10.0142748743  SOLV      2848            0.0000000000
      8665      2860  TIP3      OH2             3.3966157869       14.5746269695       -8.1790246056  SOLV      2849            0.0000000000
      8666      2860  TIP3      H1              3.1416076735       15.4598129656       -8.5112177082  SOLV      2849            0.0000000000
      8667      2860  TIP3      H2              2.6112950589       14.3832123554       -7.6227886724  SOLV      2849            0.0000000000
      8668      2861  TIP3      OH2            -2.7087852020       11.4606214107      -15.8057753307  SOLV      2850            0.0000000000
      8669      2861  TIP3      H1             -3.1549276239       11.7315006326      -16.6257782402  SOLV      2850            0.0000000000
      8670      2861  TIP3      H2             -2.4108231471       12.3214505444      -15.4462818916  SOLV      2850            0.0000000000
      8671      2862  TIP3      OH2            11.6663867717       16.6170065656      -13.4207084289  SOLV      2851            0.0000000000
      8672      2862  TIP3      H1             10.7695460988       16.5280547192      -13.0236229879  SOLV      2851            0.0000000000
      8673      2862  TIP3      H2             11.5955195793       17.4920845469      -13.8501996156  SOLV      2851            0.0000000000
      8674      2863  TIP3      OH2            14.6641524791        5.5034922076       -9.7657373881  SOLV      2852            0.0000000000
      8675      2863  TIP3      H1             13.8044815825        5.8381451874      -10.0654946474  SOLV      2852            0.0000000000
      8676      2863  TIP3      H2             15.2742953006        5.8529793653      -10.4494498055  SOLV      2852            0.0000000000
      8677      2864  TIP3      OH2             7.5533078965        1.9567282474       -9.8814932687  SOLV      2853            0.0000000000
      8678      2864  TIP3      H1              7.3616334225        1.0145863442       -9.7089472086  SOLV      2853            0.0000000000
      8679      2864  TIP3      H2              6.7706946311        2.3724704005       -9.4539699691  SOLV      2853            0.0000000000
      8680      2865  TIP3      OH2             8.6628875797       17.0448972232      -16.7337621949  SOLV      2854            0.0000000000
      8681      2865  TIP3      H1              9.1861514041       16.2246861027      -16.8999387230  SOLV      2854            0.0000000000
      8682      2865  TIP3      H2              9.2824755119       17.7065767533      -17.1137345547  SOLV      2854            0.0000000000
      8683      2866  TIP3      OH2            10.1288323768       14.8851873489      -17.5271478928  SOLV      2855            0.0000000000
      8684      2866  TIP3      H1              9.7587719331       14.0572268471      -17.8580397867  SOLV      2855            0.0000000000
      8685      2866  TIP3      H2             10.5300778335       14.5898166093      -16.6782350758  SOLV      2855            0.0000000000
      8686      2867  TIP3      OH2            13.9312488177       15.6992983695       -9.9665949752  SOLV      2856            0.0000000000
      8687      2867  TIP3      H1             13.8234849597       14.9222785373      -10.5572104647  SOLV      2856            0.0000000000
      8688      2867  TIP3      H2             13.7750521146       16.4438588975      -10.5835064085  SOLV      2856            0.0000000000
      8689      2868  TIP3      OH2             6.8710399940        9.6377138629      -17.3499568242  SOLV      2857            0.0000000000
      8690      2868  TIP3      H1              6.0763229724       10.1611691346      -17.5716305895  SOLV      2857            0.0000000000
      8691      2868  TIP3      H2              7.3455248446        9.6143647350      -18.2009788120  SOLV      2857            0.0000000000
      8692      2869  TIP3      OH2             6.4423642642        7.5884636887      -20.2992166073  SOLV      2858            0.0000000000
      8693      2869  TIP3      H1              7.1215049621        8.0552521383      -19.7794421332  SOLV      2858            0.0000000000
      8694      2869  TIP3      H2              7.0016934930        6.9339858076      -20.7630852876  SOLV      2858            0.0000000000
      8695      2870  TIP3      OH2            15.8867019348       12.0847358873      -11.4940700226  SOLV      2859            0.0000000000
      8696      2870  TIP3      H1             15.0577646072       12.6083083102      -11.4565945982  SOLV      2859            0.0000000000
      8697      2870  TIP3      H2             16.2048048623       12.3214404836      -12.3901818128  SOLV      2859            0.0000000000
      8698      2871  TIP3      OH2            10.3651749974       10.4873741522      -17.7070880304  SOLV      2860            0.0000000000
      8699      2871  TIP3      H1              9.8242225135       10.7282032819      -16.9172406442  SOLV      2860            0.0000000000
      8700      2871  TIP3      H2             11.2033151213       10.2266602999      -17.2684196653  SOLV      2860            0.0000000000
      8701      2872  TIP3      OH2            12.6992829029       10.8186226150       -8.4342968965  SOLV      2861            0.0000000000
      8702      2872  TIP3      H1             12.6913619733       11.6515994415       -7.9242753945  SOLV      2861            0.0000000000
      8703      2872  TIP3      H2             11.8493314367       10.8880120946       -8.9099209799  SOLV      2861            0.0000000000
      8704      2873  TIP3      OH2             2.6937618334       10.4258969197      -13.5039269170  SOLV      2862            0.0000000000
      8705      2873  TIP3      H1              2.2967295449        9.8315196456      -14.1746055268  SOLV      2862            0.0000000000
      8706      2873  TIP3      H2              3.4494278582        9.8919788895      -13.1772585000  SOLV      2862            0.0000000000
      8707      2874  TIP3      OH2             4.0045206671       14.6019966990      -12.0545887288  SOLV      2863            0.0000000000
      8708      2874  TIP3      H1              3.8137733111       14.1998836778      -12.9134250274  SOLV      2863            0.0000000000
      8709      2874  TIP3      H2              4.8878517813       14.2307150881      -11.8493207496  SOLV      2863            0.0000000000
      8710      2875  TIP3      OH2             3.9991752773       10.1681137919       -9.9503001489  SOLV      2864            0.0000000000
      8711      2875  TIP3      H1              4.3524909181        9.9104259452      -10.8267971549  SOLV      2864            0.0000000000
      8712      2875  TIP3      H2              4.4565154228       11.0178786973       -9.7735367117  SOLV      2864            0.0000000000
      8713      2876  TIP3      OH2             9.2678247685       16.5445694523      -12.1777787025  SOLV      2865            0.0000000000
      8714      2876  TIP3      H1              9.1569306191       17.3309815024      -11.6148952383  SOLV      2865            0.0000000000
      8715      2876  TIP3      H2              9.1339070746       15.8043428957      -11.5508180631  SOLV      2865            0.0000000000
      8716      2877  TIP3      OH2             5.4302225781       15.7213016078       -6.7052300455  SOLV      2866            0.0000000000
      8717      2877  TIP3      H1              4.8185248941       16.3289819400       -6.2374013896  SOLV      2866            0.0000000000
      8718      2877  TIP3      H2              4.7852071761       15.1853495342       -7.2114779272  SOLV      2866            0.0000000000
      8719      2878  TIP3      OH2             8.7124842826        9.0861301869      -19.3931035953  SOLV      2867            0.0000000000
      8720      2878  TIP3      H1              9.3331044182        9.6638979270      -18.8911050543  SOLV      2867            0.0000000000
      8721      2878  TIP3      H2              8.9804713434        9.2906132040      -20.3210386872  SOLV      2867            0.0000000000
      8722      2879  TIP3      OH2             2.9857187355       11.2598071355       -5.6290598933  SOLV      2868            0.0000000000
      8723      2879  TIP3      H1              3.0213035806       12.1558955559       -5.2397668814  SOLV      2868            0.0000000000
      8724      2879  TIP3      H2              2.0329914967       11.0604680648       -5.5208189615  SOLV      2868            0.0000000000
      8725      2880  TIP3      OH2             6.2171350408       15.8089452819      -16.7125669361  SOLV      2869            0.0000000000
      8726      2880  TIP3      H1              7.0469646153       16.3077043157      -16.6099203882  SOLV      2869            0.0000000000
      8727      2880  TIP3      H2              5.6024520690       16.4870224508      -17.0220098749  SOLV      2869            0.0000000000
      8728      2881  TIP3      OH2             3.3524854790       17.3562553158       -5.8292957057  SOLV      2870            0.0000000000
      8729      2881  TIP3      H1              3.0085848543       17.3829591863       -6.7395025865  SOLV      2870            0.0000000000
      8730      2881  TIP3      H2              2.5426014102       17.1543673345       -5.3060122181  SOLV      2870            0.0000000000
      8731      2882  TIP3      OH2            13.9054562847        1.4285649135      -18.8968248060  SOLV      2871            0.0000000000
      8732      2882  TIP3      H1             13.0954036011        1.6586364965      -18.3967544955  SOLV      2871            0.0000000000
      8733      2882  TIP3      H2             14.0477943858        2.2489845034      -19.4131026546  SOLV      2871            0.0000000000
      8734      2883  TIP3      OH2             1.3797769313        8.8757072421      -15.5198989956  SOLV      2872            0.0000000000
      8735      2883  TIP3      H1              0.6372958982        9.2927535207      -16.0055048528  SOLV      2872            0.0000000000
      8736      2883  TIP3      H2              1.0152107999        8.0080339118      -15.3129702919  SOLV      2872            0.0000000000
      8737      2884  TIP3      OH2            11.9060725630       15.0843314956      -23.3839051108  SOLV      2873            0.0000000000
      8738      2884  TIP3      H1             11.9879004053       16.0491201505      -23.5535015083  SOLV      2873            0.0000000000
      8739      2884  TIP3      H2             12.8292381109       14.7931788257      -23.5500669012  SOLV      2873            0.0000000000
      8740      2885  TIP3      OH2            -0.8563985533       12.7357957153       -6.3720853454  SOLV      2874            0.0000000000
      8741      2885  TIP3      H1             -1.5453739786       12.5331571815       -7.0390596758  SOLV      2874            0.0000000000
      8742      2885  TIP3      H2             -0.4874921423       11.8526201695       -6.1686659161  SOLV      2874            0.0000000000
      8743      2886  TIP3      OH2            -2.3011204650       14.6553919124      -10.1018046476  SOLV      2875            0.0000000000
      8744      2886  TIP3      H1             -1.3372848760       14.5943491180      -10.1426139807  SOLV      2875            0.0000000000
      8745      2886  TIP3      H2             -2.4240286093       15.4113073641       -9.5084104963  SOLV      2875            0.0000000000
      8746      2887  TIP3      OH2            16.3027642744       19.1840738275       -9.4692793032  SOLV      2876            0.0000000000
      8747      2887  TIP3      H1             16.3214315564       18.2218510043       -9.3040736807  SOLV      2876            0.0000000000
      8748      2887  TIP3      H2             15.4722540586       19.4236236770       -8.9998211019  SOLV      2876            0.0000000000
      8749      2888  TIP3      OH2             7.3722070677       17.0269345919       -8.1512341098  SOLV      2877            0.0000000000
      8750      2888  TIP3      H1              7.3345699149       17.9490142572       -7.8165617150  SOLV      2877            0.0000000000
      8751      2888  TIP3      H2              6.6766450964       16.6025853925       -7.6003768294  SOLV      2877            0.0000000000
      8752      2889  TIP3      OH2             5.0259363336       18.2718177046      -18.6176028881  SOLV      2878            0.0000000000
      8753      2889  TIP3      H1              4.5287572751       18.1390004313      -19.4423027302  SOLV      2878            0.0000000000
      8754      2889  TIP3      H2              4.7081609172       19.1443924775      -18.3218163219  SOLV      2878            0.0000000000
      8755      2890  TIP3      OH2            -0.6000698507       16.7650635170      -14.7629701392  SOLV      2879            0.0000000000
      8756      2890  TIP3      H1             -0.1477495798       16.6786217277      -13.8920116027  SOLV      2879            0.0000000000
      8757      2890  TIP3      H2             -1.1026171911       15.9352208260      -14.7929044166  SOLV      2879            0.0000000000
      8758      2891  TIP3      OH2             6.9512690400       17.2459893958      -22.1826099303  SOLV      2880            0.0000000000
      8759      2891  TIP3      H1              7.6346467407       16.6874119301      -22.5986789419  SOLV      2880            0.0000000000
      8760      2891  TIP3      H2              7.3376918378       17.4005805130      -21.2947501586  SOLV      2880            0.0000000000
      8761      2892  TIP3      OH2             7.5521031735       17.8244303151      -19.5348661929  SOLV      2881            0.0000000000
      8762      2892  TIP3      H1              6.6745249208       17.9017111305      -19.0981656545  SOLV      2881            0.0000000000
      8763      2892  TIP3      H2              8.0891386986       17.4619593494      -18.8115913288  SOLV      2881            0.0000000000
      8764      2893  TIP3      OH2            15.2477531166       10.4455508004       -6.6859950020  SOLV      2882            0.0000000000
      8765      2893  TIP3      H1             14.3908872552       10.5353460290       -7.1253067024  SOLV      2882            0.0000000000
      8766      2893  TIP3      H2             15.3808057751        9.4752169334       -6.7319836933  SOLV      2882            0.0000000000
      8767      2894  TIP3      OH2             1.2014893803       14.5484904614       -6.5482882638  SOLV      2883            0.0000000000
      8768      2894  TIP3      H1              1.6827245329       14.3887177660       -5.7118334766  SOLV      2883            0.0000000000
      8769      2894  TIP3      H2              0.4527173389       13.9202083589       -6.4681878258  SOLV      2883            0.0000000000
      8770      2895  TIP3      OH2             5.1631402165        2.8033140606       -8.6957452420  SOLV      2884            0.0000000000
      8771      2895  TIP3      H1              4.2709564728        2.4908694839       -8.9577878697  SOLV      2884            0.0000000000
      8772      2895  TIP3      H2              4.9100451665        3.5902945530       -8.1762358547  SOLV      2884            0.0000000000
      8773      2896  TIP3      OH2            10.6042356969        3.9865222941       -6.7567759669  SOLV      2885            0.0000000000
      8774      2896  TIP3      H1             11.2950238118        3.6785155540       -6.1394699467  SOLV      2885            0.0000000000
      8775      2896  TIP3      H2              9.7649976772        3.7983957351       -6.2822124752  SOLV      2885            0.0000000000
      8776      2897  TIP3      OH2            12.8298777954        8.1522067729       -7.5091547460  SOLV      2886            0.0000000000
      8777      2897  TIP3      H1             12.4699593389        8.1277926272       -6.5914114595  SOLV      2886            0.0000000000
      8778      2897  TIP3      H2             12.6550807139        9.0704599865       -7.7868472023  SOLV      2886            0.0000000000
      8779      2898  TIP3      OH2             9.4762432548        9.4737253420      -21.9601431924  SOLV      2887            0.0000000000
      8780      2898  TIP3      H1              9.1781833059        9.2176163122      -22.8530765452  SOLV      2887            0.0000000000
      8781      2898  TIP3      H2             10.3441093797        9.8743755424      -22.1687529347  SOLV      2887            0.0000000000
      8782      2899  TIP3      OH2             6.6305948873        3.2466280783      -18.9201621774  SOLV      2888            0.0000000000
      8783      2899  TIP3      H1              6.2967351433        3.2302218139      -18.0015233081  SOLV      2888            0.0000000000
      8784      2899  TIP3      H2              6.2320278015        2.4183178013      -19.2519710513  SOLV      2888            0.0000000000
      8785      2900  TIP3      OH2             4.5190905002        7.9409419123       -8.4666559219  SOLV      2889            0.0000000000
      8786      2900  TIP3      H1              4.0106739412        8.1213915266       -7.6486386027  SOLV      2889            0.0000000000
      8787      2900  TIP3      H2              4.3445951947        8.7623570551       -8.9786029445  SOLV      2889            0.0000000000
      8788      2901  TIP3      OH2             3.3284493681        6.8132324731      -13.3211249747  SOLV      2890            0.0000000000
      8789      2901  TIP3      H1              2.4106820575        6.5303832856      -13.1144319451  SOLV      2890            0.0000000000
      8790      2901  TIP3      H2              3.4428843537        6.3852147954      -14.1994405156  SOLV      2890            0.0000000000
      8791      2902  TIP3      OH2             8.2344286932        7.6337040903      -16.0011776241  SOLV      2891            0.0000000000
      8792      2902  TIP3      H1              7.7344700113        8.3505047385      -16.4484860836  SOLV      2891            0.0000000000
      8793      2902  TIP3      H2              8.7985980452        7.3013990046      -16.7263480697  SOLV      2891            0.0000000000
      8794      2903  TIP3      OH2            10.0233021983       10.3637962062       -5.1732990196  SOLV      2892            0.0000000000
      8795      2903  TIP3      H1              9.7716031923        9.6383904866       -4.5585469320  SOLV      2892            0.0000000000
      8796      2903  TIP3      H2             10.9565164317       10.4882881605       -4.9173399067  SOLV      2892            0.0000000000
      8797      2904  TIP3      OH2             9.8040752313        7.8750084696      -13.6638757401  SOLV      2893            0.0000000000
      8798      2904  TIP3      H1              9.1672690161        8.1443366606      -14.3567458346  SOLV      2893            0.0000000000
      8799      2904  TIP3      H2             10.1764532510        7.0886088415      -14.1139613671  SOLV      2893            0.0000000000
      8800      2905  TIP3      OH2             2.6980444142        8.2438467759       -6.4130442278  SOLV      2894            0.0000000000
      8801      2905  TIP3      H1              3.0200024238        8.8385436425       -5.7200822533  SOLV      2894            0.0000000000
      8802      2905  TIP3      H2              2.5266391685        7.4160097861       -5.9174157440  SOLV      2894            0.0000000000
      8803      2906  TIP3      OH2             3.2183671839        3.0109663441      -19.2658034879  SOLV      2895            0.0000000000
      8804      2906  TIP3      H1              3.1124354294        2.9844769408      -18.2924470377  SOLV      2895            0.0000000000
      8805      2906  TIP3      H2              2.4269913751        3.5184868824      -19.5213549607  SOLV      2895            0.0000000000
      8806      2907  TIP3      OH2            -1.3541812151        3.4349532612      -10.6025567199  SOLV      2896            0.0000000000
      8807      2907  TIP3      H1             -0.6288261034        3.7509506670      -10.0239104714  SOLV      2896            0.0000000000
      8808      2907  TIP3      H2             -0.8925261738        3.0815170414      -11.3731385066  SOLV      2896            0.0000000000
      8809      2908  TIP3      OH2            -1.7613486355        3.2147477195      -15.3886076129  SOLV      2897            0.0000000000
      8810      2908  TIP3      H1             -1.2965995784        3.6008491122      -16.1610267256  SOLV      2897            0.0000000000
      8811      2908  TIP3      H2             -2.3655433195        3.9505523914      -15.1721249513  SOLV      2897            0.0000000000
      8812      2909  TIP3      OH2             9.8790144277       10.3655417123       -9.4641843111  SOLV      2898            0.0000000000
      8813      2909  TIP3      H1             10.2277006938        9.6507301711      -10.0469572416  SOLV      2898            0.0000000000
      8814      2909  TIP3      H2              9.5944148769        9.8312753447       -8.6928542353  SOLV      2898            0.0000000000
      8815      2910  TIP3      OH2             6.6857389411        4.9694975486      -12.7184825381  SOLV      2899            0.0000000000
      8816      2910  TIP3      H1              5.8793005571        4.9782912840      -12.1631810579  SOLV      2899            0.0000000000
      8817      2910  TIP3      H2              7.3897406528        4.9186391898      -12.0487031172  SOLV      2899            0.0000000000
      8818      2911  TIP3      OH2             0.9681845069        5.5968825059      -12.6550313892  SOLV      2900            0.0000000000
      8819      2911  TIP3      H1              0.0236491032        5.6644755647      -12.9307913393  SOLV      2900            0.0000000000
      8820      2911  TIP3      H2              1.1904034980        4.6681306415      -12.8538613949  SOLV      2900            0.0000000000
      8821      2912  TIP3      OH2             3.5874677416        5.5063303871      -15.7044683207  SOLV      2901            0.0000000000
      8822      2912  TIP3      H1              4.5293737952        5.6655831673      -15.9079673646  SOLV      2901            0.0000000000
      8823      2912  TIP3      H2              3.1278770452        5.7485242794      -16.5400975872  SOLV      2901            0.0000000000
      8824      2913  TIP3      OH2            11.5431699130        5.7635279012      -10.7139402462  SOLV      2902            0.0000000000
      8825      2913  TIP3      H1             11.2553313591        5.9192154454       -9.7844200604  SOLV      2902            0.0000000000
      8826      2913  TIP3      H2             10.8318805762        5.1774820475      -11.0219169861  SOLV      2902            0.0000000000
      8827      2914  TIP3      OH2             2.1171959609        5.8945413195      -17.9776216168  SOLV      2903            0.0000000000
      8828      2914  TIP3      H1              1.4087880596        5.4284929194      -18.4555796555  SOLV      2903            0.0000000000
      8829      2914  TIP3      H2              2.6368968946        6.2552201355      -18.7248214658  SOLV      2903            0.0000000000
      8830      2915  TIP3      OH2            13.2914042743       22.6688983787       -8.4526293479  SOLV      2904            0.0000000000
      8831      2915  TIP3      H1             13.2785135152       22.9007307661       -9.3975729877  SOLV      2904            0.0000000000
      8832      2915  TIP3      H2             14.1010286502       23.1244211480       -8.1486717180  SOLV      2904            0.0000000000
      8833      2916  TIP3      OH2             2.8076486884       13.7578316362       -4.2903566899  SOLV      2905            0.0000000000
      8834      2916  TIP3      H1              3.6076863394       14.0448820106       -3.8076796851  SOLV      2905            0.0000000000
      8835      2916  TIP3      H2              2.1558669151       13.7529587296       -3.5613704222  SOLV      2905            0.0000000000
      8836      2917  TIP3      OH2             7.4356766240        8.3263235864      -11.7203884896  SOLV      2906            0.0000000000
      8837      2917  TIP3      H1              8.1777074203        7.9156158516      -12.1878071489  SOLV      2906            0.0000000000
      8838      2917  TIP3      H2              7.4739864361        7.8918485133      -10.8464368526  SOLV      2906            0.0000000000
      8839      2918  TIP3      OH2             2.6007726779        3.1477676144      -12.8558714923  SOLV      2907            0.0000000000
      8840      2918  TIP3      H1              2.2319787030        2.3891551314      -12.3499317043  SOLV      2907            0.0000000000
      8841      2918  TIP3      H2              3.0603982905        2.6918874755      -13.5703429890  SOLV      2907            0.0000000000
      8842      2919  TIP3      OH2             7.2049304837        7.3286236821       -8.8694736069  SOLV      2908            0.0000000000
      8843      2919  TIP3      H1              6.2986389841        7.6497548307       -8.6832888097  SOLV      2908            0.0000000000
      8844      2919  TIP3      H2              7.7657292307        7.9266870013       -8.3374150274  SOLV      2908            0.0000000000
      8845      2920  TIP3      OH2             4.5794966180       11.1733855538      -17.9370407986  SOLV      2909            0.0000000000
      8846      2920  TIP3      H1              3.8583397405       10.5164748971      -18.0444209369  SOLV      2909            0.0000000000
      8847      2920  TIP3      H2              4.3861395885       11.5091240300      -17.0263970446  SOLV      2909            0.0000000000
      8848      2921  TIP3      OH2            13.5458695326       13.5434596287      -11.6463226688  SOLV      2910            0.0000000000
      8849      2921  TIP3      H1             13.8090911042       14.0378315305      -12.4521646987  SOLV      2910            0.0000000000
      8850      2921  TIP3      H2             12.7019370653       13.1260403255      -11.9211674858  SOLV      2910            0.0000000000
      8851      2922  TIP3      OH2             9.1337491455        4.2698829669      -19.2172576759  SOLV      2911            0.0000000000
      8852      2922  TIP3      H1              8.1744527319        4.0673782629      -19.1092042327  SOLV      2911            0.0000000000
      8853      2922  TIP3      H2              9.2020315816        5.2085318205      -18.9521253957  SOLV      2911            0.0000000000
      8854      2923  TIP3      OH2             8.5225840626       14.3386549711       -7.8985879029  SOLV      2912            0.0000000000
      8855      2923  TIP3      H1              8.9286674410       14.1861649115       -7.0370698538  SOLV      2912            0.0000000000
      8856      2923  TIP3      H2              8.1697054439       15.2404060241       -7.8173482148  SOLV      2912            0.0000000000
      8857      2924  TIP3      OH2             9.8150719208        6.7748785937      -18.1849478504  SOLV      2913            0.0000000000
      8858      2924  TIP3      H1             10.7812468924        6.8208264290      -18.0365533140  SOLV      2913            0.0000000000
      8859      2924  TIP3      H2              9.6425833986        7.5797532101      -18.7081958229  SOLV      2913            0.0000000000
      8860      2925  TIP3      OH2             1.5207025099       11.4258787137      -11.1674805883  SOLV      2914            0.0000000000
      8861      2925  TIP3      H1              1.9190883678       11.1200035683      -12.0071585802  SOLV      2914            0.0000000000
      8862      2925  TIP3      H2              1.9533733356       10.8463635568      -10.5219344545  SOLV      2914            0.0000000000
      8863      2926  TIP3      OH2             5.9679643396       12.6454118131      -19.7980375798  SOLV      2915            0.0000000000
      8864      2926  TIP3      H1              5.4997799072       13.5070850444      -19.6901444639  SOLV      2915            0.0000000000
      8865      2926  TIP3      H2              5.4722259792       12.0859885668      -19.1596956634  SOLV      2915            0.0000000000
      8866      2927  TIP3      OH2             0.3404746299       10.5861427185       -5.0056992722  SOLV      2916            0.0000000000
      8867      2927  TIP3      H1              0.4806862104       10.3986428427       -4.0583720140  SOLV      2916            0.0000000000
      8868      2927  TIP3      H2             -0.3732705777        9.9571872118       -5.2191627042  SOLV      2916            0.0000000000
      8869      2928  TIP3      OH2             7.6205600016       11.7777853859       -4.8054521039  SOLV      2917            0.0000000000
      8870      2928  TIP3      H1              7.0118226518       11.1616385116       -5.2391274904  SOLV      2917            0.0000000000
      8871      2928  TIP3      H2              8.4886823643       11.4106546633       -5.0765759238  SOLV      2917            0.0000000000
      8872      2929  TIP3      OH2            10.1296372285       16.9929374401       -8.9435177125  SOLV      2918            0.0000000000
      8873      2929  TIP3      H1              9.1659634435       16.9719887419       -8.8054888563  SOLV      2918            0.0000000000
      8874      2929  TIP3      H2             10.4145505167       17.4964945861       -8.1504957711  SOLV      2918            0.0000000000
      8875      2930  TIP3      OH2            14.1963900582        7.7157301076      -19.8537043327  SOLV      2919            0.0000000000
      8876      2930  TIP3      H1             13.5856677054        7.2653745727      -20.4837646556  SOLV      2919            0.0000000000
      8877      2930  TIP3      H2             14.1709640628        8.6070192928      -20.2666195760  SOLV      2919            0.0000000000
      8878      2931  TIP3      OH2            16.4313329245       16.2953799166       -9.0759161562  SOLV      2920            0.0000000000
      8879      2931  TIP3      H1             15.4557802126       16.2076219654       -9.1571307400  SOLV      2920            0.0000000000
      8880      2931  TIP3      H2             16.7037235581       15.9912716470       -9.9707003568  SOLV      2920            0.0000000000
      8881      2932  TIP3      OH2            11.1895948023       15.8867553241      -20.7799884208  SOLV      2921            0.0000000000
      8882      2932  TIP3      H1             11.0312579880       15.1797917737      -20.1388838422  SOLV      2921            0.0000000000
      8883      2932  TIP3      H2             11.4187841039       15.4046861567      -21.5949830083  SOLV      2921            0.0000000000
      8884      2933  TIP3      OH2            11.2029520809       12.1888118351      -12.5243498013  SOLV      2922            0.0000000000
      8885      2933  TIP3      H1             10.2794109700       11.9261506036      -12.3494256100  SOLV      2922            0.0000000000
      8886      2933  TIP3      H2             11.5521546220       11.3656762961      -12.9214159809  SOLV      2922            0.0000000000
      8887      2934  TIP3      OH2             2.5181359253       14.4473459891      -14.8948319568  SOLV      2923            0.0000000000
      8888      2934  TIP3      H1              2.4627459222       15.2650614116      -15.4225362530  SOLV      2923            0.0000000000
      8889      2934  TIP3      H2              1.5915782668       14.2813680492      -14.6935094992  SOLV      2923            0.0000000000
      8890      2935  TIP3      OH2            -1.8367421056        7.4717800861      -17.7949963915  SOLV      2924            0.0000000000
      8891      2935  TIP3      H1             -1.3890983631        8.3121479161      -17.5606201826  SOLV      2924            0.0000000000
      8892      2935  TIP3      H2             -2.6150377182        7.5086630059      -17.1938145144  SOLV      2924            0.0000000000
      8893      2936  TIP3      OH2             3.7997693951       12.0683323985      -15.4998848375  SOLV      2925            0.0000000000
      8894      2936  TIP3      H1              3.4765542064       12.9662879869      -15.2831453049  SOLV      2925            0.0000000000
      8895      2936  TIP3      H2              3.4786532447       11.5609840350      -14.7309754741  SOLV      2925            0.0000000000
      8896      2937  TIP3      OH2             5.2458086194       17.8495420029      -10.1937556845  SOLV      2926            0.0000000000
      8897      2937  TIP3      H1              5.6706023426       18.5758090043      -10.6928460998  SOLV      2926            0.0000000000
      8898      2937  TIP3      H2              6.0070596582       17.4827194722       -9.7135439644  SOLV      2926            0.0000000000
      8899      2938  TIP3      OH2             1.6733512674       16.8411805135      -16.3619745414  SOLV      2927            0.0000000000
      8900      2938  TIP3      H1              0.8217379807       16.9141665011      -15.8851029331  SOLV      2927            0.0000000000
      8901      2938  TIP3      H2              1.9928419360       17.7694551068      -16.3108543009  SOLV      2927            0.0000000000
      8902      2939  TIP3      OH2             9.0564072349       14.2471244361      -10.5781317249  SOLV      2928            0.0000000000
      8903      2939  TIP3      H1              8.9336208591       14.2201390496       -9.6013509945  SOLV      2928            0.0000000000
      8904      2939  TIP3      H2              9.8511561718       13.7070732145      -10.6805542433  SOLV      2928            0.0000000000
      8905      2940  TIP3      OH2             8.8217193577       13.2004516168      -21.7031642201  SOLV      2929            0.0000000000
      8906      2940  TIP3      H1              9.4322170915       12.9596755593      -20.9651375178  SOLV      2929            0.0000000000
      8907      2940  TIP3      H2              7.9909483478       12.8615897643      -21.3378800063  SOLV      2929            0.0000000000
      8908      2941  TIP3      OH2            11.5538914722       19.5197620351      -10.0769869245  SOLV      2930            0.0000000000
      8909      2941  TIP3      H1             10.7679528695       18.9425123713      -10.1184429659  SOLV      2930            0.0000000000
      8910      2941  TIP3      H2             11.3747400371       20.1446784319      -10.8121425595  SOLV      2930            0.0000000000
      8911      2942  TIP3      OH2            12.1795046141       17.8474950606      -23.5669786743  SOLV      2931            0.0000000000
      8912      2942  TIP3      H1             12.5559674898       18.5216913495      -24.1558514365  SOLV      2931            0.0000000000
      8913      2942  TIP3      H2             11.4159713712       18.3496579271      -23.2122468025  SOLV      2931            0.0000000000
      8914      2943  TIP3      OH2             2.1778172525        5.7752662841       -5.0936755666  SOLV      2932            0.0000000000
      8915      2943  TIP3      H1              1.2137759468        5.9484837932       -5.0001405044  SOLV      2932            0.0000000000
      8916      2943  TIP3      H2              2.2337563432        4.9614592729       -4.5722997106  SOLV      2932            0.0000000000
      8917      2944  TIP3      OH2            10.4786177243       12.4653355172      -19.6548887026  SOLV      2933            0.0000000000
      8918      2944  TIP3      H1             10.3740395738       11.8091753802      -18.9354080558  SOLV      2933            0.0000000000
      8919      2944  TIP3      H2             11.4540488063       12.4460130512      -19.7559553872  SOLV      2933            0.0000000000
      8920      2945  TIP3      OH2            -0.3967616416       16.4771282331       -8.6244754912  SOLV      2934            0.0000000000
      8921      2945  TIP3      H1              0.1333500857       15.7606896341       -8.2393377948  SOLV      2934            0.0000000000
      8922      2945  TIP3      H2             -0.1673259073       17.2119190203       -8.0428869888  SOLV      2934            0.0000000000
      8923      2946  TIP3      OH2             2.3887503811       12.9531442343      -21.8153774396  SOLV      2935            0.0000000000
      8924      2946  TIP3      H1              2.5679432472       12.0169976634      -22.0252602836  SOLV      2935            0.0000000000
      8925      2946  TIP3      H2              2.2532772472       12.8967257203      -20.8453082920  SOLV      2935            0.0000000000
      8926      2947  TIP3      OH2             1.9241854377       13.0101130681      -19.0937441917  SOLV      2936            0.0000000000
      8927      2947  TIP3      H1              2.6130374714       12.6974866067      -18.4912073582  SOLV      2936            0.0000000000
      8928      2947  TIP3      H2              1.9518328267       13.9827237660      -18.9440111847  SOLV      2936            0.0000000000
      8929      2948  TIP3      OH2            -0.7632188130        9.9055820076      -16.9828517172  SOLV      2937            0.0000000000
      8930      2948  TIP3      H1             -1.4310506687       10.3544307316      -16.4194408643  SOLV      2937            0.0000000000
      8931      2948  TIP3      H2             -0.6319143122       10.5918792071      -17.6639873405  SOLV      2937            0.0000000000
      8932      2949  TIP3      OH2            10.8262209718        6.3391940152       -8.1502377469  SOLV      2938            0.0000000000
      8933      2949  TIP3      H1             11.6084678550        6.8065036753       -7.7946907180  SOLV      2938            0.0000000000
      8934      2949  TIP3      H2             10.7601203339        5.5554881178       -7.5651128621  SOLV      2938            0.0000000000
      8935      2950  TIP3      OH2             9.6394673672        3.7534859214      -16.3789168369  SOLV      2939            0.0000000000
      8936      2950  TIP3      H1              9.5021954474        3.9930575662      -17.3144917852  SOLV      2939            0.0000000000
      8937      2950  TIP3      H2             10.0586136327        4.5650091239      -16.0188664029  SOLV      2939            0.0000000000
      8938      2951  TIP3      OH2             4.5893509615       14.9693554625      -19.6452795892  SOLV      2940            0.0000000000
      8939      2951  TIP3      H1              3.7209950646       15.1711329160      -19.2421683384  SOLV      2940            0.0000000000
      8940      2951  TIP3      H2              4.7929451621       15.8270448954      -20.0383424900  SOLV      2940            0.0000000000
      8941      2952  TIP3      OH2             6.4185197046        5.6293969126      -15.3983412811  SOLV      2941            0.0000000000
      8942      2952  TIP3      H1              7.0707985708        6.3435845237      -15.5640416374  SOLV      2941            0.0000000000
      8943      2952  TIP3      H2              6.5035473750        5.5191796415      -14.4261514190  SOLV      2941            0.0000000000
      8944      2953  TIP3      OH2             9.1888060932        8.7560386758       -7.3584739397  SOLV      2942            0.0000000000
      8945      2953  TIP3      H1              9.4485451894        9.2702353448       -6.5662627948  SOLV      2942            0.0000000000
      8946      2953  TIP3      H2              9.7303378880        7.9536636222       -7.2686798986  SOLV      2942            0.0000000000
      8947      2954  TIP3      OH2             7.8978592320        2.7854705051      -14.4077128601  SOLV      2943            0.0000000000
      8948      2954  TIP3      H1              7.8144715715        3.5633473172      -13.8254868726  SOLV      2943            0.0000000000
      8949      2954  TIP3      H2              8.5364359391        3.1249935556      -15.0761691313  SOLV      2943            0.0000000000
      8950      2955  TIP3      OH2             2.0656823802       15.7237435058      -18.8491833176  SOLV      2944            0.0000000000
      8951      2955  TIP3      H1              1.7627086962       16.4340464337      -19.4573350540  SOLV      2944            0.0000000000
      8952      2955  TIP3      H2              1.9039673607       16.1429047543      -17.9741418206  SOLV      2944            0.0000000000
      8953      2956  TIP3      OH2             3.0483783812        2.8557271893      -16.5145209476  SOLV      2945            0.0000000000
      8954      2956  TIP3      H1              2.9955140860        3.7432824221      -16.1096296186  SOLV      2945            0.0000000000
      8955      2956  TIP3      H2              4.0132426462        2.6986505782      -16.4295408150  SOLV      2945            0.0000000000
      8956      2957  TIP3      OH2            15.5505628231        7.8043463506       -7.5776056748  SOLV      2946            0.0000000000
      8957      2957  TIP3      H1             14.5918893520        7.7313632600       -7.3801547519  SOLV      2946            0.0000000000
      8958      2957  TIP3      H2             15.5955842423        7.3351345436       -8.4178557980  SOLV      2946            0.0000000000
      8959      2958  TIP3      OH2            12.0720714561        9.7167995507      -13.6537295344  SOLV      2947            0.0000000000
      8960      2958  TIP3      H1             11.3115717677        9.1273276355      -13.5081228511  SOLV      2947            0.0000000000
      8961      2958  TIP3      H2             12.7846220461        9.2556489770      -13.1592199933  SOLV      2947            0.0000000000
      8962      2959  TIP3      OH2            -0.7507656581       11.9489979327      -18.9587414811  SOLV      2948            0.0000000000
      8963      2959  TIP3      H1             -0.0332164836       12.6019496642      -18.8693749707  SOLV      2948            0.0000000000
      8964      2959  TIP3      H2             -0.3340281536       11.3506754236      -19.6171189045  SOLV      2948            0.0000000000
      8965      2960  TIP3      OH2            -1.3649818214        4.7560148867      -17.6394735241  SOLV      2949            0.0000000000
      8966      2960  TIP3      H1             -1.3541263983        5.7344881028      -17.6355797466  SOLV      2949            0.0000000000
      8967      2960  TIP3      H2             -2.2172144397        4.5677302741      -18.0408513788  SOLV      2949            0.0000000000
      8968      2961  TIP3      OH2            11.7766014149       19.3284297829      -14.1913151094  SOLV      2950            0.0000000000
      8969      2961  TIP3      H1             11.3563407772       19.8023065474      -14.9427063831  SOLV      2950            0.0000000000
      8970      2961  TIP3      H2             12.7236311051       19.5247807173      -14.3769812851  SOLV      2950            0.0000000000
      8971      2962  TIP3      OH2             2.5339957036        1.9707135601       -8.9349728569  SOLV      2951            0.0000000000
      8972      2962  TIP3      H1              2.2078553406        1.6075223559       -9.7847027600  SOLV      2951            0.0000000000
      8973      2962  TIP3      H2              2.4376902452        1.1996077045       -8.3355489142  SOLV      2951            0.0000000000
      8974      2963  TIP3      OH2            -2.1232672563       14.1727785169      -15.1123734649  SOLV      2952            0.0000000000
      8975      2963  TIP3      H1             -2.7339535679       14.4572344269      -14.4219241300  SOLV      2952            0.0000000000
      8976      2963  TIP3      H2             -2.4878429727       14.6162734638      -15.9066848725  SOLV      2952            0.0000000000
      8977      2964  TIP3      OH2            -0.4620250180       19.6754584936       -4.3914601728  SOLV      2953            0.0000000000
      8978      2964  TIP3      H1              0.3935252922       19.6839685615       -3.9053277744  SOLV      2953            0.0000000000
      8979      2964  TIP3      H2             -0.6606077398       18.7241029754       -4.3899169147  SOLV      2953            0.0000000000
      8980      2965  TIP3      OH2             4.2657378618       19.1666727273       -3.9363096488  SOLV      2954            0.0000000000
      8981      2965  TIP3      H1              5.2125724476       18.9858030240       -3.8567790649  SOLV      2954            0.0000000000
      8982      2965  TIP3      H2              4.0205782765       18.5412371872       -4.6493438592  SOLV      2954            0.0000000000
      8983      2966  TIP3      OH2             4.0070197440       14.9359041875      -22.7970908505  SOLV      2955            0.0000000000
      8984      2966  TIP3      H1              3.3150275648       14.3360920585      -22.4387622803  SOLV      2955            0.0000000000
      8985      2966  TIP3      H2              4.7865119934       14.4133841528      -22.5844361364  SOLV      2955            0.0000000000
      8986      2967  TIP3      OH2            10.6691390172       18.2942457763       -6.5857769973  SOLV      2956            0.0000000000
      8987      2967  TIP3      H1             10.6205678161       17.5831997529       -5.9054458440  SOLV      2956            0.0000000000
      8988      2967  TIP3      H2             11.4540533399       18.7986106245       -6.2937048967  SOLV      2956            0.0000000000
      8989      2968  TIP3      OH2             8.5531062272       15.3718503974      -23.5147335516  SOLV      2957            0.0000000000
      8990      2968  TIP3      H1              8.9613684635       14.8196465386      -22.8179769086  SOLV      2957            0.0000000000
      8991      2968  TIP3      H2              9.2463499494       15.3769028019      -24.2040234904  SOLV      2957            0.0000000000
      8992      2969  TIP3      OH2             0.7909619926       13.6674435396       -2.3780135855  SOLV      2958            0.0000000000
      8993      2969  TIP3      H1              0.9206450521       12.7089471545       -2.2733749706  SOLV      2958            0.0000000000
      8994      2969  TIP3      H2             -0.0806394638       13.7011422511       -2.8308688675  SOLV      2958            0.0000000000
      8995      2970  TIP3      OH2             0.6243887902       10.0848156357      -20.3988470322  SOLV      2959            0.0000000000
      8996      2970  TIP3      H1              1.1732456257        9.7792900196      -19.6516475869  SOLV      2959            0.0000000000
      8997      2970  TIP3      H2              1.3074387135       10.1445232864      -21.0997301097  SOLV      2959            0.0000000000
      8998      2971  TIP3      OH2             6.8629950085       14.5313308499       -4.6248152910  SOLV      2960            0.0000000000
      8999      2971  TIP3      H1              6.4614913291       14.7278759004       -5.4931274996  SOLV      2960            0.0000000000
      9000      2971  TIP3      H2              7.2022623650       13.6183594550       -4.7450181309  SOLV      2960            0.0000000000
      9001      2972  TIP3      OH2             5.6362217082       12.1796085942      -22.4617883893  SOLV      2961            0.0000000000
      9002      2972  TIP3      H1              5.6910988567       12.2954100444      -21.4876102716  SOLV      2961            0.0000000000
      9003      2972  TIP3      H2              5.7157629255       11.1980517290      -22.5061928954  SOLV      2961            0.0000000000
      9004      2973  TIP3      OH2            11.7746920047       14.6745820026       -8.5623261392  SOLV      2962            0.0000000000
      9005      2973  TIP3      H1             12.5512721720       15.0783740128       -8.9967820036  SOLV      2962            0.0000000000
      9006      2973  TIP3      H2             11.1004591567       15.3595331000       -8.7242497422  SOLV      2962            0.0000000000
      9007      2974  TIP3      OH2             2.0118147674       10.9535650051       -2.4959970151  SOLV      2963            0.0000000000
      9008      2974  TIP3      H1              2.8524868047       10.6108903400       -2.8163332164  SOLV      2963            0.0000000000
      9009      2974  TIP3      H2              2.2680298969       11.2833195860       -1.6075521066  SOLV      2963            0.0000000000
      9010      2975  TIP3      OH2             2.5965161200        9.2317039081      -18.2634365620  SOLV      2964            0.0000000000
      9011      2975  TIP3      H1              2.3364244017        8.8752306149      -17.3950903225  SOLV      2964            0.0000000000
      9012      2975  TIP3      H2              2.9792727218        8.4444858013      -18.7036298272  SOLV      2964            0.0000000000
      9013      2976  TIP3      OH2             5.3396833262        9.8197878039       -5.9299284163  SOLV      2965            0.0000000000
      9014      2976  TIP3      H1              4.5718295213       10.4294074675       -5.8936089502  SOLV      2965            0.0000000000
      9015      2976  TIP3      H2              5.8276726503       10.1579536789       -6.7139411848  SOLV      2965            0.0000000000
      9016      2977  TIP3      OH2             3.6887377971        7.1743169751      -19.8338586766  SOLV      2966            0.0000000000
      9017      2977  TIP3      H1              3.4380422945        7.2368069998      -20.7765665594  SOLV      2966            0.0000000000
      9018      2977  TIP3      H2              4.6652923522        7.2105616677      -19.9030535625  SOLV      2966            0.0000000000
      9019      2978  TIP3      OH2            10.5226117488       13.8421033669       -4.6212368207  SOLV      2967            0.0000000000
      9020      2978  TIP3      H1             11.3185636180       13.5330581236       -5.0667621488  SOLV      2967            0.0000000000
      9021      2978  TIP3      H2             10.4571140501       13.2113721634       -3.8787227083  SOLV      2967            0.0000000000
      9022      2979  TIP3      OH2            11.7991792804       10.4259462903      -23.1245948857  SOLV      2968            0.0000000000
      9023      2979  TIP3      H1             11.6477067321        9.9771009124      -23.9787223357  SOLV      2968            0.0000000000
      9024      2979  TIP3      H2             11.4794896266       11.3253197927      -23.3586209472  SOLV      2968            0.0000000000
      9025      2980  TIP3      OH2             6.5178005046        7.7103275615       -4.6522689995  SOLV      2969            0.0000000000
      9026      2980  TIP3      H1              6.5842847451        6.9486289105       -5.2610572587  SOLV      2969            0.0000000000
      9027      2980  TIP3      H2              6.1228704723        8.4019402759       -5.2295848610  SOLV      2969            0.0000000000
      9028      2981  TIP3      OH2             6.6792225217        5.5628575610       -6.5695209578  SOLV      2970            0.0000000000
      9029      2981  TIP3      H1              6.9231083976        5.9654000498       -7.4234331848  SOLV      2970            0.0000000000
      9030      2981  TIP3      H2              5.7521226232        5.2902506596       -6.7392663025  SOLV      2970            0.0000000000
      9031      2982  TIP3      OH2             6.8293276501       10.9232280374       -7.8873753833  SOLV      2971            0.0000000000
      9032      2982  TIP3      H1              7.7015889059       11.0792691297       -8.2619232080  SOLV      2971            0.0000000000
      9033      2982  TIP3      H2              6.2810635827       11.5932559621       -8.3511346528  SOLV      2971            0.0000000000
      9034      2983  TIP3      OH2            12.7257616559       10.4521255366       -4.0170846511  SOLV      2972            0.0000000000
      9035      2983  TIP3      H1             13.2298829075        9.6277188819       -3.8467923034  SOLV      2972            0.0000000000
      9036      2983  TIP3      H2             13.4112842968       10.9915878487       -4.4297998567  SOLV      2972            0.0000000000
      9037      2984  TIP3      OH2            13.0802144895       13.1445810901       -6.7401416827  SOLV      2973            0.0000000000
      9038      2984  TIP3      H1             12.5123452704       13.7153577315       -7.3100471689  SOLV      2973            0.0000000000
      9039      2984  TIP3      H2             13.9647782176       13.3560814646       -7.1152779939  SOLV      2973            0.0000000000
      9040      2985  TIP3      OH2             5.4179807184        8.7909726429       -2.2964042829  SOLV      2974            0.0000000000
      9041      2985  TIP3      H1              4.6692866045        8.2142571949       -2.1023120658  SOLV      2974            0.0000000000
      9042      2985  TIP3      H2              5.7298797579        8.4636276056       -3.1661193919  SOLV      2974            0.0000000000
      9043      2986  TIP3      OH2             8.2272074618        3.2955289171       -5.5930486563  SOLV      2975            0.0000000000
      9044      2986  TIP3      H1              7.6973133620        4.0788720790       -5.8539761640  SOLV      2975            0.0000000000
      9045      2986  TIP3      H2              7.5198543714        2.6114244774       -5.6783501154  SOLV      2975            0.0000000000
      9046      2987  TIP3      OH2             9.2063210763        8.1830648862       -3.7659925652  SOLV      2976            0.0000000000
      9047      2987  TIP3      H1              9.1524673490        8.0302047478       -2.7995104536  SOLV      2976            0.0000000000
      9048      2987  TIP3      H2              8.2863058771        7.9572781766       -4.0090268681  SOLV      2976            0.0000000000
      9049      2988  TIP3      OH2            11.6256615426        7.6416427930       -5.1361741175  SOLV      2977            0.0000000000
      9050      2988  TIP3      H1             10.8967931021        7.7657091304       -4.4980859796  SOLV      2977            0.0000000000
      9051      2988  TIP3      H2             12.4105747469        7.5444215644       -4.5590324111  SOLV      2977            0.0000000000
      9052      2989  TIP3      OH2             1.7517682682       17.7580888474      -20.7273768212  SOLV      2978            0.0000000000
      9053      2989  TIP3      H1              2.6992464883       17.6579536557      -20.9320224578  SOLV      2978            0.0000000000
      9054      2989  TIP3      H2              1.4771914620       18.3075791597      -21.4853302651  SOLV      2978            0.0000000000
      9055      2990  TIP3      OH2            -3.4609515123       11.5999550247      -18.6644359932  SOLV      2979            0.0000000000
      9056      2990  TIP3      H1             -2.5004840782       11.7828025979      -18.7571842947  SOLV      2979            0.0000000000
      9057      2990  TIP3      H2             -3.5240720813       10.7023994213      -19.0567857597  SOLV      2979            0.0000000000
      9058      2991  TIP3      OH2            -4.2789673970       17.6914817536      -14.4037840136  SOLV      2980            0.0000000000
      9059      2991  TIP3      H1             -4.9482718483       17.0876122736      -14.7969819598  SOLV      2980            0.0000000000
      9060      2991  TIP3      H2             -3.8476796138       17.0826258714      -13.7652015132  SOLV      2980            0.0000000000
      9061      2992  TIP3      OH2            -2.9486812418       16.1245476214      -12.5657776335  SOLV      2981            0.0000000000
      9062      2992  TIP3      H1             -3.0757268799       15.4344748760      -11.8910645366  SOLV      2981            0.0000000000
      9063      2992  TIP3      H2             -2.4330293406       16.7675038258      -12.0463361962  SOLV      2981            0.0000000000
      9064      2993  TIP3      OH2            14.3284196024       20.2187169985      -14.5508075029  SOLV      2982            0.0000000000
      9065      2993  TIP3      H1             14.6066805844       20.4906889478      -13.6572081531  SOLV      2982            0.0000000000
      9066      2993  TIP3      H2             15.0372582814       20.5730751066      -15.1074769881  SOLV      2982            0.0000000000
      9067      2994  TIP3      OH2            14.6301250058       20.3728061756      -11.7198458825  SOLV      2983            0.0000000000
      9068      2994  TIP3      H1             14.1625946463       19.5102237228      -11.7613226436  SOLV      2983            0.0000000000
      9069      2994  TIP3      H2             15.3614088475       20.1255666328      -11.1288507777  SOLV      2983            0.0000000000
      9070      2995  TIP3      OH2            15.0563234958       17.1759110147       -6.0281211135  SOLV      2984            0.0000000000
      9071      2995  TIP3      H1             14.3635449565       17.2732654118       -5.3456087078  SOLV      2984            0.0000000000
      9072      2995  TIP3      H2             15.5201604357       18.0357938867       -5.9627781649  SOLV      2984            0.0000000000
      9073      2996  TIP3      OH2            13.2551016346       12.3000695710      -19.8481325974  SOLV      2985            0.0000000000
      9074      2996  TIP3      H1             13.9335690062       12.9409675019      -20.1427379104  SOLV      2985            0.0000000000
      9075      2996  TIP3      H2             13.6951443735       11.9107123036      -19.0586293673  SOLV      2985            0.0000000000
      9076      2997  TIP3      OH2            14.5173236094       10.9665331275      -17.8030863102  SOLV      2986            0.0000000000
      9077      2997  TIP3      H1             13.8660206872       10.5542934409      -17.1958700812  SOLV      2986            0.0000000000
      9078      2997  TIP3      H2             15.1968259276       11.3108786241      -17.1853415034  SOLV      2986            0.0000000000
      9079      2998  TIP3      OH2            15.0737451993       14.9029179217      -13.5062257254  SOLV      2987            0.0000000000
      9080      2998  TIP3      H1             15.6357250630       14.2253370574      -13.9328599784  SOLV      2987            0.0000000000
      9081      2998  TIP3      H2             15.0536261538       15.6115946395      -14.1759302115  SOLV      2987            0.0000000000
      9082      2999  TIP3      OH2            13.3358742031       17.8994090019      -11.5629561479  SOLV      2988            0.0000000000
      9083      2999  TIP3      H1             12.6231741338       18.2914861590      -11.0242912979  SOLV      2988            0.0000000000
      9084      2999  TIP3      H2             12.8353977962       17.4273657917      -12.2616968908  SOLV      2988            0.0000000000
      9085      3000  TIP3      OH2            13.8612506517       10.0517193144      -21.3391292093  SOLV      2989            0.0000000000
      9086      3000  TIP3      H1             13.1363406351       10.0861100589      -22.0024558990  SOLV      2989            0.0000000000
      9087      3000  TIP3      H2             13.6128589468       10.8184036306      -20.7835933918  SOLV      2989            0.0000000000
      9088      3001  TIP3      OH2            12.5499464067        6.7633609365      -21.7957643058  SOLV      2990            0.0000000000
      9089      3001  TIP3      H1             12.1428063642        7.0955214842      -22.6017173782  SOLV      2990            0.0000000000
      9090      3001  TIP3      H2             12.3568530079        5.8039223252      -21.8765319199  SOLV      2990            0.0000000000
      9091      3002  TIP3      OH2            12.6124706577        9.5596204811      -16.3571096865  SOLV      2991            0.0000000000
      9092      3002  TIP3      H1             12.7215500260        8.5968513887      -16.4124677592  SOLV      2991            0.0000000000
      9093      3002  TIP3      H2             12.4735145624        9.6969631051      -15.3936495786  SOLV      2991            0.0000000000
      9094      3003  TIP3      OH2            -1.1178224587       10.2795239455       -8.8560882556  SOLV      2992            0.0000000000
      9095      3003  TIP3      H1             -1.1563062758        9.9114527968       -9.7645959707  SOLV      2992            0.0000000000
      9096      3003  TIP3      H2             -0.1422623026       10.2807207728       -8.7053410675  SOLV      2992            0.0000000000
      9097      3004  TIP3      OH2            15.5579671733       13.7964489894       -7.7591110314  SOLV      2993            0.0000000000
      9098      3004  TIP3      H1             16.2515291153       13.1072972053       -7.8724548328  SOLV      2993            0.0000000000
      9099      3004  TIP3      H2             15.8446245273       14.4807054232       -8.3830343944  SOLV      2993            0.0000000000
      9100      3005  TIP3      OH2            17.3546703425       11.7706260387       -7.7277785531  SOLV      2994            0.0000000000
      9101      3005  TIP3      H1             16.6166933696       11.2815612071       -7.3019147323  SOLV      2994            0.0000000000
      9102      3005  TIP3      H2             18.0905116974       11.1476565106       -7.5558763427  SOLV      2994            0.0000000000
      9103      3006  TIP3      OH2            12.0546187788        4.0860841119      -22.0173821236  SOLV      2995            0.0000000000
      9104      3006  TIP3      H1             12.7831996532        3.7784195990      -21.4390276976  SOLV      2995            0.0000000000
      9105      3006  TIP3      H2             11.3110456028        3.5124227951      -21.7735435826  SOLV      2995            0.0000000000
      9106      3007  TIP3      OH2            12.6103344054        6.7139296424      -17.4575620795  SOLV      2996            0.0000000000
      9107      3007  TIP3      H1             13.0391048808        5.8371529389      -17.3089745337  SOLV      2996            0.0000000000
      9108      3007  TIP3      H2             13.1900583100        7.0653479960      -18.1579020949  SOLV      2996            0.0000000000
      9109      3008  TIP3      OH2            14.1928249256        8.3891178678      -12.4526702641  SOLV      2997            0.0000000000
      9110      3008  TIP3      H1             15.0500863696        8.6357265998      -12.8721750947  SOLV      2997            0.0000000000
      9111      3008  TIP3      H2             14.3446725533        8.7761837391      -11.5673846845  SOLV      2997            0.0000000000
      9112      3009  TIP3      OH2            14.9216059168        9.8619519894      -10.1739954970  SOLV      2998            0.0000000000
      9113      3009  TIP3      H1             14.1896286122       10.1972649824       -9.6231756793  SOLV      2998            0.0000000000
      9114      3009  TIP3      H2             15.2504539326       10.6864432604      -10.5951334930  SOLV      2998            0.0000000000
      9115      3010  TIP3      OH2            19.7396163316        6.0191302647       -4.5652062628  SOLV      2999            0.0000000000
      9116      3010  TIP3      H1             20.1068371970        5.2472102463       -5.0433978698  SOLV      2999            0.0000000000
      9117      3010  TIP3      H2             19.1476164238        6.3947322909       -5.2469724602  SOLV      2999            0.0000000000
      9118      3011  TIP3      OH2            13.6966865843        4.2189356064      -17.0226691386  SOLV      3000            0.0000000000
      9119      3011  TIP3      H1             14.1753179358        4.0453770260      -16.1844075271  SOLV      3000            0.0000000000
      9120      3011  TIP3      H2             13.0892114112        3.4513282182      -17.0453175848  SOLV      3000            0.0000000000
      9121      3012  TIP3      OH2             0.6981740623        4.0684319812       -8.8694356472  SOLV      3001            0.0000000000
      9122      3012  TIP3      H1              1.2950460357        3.3050696070       -8.7388837971  SOLV      3001            0.0000000000
      9123      3012  TIP3      H2              1.3393161999        4.7968756496       -8.9196194475  SOLV      3001            0.0000000000
      9124      3013  TIP3      OH2            -1.2975504413        6.7828319199       -8.1001416818  SOLV      3002            0.0000000000
      9125      3013  TIP3      H1             -0.7986669190        6.7356984911       -8.9380896040  SOLV      3002            0.0000000000
      9126      3013  TIP3      H2             -0.9966614964        7.6219617435       -7.7401097010  SOLV      3002            0.0000000000
      9127      3014  TIP3      OH2            18.0326043668        7.1177006005       -6.4301202499  SOLV      3003            0.0000000000
      9128      3014  TIP3      H1             17.1455223026        7.4940755035       -6.2628634753  SOLV      3003            0.0000000000
      9129      3014  TIP3      H2             17.7912091009        6.4252908592       -7.0766673223  SOLV      3003            0.0000000000
      9130      3015  TIP3      OH2            14.4466029716        3.5118656126      -20.6680318759  SOLV      3004            0.0000000000
      9131      3015  TIP3      H1             14.8721321955        2.8263260033      -21.2238889676  SOLV      3004            0.0000000000
      9132      3015  TIP3      H2             15.1092766386        4.2310647736      -20.6820943593  SOLV      3004            0.0000000000
      9133      3016  TIP3      OH2            -1.4354519504        1.7716671009      -13.1107854890  SOLV      3005            0.0000000000
      9134      3016  TIP3      H1             -2.3464327202        1.7376910516      -12.7709410953  SOLV      3005            0.0000000000
      9135      3016  TIP3      H2             -1.5235741675        2.3808206541      -13.8717774091  SOLV      3005            0.0000000000
      9136      3017  TIP3      OH2            10.1137376991       18.8982619429      -18.0341726459  SOLV      3006            0.0000000000
      9137      3017  TIP3      H1             10.6736264195       18.7839153329      -18.8291409987  SOLV      3006            0.0000000000
      9138      3017  TIP3      H2             10.6438154197       19.5161765106      -17.5027711052  SOLV      3006            0.0000000000
      9139      3018  TIP3      OH2             0.7054088175        2.8840900110       -4.7001741676  SOLV      3007            0.0000000000
      9140      3018  TIP3      H1              0.3748198373        2.1784085066       -4.1316258169  SOLV      3007            0.0000000000
      9141      3018  TIP3      H2             -0.0702825011        3.0805926047       -5.2583814278  SOLV      3007            0.0000000000
      9142      3019  TIP3      OH2             1.1400185224       16.9298037210       -4.1990612164  SOLV      3008            0.0000000000
      9143      3019  TIP3      H1              0.1996872937       16.7010575602       -4.3289755522  SOLV      3008            0.0000000000
      9144      3019  TIP3      H2              1.2643082684       16.7351908453       -3.2630322713  SOLV      3008            0.0000000000
      9145      3020  TIP3      OH2             2.9792354134       17.2763157010       -8.6898952841  SOLV      3009            0.0000000000
      9146      3020  TIP3      H1              2.4938246543       18.0380153188       -9.0668953816  SOLV      3009            0.0000000000
      9147      3020  TIP3      H2              3.8332618065       17.4097341094       -9.1515849732  SOLV      3009            0.0000000000
      9148      3021  TIP3      OH2             7.3338781219       19.6836069991       -7.3364355166  SOLV      3010            0.0000000000
      9149      3021  TIP3      H1              7.7548780401       19.6476121839       -6.4492310053  SOLV      3010            0.0000000000
      9150      3021  TIP3      H2              8.0024616720       20.2008361509       -7.8335741949  SOLV      3010            0.0000000000
      9151      3022  TIP3      OH2             9.1486181794       21.2308312238       -8.7048259671  SOLV      3011            0.0000000000
      9152      3022  TIP3      H1              9.8533079181       20.7005450274       -9.1042695103  SOLV      3011            0.0000000000
      9153      3022  TIP3      H2              9.6722566654       21.7985192367       -8.0966337791  SOLV      3011            0.0000000000
      9154      3023  TIP3      OH2            17.1315631535        4.8480072778       -7.8486849133  SOLV      3012            0.0000000000
      9155      3023  TIP3      H1             16.2156308947        4.7507035283       -8.1582322767  SOLV      3012            0.0000000000
      9156      3023  TIP3      H2             17.4475002133        3.9173658067       -7.8642991017  SOLV      3012            0.0000000000
      9157      3024  TIP3      OH2            -0.2939014596       19.8266835221       -8.4500790627  SOLV      3013            0.0000000000
      9158      3024  TIP3      H1             -1.2094315965       20.1245180174       -8.6552182848  SOLV      3013            0.0000000000
      9159      3024  TIP3      H2             -0.1488255376       20.2818623812       -7.6134064448  SOLV      3013            0.0000000000
      9160      3025  TIP3      OH2             2.0624947705       19.6153570536       -9.8512071421  SOLV      3014            0.0000000000
      9161      3025  TIP3      H1              1.1892795788       19.7177772126       -9.4086825907  SOLV      3014            0.0000000000
      9162      3025  TIP3      H2              1.8556554864       19.9170482854      -10.7565645993  SOLV      3014            0.0000000000
      9163      3026  TIP3      OH2             6.3178628587       19.8531264078      -11.8857989177  SOLV      3015            0.0000000000
      9164      3026  TIP3      H1              5.6048115686       20.0404526160      -12.5213452782  SOLV      3015            0.0000000000
      9165      3026  TIP3      H2              6.4356600611       20.7248436655      -11.4534656897  SOLV      3015            0.0000000000
      9166      3027  TIP3      OH2             9.0101813189       19.2455260397      -11.3593101400  SOLV      3016            0.0000000000
      9167      3027  TIP3      H1              8.0703146394       19.4232123015      -11.5563722442  SOLV      3016            0.0000000000
      9168      3027  TIP3      H2              9.4523138152       19.9833621140      -11.8089889052  SOLV      3016            0.0000000000
      9169      3028  TIP3      OH2            11.0423485371       21.1511456354      -12.2501119276  SOLV      3017            0.0000000000
      9170      3028  TIP3      H1             10.9216103099       21.9985076924      -12.7292006203  SOLV      3017            0.0000000000
      9171      3028  TIP3      H2             11.3224852412       20.5509809903      -12.9759817878  SOLV      3017            0.0000000000
      9172      3029  TIP3      OH2            -1.1760377865       17.7337185032      -11.0177883026  SOLV      3018            0.0000000000
      9173      3029  TIP3      H1             -0.9190033656       17.4259587635      -10.1207883074  SOLV      3018            0.0000000000
      9174      3029  TIP3      H2             -0.4493627025       17.3172082595      -11.5339018365  SOLV      3018            0.0000000000
      9175      3030  TIP3      OH2             0.7891865332       16.4794638027      -12.4156034910  SOLV      3019            0.0000000000
      9176      3030  TIP3      H1              0.9142640432       15.6307452525      -11.9270459181  SOLV      3019            0.0000000000
      9177      3030  TIP3      H2              1.7071089259       16.8237896839      -12.4184016823  SOLV      3019            0.0000000000
      9178      3031  TIP3      OH2             3.4734246627       17.3712457336      -12.3462481661  SOLV      3020            0.0000000000
      9179      3031  TIP3      H1              3.7396253022       16.4315260158      -12.4218541285  SOLV      3020            0.0000000000
      9180      3031  TIP3      H2              3.9652231182       17.6053631482      -11.5360241977  SOLV      3020            0.0000000000
      9181      3032  TIP3      OH2             9.1556062752        3.9334234472      -11.5188587618  SOLV      3021            0.0000000000
      9182      3032  TIP3      H1              8.7606659682        3.2012722510      -11.0127944399  SOLV      3021            0.0000000000
      9183      3032  TIP3      H2              9.9060811484        3.5004147074      -11.9693460277  SOLV      3021            0.0000000000
      9184      3033  TIP3      OH2            14.3490819724        2.7389418346      -12.5166443456  SOLV      3022            0.0000000000
      9185      3033  TIP3      H1             14.7233174458        3.2689609569      -13.2556789046  SOLV      3022            0.0000000000
      9186      3033  TIP3      H2             13.4116981177        3.0031379486      -12.5404855089  SOLV      3022            0.0000000000
      9187      3034  TIP3      OH2            15.3376424642        3.7256284168      -14.8624709545  SOLV      3023            0.0000000000
      9188      3034  TIP3      H1             16.0815695137        3.2015586568      -15.2287420436  SOLV      3023            0.0000000000
      9189      3034  TIP3      H2             15.6917469882        4.6360206860      -14.9993518363  SOLV      3023            0.0000000000
      9190      3035  TIP3      OH2             1.6451841190        1.0128131863      -11.3965583933  SOLV      3024            0.0000000000
      9191      3035  TIP3      H1              0.7298944689        0.6617353570      -11.3426352849  SOLV      3024            0.0000000000
      9192      3035  TIP3      H2              2.1483014705        0.1697825960      -11.4291417621  SOLV      3024            0.0000000000
      9193      3036  TIP3      OH2            -0.4682486665       -0.2400309468      -14.8743006629  SOLV      3025            0.0000000000
      9194      3036  TIP3      H1             -0.1785974514        0.3424477210      -15.5968739775  SOLV      3025            0.0000000000
      9195      3036  TIP3      H2             -0.7555621928        0.4076978001      -14.1979461592  SOLV      3025            0.0000000000
      9196      3037  TIP3      OH2             6.1230271769        1.3437737280      -12.5758822132  SOLV      3026            0.0000000000
      9197      3037  TIP3      H1              6.6961963340        1.8315007621      -13.1881016163  SOLV      3026            0.0000000000
      9198      3037  TIP3      H2              6.3662940271        1.7250257580      -11.7230207914  SOLV      3026            0.0000000000
      9199      3038  TIP3      OH2            11.4923529136        2.8416952571      -12.7255582134  SOLV      3027            0.0000000000
      9200      3038  TIP3      H1             11.5561960957        2.4359672447      -13.5961359773  SOLV      3027            0.0000000000
      9201      3038  TIP3      H2             11.4160796147        2.0443195021      -12.1451032616  SOLV      3027            0.0000000000
      9202      3039  TIP3      OH2            11.8729125071        2.0995596986      -17.0907971913  SOLV      3028            0.0000000000
      9203      3039  TIP3      H1             11.0256413341        2.5384412361      -16.8885859239  SOLV      3028            0.0000000000
      9204      3039  TIP3      H2             11.7304309970        1.2267508814      -16.6640580273  SOLV      3028            0.0000000000
      9205      3040  TIP3      OH2            -3.3148517780       15.5054546669      -17.1723353312  SOLV      3029            0.0000000000
      9206      3040  TIP3      H1             -4.1804922584       15.1746472499      -17.4809341249  SOLV      3029            0.0000000000
      9207      3040  TIP3      H2             -3.4070129372       16.4427845856      -17.4260228173  SOLV      3029            0.0000000000
      9208      3041  TIP3      OH2             0.7472379087        1.3469078706      -17.2935433189  SOLV      3030            0.0000000000
      9209      3041  TIP3      H1              1.2224734331        0.6970669422      -17.8456525496  SOLV      3030            0.0000000000
      9210      3041  TIP3      H2              1.4885145682        1.8672554489      -16.9223190951  SOLV      3030            0.0000000000
      9211      3042  TIP3      OH2             5.8100177376        3.1184964681      -16.2816218565  SOLV      3031            0.0000000000
      9212      3042  TIP3      H1              6.4011418155        2.6560011378      -15.6629200346  SOLV      3031            0.0000000000
      9213      3042  TIP3      H2              6.0014659500        4.0472511274      -16.0239522066  SOLV      3031            0.0000000000
      9214      3043  TIP3      OH2             4.3836633033       17.2680832416      -21.2968211196  SOLV      3032            0.0000000000
      9215      3043  TIP3      H1              5.2863952212       17.4546051833      -21.6411047508  SOLV      3032            0.0000000000
      9216      3043  TIP3      H2              4.1317049083       16.5397908126      -21.9046999537  SOLV      3032            0.0000000000
      9217      3044  TIP3      OH2            11.6239276276       18.5433722645      -20.3301949445  SOLV      3033            0.0000000000
      9218      3044  TIP3      H1             11.5161267282       17.5700083363      -20.4503644950  SOLV      3033            0.0000000000
      9219      3044  TIP3      H2             11.1687874800       18.8728630454      -21.1313691129  SOLV      3033            0.0000000000
      9220      3045  TIP3      OH2            -2.5560371508       15.6802745881      -20.7181000187  SOLV      3034            0.0000000000
      9221      3045  TIP3      H1             -2.5615780873       15.8394105636      -19.7637450099  SOLV      3034            0.0000000000
      9222      3045  TIP3      H2             -1.6785543862       15.2570264251      -20.8559032808  SOLV      3034            0.0000000000
      9223      3046  TIP3      OH2            14.1774050219        4.2671387157       -3.3997820036  SOLV      3035            0.0000000000
      9224      3046  TIP3      H1             14.5677674869        4.1043819426       -2.5178816458  SOLV      3035            0.0000000000
      9225      3046  TIP3      H2             14.5549496347        5.1367156115       -3.6207288844  SOLV      3035            0.0000000000
      9226      3047  TIP3      OH2            13.8283340469       19.9535379134       -8.4787538542  SOLV      3036            0.0000000000
      9227      3047  TIP3      H1             13.0354204522       19.6556715584       -8.9696594396  SOLV      3036            0.0000000000
      9228      3047  TIP3      H2             13.6361583168       20.9078997836       -8.3934434573  SOLV      3036            0.0000000000
      9229      3048  TIP3      OH2            26.4546119079       13.7644585188      -20.7623225456  SOLV      3037            0.0000000000
      9230      3048  TIP3      H1             26.1203571665       14.6409297471      -21.0519740741  SOLV      3037            0.0000000000
      9231      3048  TIP3      H2             25.7535830095       13.1880299211      -21.1135236283  SOLV      3037            0.0000000000
      9232      3049  TIP3      OH2            26.3631248447       13.7312574567      -16.9236474327  SOLV      3038            0.0000000000
      9233      3049  TIP3      H1             26.7657648692       13.4781008458      -16.0676053613  SOLV      3038            0.0000000000
      9234      3049  TIP3      H2             26.0629110128       12.8723827242      -17.2592758580  SOLV      3038            0.0000000000
      9235      3050  TIP3      OH2            19.4648618027       12.5798910899      -13.3187405889  SOLV      3039            0.0000000000
      9236      3050  TIP3      H1             19.7648091507       11.9177355558      -12.6669731464  SOLV      3039            0.0000000000
      9237      3050  TIP3      H2             20.2753354168       13.0927714165      -13.4419706901  SOLV      3039            0.0000000000
      9238      3051  TIP3      OH2            28.8240948538       16.8792537536      -19.6773126854  SOLV      3040            0.0000000000
      9239      3051  TIP3      H1             28.9059872322       15.9547261725      -19.3846824144  SOLV      3040            0.0000000000
      9240      3051  TIP3      H2             28.2157618202       17.2262230932      -19.0369205883  SOLV      3040            0.0000000000
      9241      3052  TIP3      OH2            19.2428474006       16.7336096726      -16.1669134692  SOLV      3041            0.0000000000
      9242      3052  TIP3      H1             19.1564475793       15.7555172904      -16.1469590606  SOLV      3041            0.0000000000
      9243      3052  TIP3      H2             20.2119682200       16.8196223838      -16.1622974124  SOLV      3041            0.0000000000
      9244      3053  TIP3      OH2            16.2985489344        8.7162357899      -18.3158316884  SOLV      3042            0.0000000000
      9245      3053  TIP3      H1             15.8438484646        9.5511865255      -18.1155065151  SOLV      3042            0.0000000000
      9246      3053  TIP3      H2             15.5802185568        8.2276276608      -18.7538243649  SOLV      3042            0.0000000000
      9247      3054  TIP3      OH2            16.8702634003       11.6223742325      -16.4930882031  SOLV      3043            0.0000000000
      9248      3054  TIP3      H1             17.3782659506       10.8517690396      -16.1513005115  SOLV      3043            0.0000000000
      9249      3054  TIP3      H2             17.5102420427       12.0259306828      -17.0926065144  SOLV      3043            0.0000000000
      9250      3055  TIP3      OH2            24.4936042238       15.9646105266      -16.5496434943  SOLV      3044            0.0000000000
      9251      3055  TIP3      H1             24.9182360859       15.1594558484      -16.9041548108  SOLV      3044            0.0000000000
      9252      3055  TIP3      H2             25.3103238722       16.4478895858      -16.3001070671  SOLV      3044            0.0000000000
      9253      3056  TIP3      OH2            28.6629850464       11.0512751508      -16.2423426127  SOLV      3045            0.0000000000
      9254      3056  TIP3      H1             28.9626185768       10.1412760361      -16.0241561227  SOLV      3045            0.0000000000
      9255      3056  TIP3      H2             28.3051100292       10.8969121813      -17.1392604927  SOLV      3045            0.0000000000
      9256      3057  TIP3      OH2            21.9985951053        7.5816689500      -16.5551612449  SOLV      3046            0.0000000000
      9257      3057  TIP3      H1             21.8619296621        8.2968206500      -17.2109219337  SOLV      3046            0.0000000000
      9258      3057  TIP3      H2             21.5222813244        6.8483774920      -17.0007471170  SOLV      3046            0.0000000000
      9259      3058  TIP3      OH2            28.9388957395        8.4017704121      -20.1634949768  SOLV      3047            0.0000000000
      9260      3058  TIP3      H1             29.5616125308        7.9579064812      -19.5753225682  SOLV      3047            0.0000000000
      9261      3058  TIP3      H2             29.5278663882        8.7297310001      -20.8642052238  SOLV      3047            0.0000000000
      9262      3059  TIP3      OH2            18.3644909818        9.5631992235      -15.4923552520  SOLV      3048            0.0000000000
      9263      3059  TIP3      H1             19.1898399206        9.3782941477      -15.0039428063  SOLV      3048            0.0000000000
      9264      3059  TIP3      H2             18.5282551500        9.0395345399      -16.3042236592  SOLV      3048            0.0000000000
      9265      3060  TIP3      OH2            22.7444200328       11.5644342072      -17.4594332583  SOLV      3049            0.0000000000
      9266      3060  TIP3      H1             23.6978341653       11.3493082225      -17.3596102842  SOLV      3049            0.0000000000
      9267      3060  TIP3      H2             22.3955618720       10.7194513666      -17.8115948130  SOLV      3049            0.0000000000
      9268      3061  TIP3      OH2            21.9851144513        7.3834136066      -12.2048325089  SOLV      3050            0.0000000000
      9269      3061  TIP3      H1             21.4066570303        7.7645896768      -12.8925981716  SOLV      3050            0.0000000000
      9270      3061  TIP3      H2             21.4489340390        7.5708115369      -11.4050849486  SOLV      3050            0.0000000000
      9271      3062  TIP3      OH2            25.3033346434       15.9067694869      -22.0595431477  SOLV      3051            0.0000000000
      9272      3062  TIP3      H1             25.0851983366       15.6661462628      -22.9768471516  SOLV      3051            0.0000000000
      9273      3062  TIP3      H2             25.1574978263       16.8649055061      -22.0644654028  SOLV      3051            0.0000000000
      9274      3063  TIP3      OH2            23.0478752894       15.1502936810      -14.3277076564  SOLV      3052            0.0000000000
      9275      3063  TIP3      H1             22.4553847214       15.8455402874      -13.9655760068  SOLV      3052            0.0000000000
      9276      3063  TIP3      H2             23.5016080731       15.6255762525      -15.0526233773  SOLV      3052            0.0000000000
      9277      3064  TIP3      OH2            20.6973718410        8.5511868414      -14.3587240348  SOLV      3053            0.0000000000
      9278      3064  TIP3      H1             21.3072577228        9.2895199722      -14.1313549771  SOLV      3053            0.0000000000
      9279      3064  TIP3      H2             21.1908025342        8.1565813412      -15.1160413617  SOLV      3053            0.0000000000
      9280      3065  TIP3      OH2            21.3280907486       17.1276781273      -13.3342148139  SOLV      3054            0.0000000000
      9281      3065  TIP3      H1             21.0809752453       18.0211494702      -13.6505103049  SOLV      3054            0.0000000000
      9282      3065  TIP3      H2             20.5549953058       16.9433109337      -12.7590087548  SOLV      3054            0.0000000000
      9283      3066  TIP3      OH2            15.2258847031       14.0234848309      -20.9517173944  SOLV      3055            0.0000000000
      9284      3066  TIP3      H1             14.8573821676       14.2914768340      -21.8109232093  SOLV      3055            0.0000000000
      9285      3066  TIP3      H2             15.5574240713       14.8751733422      -20.6004208077  SOLV      3055            0.0000000000
      9286      3067  TIP3      OH2            25.5217014815        4.5001824653      -14.9683885405  SOLV      3056            0.0000000000
      9287      3067  TIP3      H1             25.3004559577        3.5602910181      -14.8297962174  SOLV      3056            0.0000000000
      9288      3067  TIP3      H2             24.7453893034        4.9279583147      -14.5458246536  SOLV      3056            0.0000000000
      9289      3068  TIP3      OH2            24.7979819114       12.3065708755      -22.4844774433  SOLV      3057            0.0000000000
      9290      3068  TIP3      H1             23.9986775212       12.8130718978      -22.7032293663  SOLV      3057            0.0000000000
      9291      3068  TIP3      H2             25.2858060686       12.3145391486      -23.3256017843  SOLV      3057            0.0000000000
      9292      3069  TIP3      OH2            24.7262821125        9.6265016684      -25.2901059492  SOLV      3058            0.0000000000
      9293      3069  TIP3      H1             25.1834063032       10.3648482241      -24.8511606009  SOLV      3058            0.0000000000
      9294      3069  TIP3      H2             24.3326636881        9.1552760089      -24.5501688523  SOLV      3058            0.0000000000
      9295      3070  TIP3      OH2            28.3443147722       12.9306794229      -22.5192361165  SOLV      3059            0.0000000000
      9296      3070  TIP3      H1             27.7283915783       13.1996834164      -21.7928351590  SOLV      3059            0.0000000000
      9297      3070  TIP3      H2             29.1930075453       13.1397863397      -22.1212387437  SOLV      3059            0.0000000000
      9298      3071  TIP3      OH2            30.3676097234       13.3431326641      -13.5270265155  SOLV      3060            0.0000000000
      9299      3071  TIP3      H1             30.2861905418       14.2447319885      -13.1967933406  SOLV      3060            0.0000000000
      9300      3071  TIP3      H2             29.6170288124       13.2995227508      -14.1411073534  SOLV      3060            0.0000000000
      9301      3072  TIP3      OH2            20.6460736531       13.0121385821      -18.5978236977  SOLV      3061            0.0000000000
      9302      3072  TIP3      H1             20.2113526929       12.4038755082      -19.2356388304  SOLV      3061            0.0000000000
      9303      3072  TIP3      H2             21.4067920761       12.4767821641      -18.2874858514  SOLV      3061            0.0000000000
      9304      3073  TIP3      OH2            21.9562131384       17.1591097617      -17.1880968878  SOLV      3062            0.0000000000
      9305      3073  TIP3      H1             21.7573599303       16.7525604840      -18.0429271879  SOLV      3062            0.0000000000
      9306      3073  TIP3      H2             22.8379066188       16.7827073703      -16.9822915436  SOLV      3062            0.0000000000
      9307      3074  TIP3      OH2            21.9059275610       12.7559364091      -15.0831967922  SOLV      3063            0.0000000000
      9308      3074  TIP3      H1             22.2829090452       12.4689393210      -15.9425250956  SOLV      3063            0.0000000000
      9309      3074  TIP3      H2             22.3977938883       13.5860395417      -14.9016831053  SOLV      3063            0.0000000000
      9310      3075  TIP3      OH2            27.4157890017       18.9813266831      -17.3542352577  SOLV      3064            0.0000000000
      9311      3075  TIP3      H1             27.2904194871       19.6578345457      -16.6805188841  SOLV      3064            0.0000000000
      9312      3075  TIP3      H2             27.2750872642       18.1707752232      -16.8259424837  SOLV      3064            0.0000000000
      9313      3076  TIP3      OH2            23.3459782013       18.2857537426      -11.8465071157  SOLV      3065            0.0000000000
      9314      3076  TIP3      H1             22.7622846513       18.9144720027      -11.3716883244  SOLV      3065            0.0000000000
      9315      3076  TIP3      H2             22.6842630661       17.7689057921      -12.3480079528  SOLV      3065            0.0000000000
      9316      3077  TIP3      OH2            26.8041338260       11.8001478152      -24.4551093500  SOLV      3066            0.0000000000
      9317      3077  TIP3      H1             27.3501741264       12.1996121644      -23.7350665664  SOLV      3066            0.0000000000
      9318      3077  TIP3      H2             27.0351897007       12.4285820266      -25.1621702480  SOLV      3066            0.0000000000
      9319      3078  TIP3      OH2            20.9462266278       13.8222788662      -10.7875582354  SOLV      3067            0.0000000000
      9320      3078  TIP3      H1             20.9842094085       14.7054136047      -10.3698579930  SOLV      3067            0.0000000000
      9321      3078  TIP3      H2             19.9976912774       13.6166811563      -10.6636244202  SOLV      3067            0.0000000000
      9322      3079  TIP3      OH2            24.3383676255       18.7676352641      -21.7645411543  SOLV      3068            0.0000000000
      9323      3079  TIP3      H1             24.2650909124       18.6122006637      -20.8377918443  SOLV      3068            0.0000000000
      9324      3079  TIP3      H2             23.4304528016       18.6965162608      -22.0954854638  SOLV      3068            0.0000000000
      9325      3080  TIP3      OH2            21.2954211191       19.9747168475      -10.9776426313  SOLV      3069            0.0000000000
      9326      3080  TIP3      H1             20.9540266454       19.9699005734      -11.8887866670  SOLV      3069            0.0000000000
      9327      3080  TIP3      H2             20.4893486301       19.7708749994      -10.4491350122  SOLV      3069            0.0000000000
      9328      3081  TIP3      OH2            19.2613003968       11.4169189972      -20.4712081636  SOLV      3070            0.0000000000
      9329      3081  TIP3      H1             18.6260385623       11.8756961336      -21.0578519877  SOLV      3070            0.0000000000
      9330      3081  TIP3      H2             18.9707971301       10.5034989024      -20.5632101606  SOLV      3070            0.0000000000
      9331      3082  TIP3      OH2            17.1051671794       15.2916498016      -11.5016254191  SOLV      3071            0.0000000000
      9332      3082  TIP3      H1             16.4424495679       15.0470690790      -12.1768407661  SOLV      3071            0.0000000000
      9333      3082  TIP3      H2             17.4962055786       14.4262471299      -11.2551822551  SOLV      3071            0.0000000000
      9334      3083  TIP3      OH2            15.6857690982       17.2067034389      -15.2226594792  SOLV      3072            0.0000000000
      9335      3083  TIP3      H1             16.6432402876       17.1044407939      -15.3137138073  SOLV      3072            0.0000000000
      9336      3083  TIP3      H2             15.6309229767       17.9486064482      -14.6018347158  SOLV      3072            0.0000000000
      9337      3084  TIP3      OH2            25.3418015879       19.5516594806      -13.2618564398  SOLV      3073            0.0000000000
      9338      3084  TIP3      H1             25.2837191305       20.4788841456      -12.9416210655  SOLV      3073            0.0000000000
      9339      3084  TIP3      H2             24.6352409962       19.1331133490      -12.7217244952  SOLV      3073            0.0000000000
      9340      3085  TIP3      OH2            22.1849873478       21.0524126717      -23.6447149177  SOLV      3074            0.0000000000
      9341      3085  TIP3      H1             22.2978143946       20.6975893795      -24.5458723774  SOLV      3074            0.0000000000
      9342      3085  TIP3      H2             22.9421254971       21.6433543059      -23.6306626824  SOLV      3074            0.0000000000
      9343      3086  TIP3      OH2            17.3649291178       19.3165148383      -19.8946859758  SOLV      3075            0.0000000000
      9344      3086  TIP3      H1             17.8229932157       19.2482589009      -19.0250392370  SOLV      3075            0.0000000000
      9345      3086  TIP3      H2             16.8854978489       18.4729565805      -19.9189933871  SOLV      3075            0.0000000000
      9346      3087  TIP3      OH2            19.1621166185       17.1145095180      -11.6637157134  SOLV      3076            0.0000000000
      9347      3087  TIP3      H1             19.6505396966       16.9515087110      -10.8316746893  SOLV      3076            0.0000000000
      9348      3087  TIP3      H2             18.4156593210       16.4852198426      -11.5796849817  SOLV      3076            0.0000000000
      9349      3088  TIP3      OH2            23.1364608288        5.3269122355      -13.7282823980  SOLV      3077            0.0000000000
      9350      3088  TIP3      H1             22.2468764151        5.0396048839      -14.0230809639  SOLV      3077            0.0000000000
      9351      3088  TIP3      H2             22.8869888294        6.1480807572      -13.2588910054  SOLV      3077            0.0000000000
      9352      3089  TIP3      OH2            28.5119904254        6.4409893282      -11.8311416297  SOLV      3078            0.0000000000
      9353      3089  TIP3      H1             29.1616549702        6.2328048149      -11.1301391713  SOLV      3078            0.0000000000
      9354      3089  TIP3      H2             27.6555258658        6.3079769412      -11.3755405527  SOLV      3078            0.0000000000
      9355      3090  TIP3      OH2            30.9230151497       10.7189051407      -12.8234243195  SOLV      3079            0.0000000000
      9356      3090  TIP3      H1             30.5125532364       10.7334104879      -11.9352686593  SOLV      3079            0.0000000000
      9357      3090  TIP3      H2             30.8295826456       11.6567580002      -13.0907051674  SOLV      3079            0.0000000000
      9358      3091  TIP3      OH2            24.5994443938        5.7332909676      -24.2629585539  SOLV      3080            0.0000000000
      9359      3091  TIP3      H1             24.1045770170        6.2240691480      -23.5782319980  SOLV      3080            0.0000000000
      9360      3091  TIP3      H2             24.1194756723        4.8801678059      -24.2747380153  SOLV      3080            0.0000000000
      9361      3092  TIP3      OH2            22.4494818076       10.5224081265      -13.5984388293  SOLV      3081            0.0000000000
      9362      3092  TIP3      H1             21.9772886190       10.7156409104      -12.7631064985  SOLV      3081            0.0000000000
      9363      3092  TIP3      H2             22.2698787135       11.3413442062      -14.1109376234  SOLV      3081            0.0000000000
      9364      3093  TIP3      OH2            21.3838649006        9.3753812606      -18.5167347501  SOLV      3082            0.0000000000
      9365      3093  TIP3      H1             20.4518497318        9.0875330009      -18.4049994065  SOLV      3082            0.0000000000
      9366      3093  TIP3      H2             21.5351335627        9.2316463118      -19.4614667686  SOLV      3082            0.0000000000
      9367      3094  TIP3      OH2            26.3606259369       10.4513168619      -21.0581510261  SOLV      3083            0.0000000000
      9368      3094  TIP3      H1             25.6459215687       10.9540641734      -21.4973806284  SOLV      3083            0.0000000000
      9369      3094  TIP3      H2             26.6954562233        9.8978676207      -21.7751732300  SOLV      3083            0.0000000000
      9370      3095  TIP3      OH2            27.9072427418       12.9760566762      -10.2969371577  SOLV      3084            0.0000000000
      9371      3095  TIP3      H1             27.6708634254       12.2508856442       -9.6780948955  SOLV      3084            0.0000000000
      9372      3095  TIP3      H2             28.8614872232       13.0505616030      -10.1300638501  SOLV      3084            0.0000000000
      9373      3096  TIP3      OH2            27.7494808322       10.5132933235      -18.7428675880  SOLV      3085            0.0000000000
      9374      3096  TIP3      H1             27.1727303131       10.7484707078      -19.5093137616  SOLV      3085            0.0000000000
      9375      3096  TIP3      H2             28.0911992252        9.6683779664      -19.1008068092  SOLV      3085            0.0000000000
      9376      3097  TIP3      OH2            20.6543211788       10.7803586647      -11.4869565816  SOLV      3086            0.0000000000
      9377      3097  TIP3      H1             21.0283744270       11.3911019651      -10.8341789187  SOLV      3086            0.0000000000
      9378      3097  TIP3      H2             20.5341892585        9.9645663883      -10.9632526106  SOLV      3086            0.0000000000
      9379      3098  TIP3      OH2            20.9621103893        5.3266476328      -24.4618182386  SOLV      3087            0.0000000000
      9380      3098  TIP3      H1             20.9719458062        5.4204754810      -23.4855976483  SOLV      3087            0.0000000000
      9381      3098  TIP3      H2             20.3268363448        6.0178173300      -24.7084768709  SOLV      3087            0.0000000000
      9382      3099  TIP3      OH2            16.6019560233        5.9579667337      -15.6675622576  SOLV      3088            0.0000000000
      9383      3099  TIP3      H1             17.3205458383        6.3115226991      -15.1022980558  SOLV      3088            0.0000000000
      9384      3099  TIP3      H2             17.0598646013        5.7098893293      -16.4796186176  SOLV      3088            0.0000000000
      9385      3100  TIP3      OH2            16.1800095789        5.7683187082      -20.4951932570  SOLV      3089            0.0000000000
      9386      3100  TIP3      H1             16.6082890651        6.1277343971      -21.3043248377  SOLV      3089            0.0000000000
      9387      3100  TIP3      H2             15.5993369527        6.5210515246      -20.2800207945  SOLV      3089            0.0000000000
      9388      3101  TIP3      OH2            27.6606051515       12.9241941323      -14.6146383130  SOLV      3090            0.0000000000
      9389      3101  TIP3      H1             28.0784298913       12.2440422864      -15.1952731676  SOLV      3090            0.0000000000
      9390      3101  TIP3      H2             27.4670699370       12.3741413261      -13.8262546537  SOLV      3090            0.0000000000
      9391      3102  TIP3      OH2            24.6016746355        7.1087995071      -17.6745744518  SOLV      3091            0.0000000000
      9392      3102  TIP3      H1             23.7990533337        7.3521978155      -17.1791914826  SOLV      3091            0.0000000000
      9393      3102  TIP3      H2             25.3158326125        7.3974178054      -17.0833080214  SOLV      3091            0.0000000000
      9394      3103  TIP3      OH2            18.9546135953        8.1817155505      -17.8403668516  SOLV      3092            0.0000000000
      9395      3103  TIP3      H1             18.0023947406        8.2338494905      -18.0929558432  SOLV      3092            0.0000000000
      9396      3103  TIP3      H2             19.1784952870        7.2487289079      -18.0128533317  SOLV      3092            0.0000000000
      9397      3104  TIP3      OH2            29.1491805474        8.4319085790      -15.8711809791  SOLV      3093            0.0000000000
      9398      3104  TIP3      H1             29.0084126023        8.5111986562      -14.9065681558  SOLV      3093            0.0000000000
      9399      3104  TIP3      H2             28.4735684206        7.7678837070      -16.1072142862  SOLV      3093            0.0000000000
      9400      3105  TIP3      OH2            19.7313045185        8.5344502943      -23.0029315031  SOLV      3094            0.0000000000
      9401      3105  TIP3      H1             19.3309536763        8.0983566727      -23.7787820712  SOLV      3094            0.0000000000
      9402      3105  TIP3      H2             20.6664979227        8.5848268781      -23.2513296940  SOLV      3094            0.0000000000
      9403      3106  TIP3      OH2            20.7749690985       16.2924483127       -9.4172899916  SOLV      3095            0.0000000000
      9404      3106  TIP3      H1             21.5874255763       16.5113632122       -8.9384067580  SOLV      3095            0.0000000000
      9405      3106  TIP3      H2             20.1273643265       16.3049427783       -8.6814779131  SOLV      3095            0.0000000000
      9406      3107  TIP3      OH2            25.3993741467       10.8633914791      -16.8837576652  SOLV      3096            0.0000000000
      9407      3107  TIP3      H1             26.1231887902       10.5072040518      -17.4228431887  SOLV      3096            0.0000000000
      9408      3107  TIP3      H2             25.5216889882       10.4052586015      -16.0323338729  SOLV      3096            0.0000000000
      9409      3108  TIP3      OH2            20.5654918581        5.7252156518      -18.0325955714  SOLV      3097            0.0000000000
      9410      3108  TIP3      H1             20.2194503966        4.9491598192      -17.5402103133  SOLV      3097            0.0000000000
      9411      3108  TIP3      H2             21.0717009856        5.2991861378      -18.7363391128  SOLV      3097            0.0000000000
      9412      3109  TIP3      OH2            25.1498329110        9.8473408425      -13.9207549277  SOLV      3098            0.0000000000
      9413      3109  TIP3      H1             24.2618226752       10.2366674439      -13.7951250694  SOLV      3098            0.0000000000
      9414      3109  TIP3      H2             25.7366337303       10.4621424689      -13.4354287516  SOLV      3098            0.0000000000
      9415      3110  TIP3      OH2            22.3667542047       13.7741630423      -23.0692687271  SOLV      3099            0.0000000000
      9416      3110  TIP3      H1             21.6926567859       13.0680292418      -23.1514706559  SOLV      3099            0.0000000000
      9417      3110  TIP3      H2             22.2206539547       14.0767346352      -22.1399935450  SOLV      3099            0.0000000000
      9418      3111  TIP3      OH2            27.0513430744        6.9741487100      -24.1091612645  SOLV      3100            0.0000000000
      9419      3111  TIP3      H1             26.0844045675        6.8053448875      -24.1665674625  SOLV      3100            0.0000000000
      9420      3111  TIP3      H2             27.1128847396        7.9385524347      -23.9548710766  SOLV      3100            0.0000000000
      9421      3112  TIP3      OH2            26.6339374241       16.9460322049      -13.0327389182  SOLV      3101            0.0000000000
      9422      3112  TIP3      H1             26.7029998882       16.7036747578      -12.0991526103  SOLV      3101            0.0000000000
      9423      3112  TIP3      H2             26.1717642666       17.7997814927      -12.9843123827  SOLV      3101            0.0000000000
      9424      3113  TIP3      OH2            27.9195979692        9.4987997775      -23.4984800449  SOLV      3102            0.0000000000
      9425      3113  TIP3      H1             28.7965734992        9.5925996632      -23.8817219856  SOLV      3102            0.0000000000
      9426      3113  TIP3      H2             27.4853188264       10.3167285954      -23.8179099702  SOLV      3102            0.0000000000
      9427      3114  TIP3      OH2            19.4607155434       13.9690820073      -16.2837902239  SOLV      3103            0.0000000000
      9428      3114  TIP3      H1             19.8547005847       13.6922651882      -17.1370715287  SOLV      3103            0.0000000000
      9429      3114  TIP3      H2             19.9692827888       13.4289448916      -15.6585708243  SOLV      3103            0.0000000000
      9430      3115  TIP3      OH2            24.1325964266       15.3023142090      -24.5075146997  SOLV      3104            0.0000000000
      9431      3115  TIP3      H1             23.6376478617       16.1247423118      -24.6888673402  SOLV      3104            0.0000000000
      9432      3115  TIP3      H2             23.4541797253       14.7512847790      -24.0661192083  SOLV      3104            0.0000000000
      9433      3116  TIP3      OH2            18.2964605102       13.1866823809      -10.1170260130  SOLV      3105            0.0000000000
      9434      3116  TIP3      H1             18.5531996305       13.0704087962       -9.1792247341  SOLV      3105            0.0000000000
      9435      3116  TIP3      H2             17.6295341149       12.4871909218      -10.2199156289  SOLV      3105            0.0000000000
      9436      3117  TIP3      OH2            25.5330562674       14.3836191732       -9.9253321126  SOLV      3106            0.0000000000
      9437      3117  TIP3      H1             24.9308280706       13.7660309336      -10.3613446544  SOLV      3106            0.0000000000
      9438      3117  TIP3      H2             26.4035171374       14.0033446354      -10.1689274602  SOLV      3106            0.0000000000
      9439      3118  TIP3      OH2            28.0782396858       19.4603502519      -14.0811684286  SOLV      3107            0.0000000000
      9440      3118  TIP3      H1             27.1299752543       19.4588942401      -13.8709944708  SOLV      3107            0.0000000000
      9441      3118  TIP3      H2             28.4459690615       19.9455910353      -13.3160505154  SOLV      3107            0.0000000000
      9442      3119  TIP3      OH2            28.8960454786       14.7590570724      -17.6670263541  SOLV      3108            0.0000000000
      9443      3119  TIP3      H1             28.0029074401       14.3886739546      -17.5482559553  SOLV      3108            0.0000000000
      9444      3119  TIP3      H2             29.3991211271       13.9731371402      -17.9570301302  SOLV      3108            0.0000000000
      9445      3120  TIP3      OH2            20.5063031124       17.0495913882      -20.0017705152  SOLV      3109            0.0000000000
      9446      3120  TIP3      H1             20.3784221386       17.8514669282      -20.5391088762  SOLV      3109            0.0000000000
      9447      3120  TIP3      H2             19.5983532952       16.7508809973      -19.8800070489  SOLV      3109            0.0000000000
      9448      3121  TIP3      OH2            16.1245252092       10.0334480539      -22.9296216062  SOLV      3110            0.0000000000
      9449      3121  TIP3      H1             16.6112811810       10.8521756731      -22.6941134535  SOLV      3110            0.0000000000
      9450      3121  TIP3      H2             15.3693786677       10.0788282619      -22.3049490593  SOLV      3110            0.0000000000
      9451      3122  TIP3      OH2            21.7620965091       14.6424170839      -20.5755812135  SOLV      3111            0.0000000000
      9452      3122  TIP3      H1             21.4247884212       15.5342000644      -20.3684099553  SOLV      3111            0.0000000000
      9453      3122  TIP3      H2             21.4412730980       14.1247879344      -19.8139064708  SOLV      3111            0.0000000000
      9454      3123  TIP3      OH2            23.1597780879       20.4017990351      -15.3116722866  SOLV      3112            0.0000000000
      9455      3123  TIP3      H1             23.5004695742       21.2110686069      -15.7586332019  SOLV      3112            0.0000000000
      9456      3123  TIP3      H2             23.9665376442       20.0747832495      -14.8810891106  SOLV      3112            0.0000000000
      9457      3124  TIP3      OH2            19.6205347331       19.4032053528      -21.4959033929  SOLV      3113            0.0000000000
      9458      3124  TIP3      H1             18.7658657576       19.4313605231      -21.0168882098  SOLV      3113            0.0000000000
      9459      3124  TIP3      H2             19.8799183532       20.3456566858      -21.4363740256  SOLV      3113            0.0000000000
      9460      3125  TIP3      OH2            27.0468134927       16.7533384348      -15.7705008352  SOLV      3114            0.0000000000
      9461      3125  TIP3      H1             26.9863838407       16.7349415214      -14.7889071576  SOLV      3114            0.0000000000
      9462      3125  TIP3      H2             27.7603497438       16.1179178115      -15.9422447167  SOLV      3114            0.0000000000
      9463      3126  TIP3      OH2            20.3654657394        8.2124694590      -10.0881779318  SOLV      3115            0.0000000000
      9464      3126  TIP3      H1             19.4000987794        8.2612442913       -9.9530543340  SOLV      3115            0.0000000000
      9465      3126  TIP3      H2             20.6479413394        7.6938841097       -9.3182166359  SOLV      3115            0.0000000000
      9466      3127  TIP3      OH2            28.2056900213       14.2045746956      -25.0804056899  SOLV      3116            0.0000000000
      9467      3127  TIP3      H1             28.2020217705       14.1381112955      -24.1117969261  SOLV      3116            0.0000000000
      9468      3127  TIP3      H2             29.0159185890       14.7134829459      -25.2292891170  SOLV      3116            0.0000000000
      9469      3128  TIP3      OH2            17.5505110036       19.0404892554      -13.7440442013  SOLV      3117            0.0000000000
      9470      3128  TIP3      H1             18.0889134695       18.3200750681      -13.3771436236  SOLV      3117            0.0000000000
      9471      3128  TIP3      H2             17.8140270134       19.7723605154      -13.1725505177  SOLV      3117            0.0000000000
      9472      3129  TIP3      OH2            19.7010543543       15.5608781159      -23.8514502293  SOLV      3118            0.0000000000
      9473      3129  TIP3      H1             20.5800358769       15.1964426231      -23.7057135745  SOLV      3118            0.0000000000
      9474      3129  TIP3      H2             19.8932029517       16.5152048783      -23.9723869830  SOLV      3118            0.0000000000
      9475      3130  TIP3      OH2            17.2171186784       12.4525123173      -22.0992961513  SOLV      3119            0.0000000000
      9476      3130  TIP3      H1             16.5467158465       12.9147875035      -21.5555980357  SOLV      3119            0.0000000000
      9477      3130  TIP3      H2             17.3938505927       13.1358818177      -22.7738237935  SOLV      3119            0.0000000000
      9478      3131  TIP3      OH2            28.7580440591        8.9110612017      -13.1892926476  SOLV      3120            0.0000000000
      9479      3131  TIP3      H1             29.6272683865        9.3072377472      -12.9869265618  SOLV      3120            0.0000000000
      9480      3131  TIP3      H2             28.7440450971        8.0959952152      -12.6506473038  SOLV      3120            0.0000000000
      9481      3132  TIP3      OH2            27.5804348082        6.3108535260      -21.4475241708  SOLV      3121            0.0000000000
      9482      3132  TIP3      H1             27.4003193914        6.5314115665      -22.3865457721  SOLV      3121            0.0000000000
      9483      3132  TIP3      H2             27.9485588404        7.1530888307      -21.1100182321  SOLV      3121            0.0000000000
      9484      3133  TIP3      OH2            22.6403244617       17.6078358349      -24.8930611853  SOLV      3122            0.0000000000
      9485      3133  TIP3      H1             21.7875354737       17.8971866726      -24.5165971057  SOLV      3122            0.0000000000
      9486      3133  TIP3      H2             22.4427079425       17.5988494560      -25.8386914256  SOLV      3122            0.0000000000
      9487      3134  TIP3      OH2            27.1416136705       11.2850804006      -12.4953126535  SOLV      3123            0.0000000000
      9488      3134  TIP3      H1             27.4274871299       11.8004228212      -11.7154811230  SOLV      3123            0.0000000000
      9489      3134  TIP3      H2             27.7380710953       10.5132369720      -12.4688248744  SOLV      3123            0.0000000000
      9490      3135  TIP3      OH2            25.7530430320        5.4111812166      -19.5428156839  SOLV      3124            0.0000000000
      9491      3135  TIP3      H1             25.5273808860        6.1640917191      -18.9482998009  SOLV      3124            0.0000000000
      9492      3135  TIP3      H2             26.4542596758        5.7987281669      -20.1103432066  SOLV      3124            0.0000000000
      9493      3136  TIP3      OH2            20.1183371924       18.3193790722      -23.9864245339  SOLV      3125            0.0000000000
      9494      3136  TIP3      H1             19.7809456851       19.0484017388      -24.5161188713  SOLV      3125            0.0000000000
      9495      3136  TIP3      H2             19.9939772219       18.6714614015      -23.0770962489  SOLV      3125            0.0000000000
      9496      3137  TIP3      OH2            20.9291932578        5.4838221399      -21.7106203491  SOLV      3126            0.0000000000
      9497      3137  TIP3      H1             20.8860361692        6.4455737485      -21.6046041023  SOLV      3126            0.0000000000
      9498      3137  TIP3      H2             21.8886558155        5.3439865831      -21.5170900459  SOLV      3126            0.0000000000
      9499      3138  TIP3      OH2            30.0061583922       12.3420085034      -18.5744922343  SOLV      3127            0.0000000000
      9500      3138  TIP3      H1             29.2123279683       11.8301579729      -18.8004294331  SOLV      3127            0.0000000000
      9501      3138  TIP3      H2             30.4232366775       11.7799682301      -17.9131276013  SOLV      3127            0.0000000000
      9502      3139  TIP3      OH2            17.1938396093       14.5034801413      -24.0419302221  SOLV      3128            0.0000000000
      9503      3139  TIP3      H1             17.9929032062       15.0507155934      -23.8641796536  SOLV      3128            0.0000000000
      9504      3139  TIP3      H2             17.5607581579       13.9472207566      -24.7588559693  SOLV      3128            0.0000000000
      9505      3140  TIP3      OH2            16.4946601972        7.2716008313      -22.7484671256  SOLV      3129            0.0000000000
      9506      3140  TIP3      H1             16.7359844417        8.2175614929      -22.7446883485  SOLV      3129            0.0000000000
      9507      3140  TIP3      H2             15.6776006218        7.2811916776      -23.2468774611  SOLV      3129            0.0000000000
      9508      3141  TIP3      OH2            20.4950554046        4.5322845147      -14.0559600884  SOLV      3130            0.0000000000
      9509      3141  TIP3      H1             20.1878703049        4.1976431247      -14.9248419918  SOLV      3130            0.0000000000
      9510      3141  TIP3      H2             20.3769857028        3.7484647782      -13.4816433637  SOLV      3130            0.0000000000
      9511      3142  TIP3      OH2            15.8494868963       16.7484490949      -20.2575756244  SOLV      3131            0.0000000000
      9512      3142  TIP3      H1             15.2372797811       17.0512134606      -19.5767602187  SOLV      3131            0.0000000000
      9513      3142  TIP3      H2             15.4993130789       17.1917315893      -21.0595574373  SOLV      3131            0.0000000000
      9514      3143  TIP3      OH2            17.4948175410       22.2237963933       -9.5100665031  SOLV      3132            0.0000000000
      9515      3143  TIP3      H1             18.3599343267       22.2223370616       -9.0411824900  SOLV      3132            0.0000000000
      9516      3143  TIP3      H2             17.3114347970       21.2688420706       -9.5328435783  SOLV      3132            0.0000000000
      9517      3144  TIP3      OH2            22.2755551744       21.7605545881       -9.1157254974  SOLV      3133            0.0000000000
      9518      3144  TIP3      H1             23.1778893000       21.4344813714       -8.9816570734  SOLV      3133            0.0000000000
      9519      3144  TIP3      H2             21.9771932159       21.1462634519       -9.8184894778  SOLV      3133            0.0000000000
      9520      3145  TIP3      OH2            28.8912734093       20.6582977602      -11.6897553076  SOLV      3134            0.0000000000
      9521      3145  TIP3      H1             28.5603927114       19.9932231707      -11.0437861750  SOLV      3134            0.0000000000
      9522      3145  TIP3      H2             29.8002868133       20.7799195501      -11.3847029025  SOLV      3134            0.0000000000
      9523      3146  TIP3      OH2            18.7534566611       16.2408420719       -7.5350562865  SOLV      3135            0.0000000000
      9524      3146  TIP3      H1             18.8964331207       15.2930337425       -7.3772218112  SOLV      3135            0.0000000000
      9525      3146  TIP3      H2             17.8705917394       16.2471772734       -7.9634183296  SOLV      3135            0.0000000000
      9526      3147  TIP3      OH2            18.6191304401       12.6963889784      -25.5392022609  SOLV      3136            0.0000000000
      9527      3147  TIP3      H1             19.1211582871       12.3051431731      -24.7936888094  SOLV      3136            0.0000000000
      9528      3147  TIP3      H2             19.3338732525       13.1025462909      -26.0437321799  SOLV      3136            0.0000000000
      9529      3148  TIP3      OH2            25.1705263987       17.2119177600       -9.9936518904  SOLV      3137            0.0000000000
      9530      3148  TIP3      H1             24.4670824228       17.3212346819      -10.6578020498  SOLV      3137            0.0000000000
      9531      3148  TIP3      H2             25.2457140353       16.2415112624       -9.9000337473  SOLV      3137            0.0000000000
      9532      3149  TIP3      OH2            29.7626422485       17.0408787241      -13.7437924476  SOLV      3138            0.0000000000
      9533      3149  TIP3      H1             30.3577467534       17.8090390051      -13.6633747225  SOLV      3138            0.0000000000
      9534      3149  TIP3      H2             28.9102780421       17.4907558075      -13.8860501284  SOLV      3138            0.0000000000
      9535      3150  TIP3      OH2            19.9825199369       13.5129289899       -7.7501685602  SOLV      3139            0.0000000000
      9536      3150  TIP3      H1             20.8246694921       13.1267691376       -8.0156909554  SOLV      3139            0.0000000000
      9537      3150  TIP3      H2             20.2072887708       13.8306301296       -6.8464187361  SOLV      3139            0.0000000000
      9538      3151  TIP3      OH2            20.4947499622       11.7181989312      -23.4793821089  SOLV      3140            0.0000000000
      9539      3151  TIP3      H1             20.4051359803       11.2281202151      -22.6480721431  SOLV      3140            0.0000000000
      9540      3151  TIP3      H2             20.8594077788       11.0201360896      -24.0680673866  SOLV      3140            0.0000000000
      9541      3152  TIP3      OH2            23.2635233902       12.3392637931      -11.0956282061  SOLV      3141            0.0000000000
      9542      3152  TIP3      H1             22.5213430698       12.9787619385      -11.0368657421  SOLV      3141            0.0000000000
      9543      3152  TIP3      H2             23.7782447779       12.7009283231      -11.8516295536  SOLV      3141            0.0000000000
      9544      3153  TIP3      OH2            21.5986951745        9.8209059286      -25.1783406110  SOLV      3142            0.0000000000
      9545      3153  TIP3      H1             21.6347737258        9.0655994115      -25.7839434888  SOLV      3142            0.0000000000
      9546      3153  TIP3      H2             22.3019157564        9.5688329978      -24.5496555834  SOLV      3142            0.0000000000
      9547      3154  TIP3      OH2            28.5422350146       16.4367853719       -9.7396213495  SOLV      3143            0.0000000000
      9548      3154  TIP3      H1             29.2858704943       16.0593220471      -10.2151265524  SOLV      3143            0.0000000000
      9549      3154  TIP3      H2             28.4166916695       15.7996227199       -9.0112721483  SOLV      3143            0.0000000000
      9550      3155  TIP3      OH2            24.5603729942       10.2921662088       -9.8318131108  SOLV      3144            0.0000000000
      9551      3155  TIP3      H1             24.5694111414        9.5131778868      -10.4223138608  SOLV      3144            0.0000000000
      9552      3155  TIP3      H2             24.1167593446       10.9683178979      -10.3921498496  SOLV      3144            0.0000000000
      9553      3156  TIP3      OH2            24.5830100555        8.1404485785      -11.7221566017  SOLV      3145            0.0000000000
      9554      3156  TIP3      H1             24.8664194734        8.5794824151      -12.5504307723  SOLV      3145            0.0000000000
      9555      3156  TIP3      H2             23.6464290073        7.9278754608      -11.9203595277  SOLV      3145            0.0000000000
      9556      3157  TIP3      OH2            24.7896540056       13.4809234131      -13.0059058205  SOLV      3146            0.0000000000
      9557      3157  TIP3      H1             25.6555632289       13.5771860015      -13.4192631086  SOLV      3146            0.0000000000
      9558      3157  TIP3      H2             24.2547161769       14.1507397949      -13.4835029150  SOLV      3146            0.0000000000
      9559      3158  TIP3      OH2            30.6542850948       13.1445925469       -9.1312069718  SOLV      3147            0.0000000000
      9560      3158  TIP3      H1             31.0001850139       12.2459419157       -9.2458038623  SOLV      3147            0.0000000000
      9561      3158  TIP3      H2             31.3547117463       13.6877434750       -9.5163678380  SOLV      3147            0.0000000000
      9562      3159  TIP3      OH2            31.1413860189       15.7953264852      -11.7517806411  SOLV      3148            0.0000000000
      9563      3159  TIP3      H1             30.5764269674       16.2655750907      -12.4095507943  SOLV      3148            0.0000000000
      9564      3159  TIP3      H2             31.8872256390       15.5382284588      -12.3073635123  SOLV      3148            0.0000000000
      9565      3160  TIP3      OH2            23.2808828200       11.3350025586       -7.5268596287  SOLV      3149            0.0000000000
      9566      3160  TIP3      H1             22.6150807067       10.6400180278       -7.3538439900  SOLV      3149            0.0000000000
      9567      3160  TIP3      H2             23.6427551099       11.0581507796       -8.3896995035  SOLV      3149            0.0000000000
      9568      3161  TIP3      OH2            25.8864203008        5.7796283322      -11.0070550973  SOLV      3150            0.0000000000
      9569      3161  TIP3      H1             25.4064707248        6.6015807614      -11.2517486466  SOLV      3150            0.0000000000
      9570      3161  TIP3      H2             25.1888100723        5.1049182685      -11.1278811347  SOLV      3150            0.0000000000
      9571      3162  TIP3      OH2            27.1493037450       10.7637321336       -8.8970294269  SOLV      3151            0.0000000000
      9572      3162  TIP3      H1             26.9541140745       10.7168290116       -7.9431758973  SOLV      3151            0.0000000000
      9573      3162  TIP3      H2             26.2593980218       10.5457096900       -9.2488169677  SOLV      3151            0.0000000000
      9574      3163  TIP3      OH2            29.5663812218       10.4402751829      -10.4095027303  SOLV      3152            0.0000000000
      9575      3163  TIP3      H1             28.7807832658       10.3878239802       -9.8315430132  SOLV      3152            0.0000000000
      9576      3163  TIP3      H2             30.2620863296       10.0520484653       -9.8353342004  SOLV      3152            0.0000000000
      9577      3164  TIP3      OH2            31.6277571489        9.6448253255       -8.7971375107  SOLV      3153            0.0000000000
      9578      3164  TIP3      H1             31.8607943893        8.7179564553       -8.6022717999  SOLV      3153            0.0000000000
      9579      3164  TIP3      H2             31.7737278165       10.0851104869       -7.9381009825  SOLV      3153            0.0000000000
      9580      3165  TIP3      OH2            21.6753603105        9.1230752863       -6.9174922195  SOLV      3154            0.0000000000
      9581      3165  TIP3      H1             21.7444696255        8.2046348114       -7.2340995270  SOLV      3154            0.0000000000
      9582      3165  TIP3      H2             22.0485823405        9.0351630552       -6.0156366449  SOLV      3154            0.0000000000
      9583      3166  TIP3      OH2            26.7767994057        5.8662955966       -8.4106125079  SOLV      3155            0.0000000000
      9584      3166  TIP3      H1             27.4352652409        5.1492768865       -8.4917432943  SOLV      3155            0.0000000000
      9585      3166  TIP3      H2             26.3972026427        5.8567627328       -9.3133730561  SOLV      3155            0.0000000000
      9586      3167  TIP3      OH2            27.4526400688        8.0105308616       -6.8323226450  SOLV      3156            0.0000000000
      9587      3167  TIP3      H1             27.2289337259        7.3171617756       -7.4912549476  SOLV      3156            0.0000000000
      9588      3167  TIP3      H2             26.6903417848        8.6238069325       -6.9152502141  SOLV      3156            0.0000000000
      9589      3168  TIP3      OH2            14.5008819972       14.1827609288      -23.7887848254  SOLV      3157            0.0000000000
      9590      3168  TIP3      H1             15.4672258485       14.3661700610      -23.8693121606  SOLV      3157            0.0000000000
      9591      3168  TIP3      H2             14.4520919600       13.2761153896      -24.1668915583  SOLV      3157            0.0000000000
      9592      3169  TIP3      OH2            13.6660382610       20.2341741583      -19.5360250133  SOLV      3158            0.0000000000
      9593      3169  TIP3      H1             13.0110704078       19.6165351503      -19.9275521268  SOLV      3158            0.0000000000
      9594      3169  TIP3      H2             14.1124200291       19.6407811638      -18.8933008700  SOLV      3158            0.0000000000
      9595      3170  TIP3      OH2            14.9990299305       18.6875280611      -17.6836429916  SOLV      3159            0.0000000000
      9596      3170  TIP3      H1             14.9009504942       17.9974067230      -17.0044989518  SOLV      3159            0.0000000000
      9597      3170  TIP3      H2             15.5269942550       19.3346364608      -17.1808988965  SOLV      3159            0.0000000000
      9598      3171  TIP3      OH2            16.8424391964       12.8586664551      -13.9977538109  SOLV      3160            0.0000000000
      9599      3171  TIP3      H1             16.8202822866       12.4871917480      -14.9041998683  SOLV      3160            0.0000000000
      9600      3171  TIP3      H2             17.8151255894       12.8508002656      -13.8258626611  SOLV      3160            0.0000000000
      9601      3172  TIP3      OH2            18.9951004699        9.6068715132       -7.3100808679  SOLV      3161            0.0000000000
      9602      3172  TIP3      H1             19.9718394346        9.5913971634       -7.2106682492  SOLV      3161            0.0000000000
      9603      3172  TIP3      H2             18.7585531335        8.7721765456       -6.8597795602  SOLV      3161            0.0000000000
      9604      3173  TIP3      OH2            18.6553535847        6.6293182954      -13.9385057288  SOLV      3162            0.0000000000
      9605      3173  TIP3      H1             19.2839885573        5.8846025203      -13.8578961066  SOLV      3162            0.0000000000
      9606      3173  TIP3      H2             19.2707801015        7.3796736996      -14.0148234859  SOLV      3162            0.0000000000
      9607      3174  TIP3      OH2            16.6326963575        9.3348275670      -13.2617666447  SOLV      3163            0.0000000000
      9608      3174  TIP3      H1             17.1553470515        9.3224609683      -14.0870626781  SOLV      3163            0.0000000000
      9609      3174  TIP3      H2             16.9540404215       10.1368879164      -12.8373246881  SOLV      3163            0.0000000000
      9610      3175  TIP3      OH2            16.5290876160        4.3172352372      -18.2387149328  SOLV      3164            0.0000000000
      9611      3175  TIP3      H1             15.6149304824        4.3081342699      -17.9104600594  SOLV      3164            0.0000000000
      9612      3175  TIP3      H2             16.4655492056        4.9315115554      -18.9995545555  SOLV      3164            0.0000000000
      9613      3176  TIP3      OH2            18.7285949574        5.1264110138      -10.1351394343  SOLV      3165            0.0000000000
      9614      3176  TIP3      H1             18.2386000437        5.1355774569       -9.2941417275  SOLV      3165            0.0000000000
      9615      3176  TIP3      H2             18.0784853585        5.5587825999      -10.7228751150  SOLV      3165            0.0000000000
      9616      3177  TIP3      OH2            19.1005587084       19.5532829893       -9.3502911207  SOLV      3166            0.0000000000
      9617      3177  TIP3      H1             18.1721099364       19.2577545157       -9.3929991978  SOLV      3166            0.0000000000
      9618      3177  TIP3      H2             19.3627724881       19.2952382712       -8.4573003277  SOLV      3166            0.0000000000
      9619      3178  TIP3      OH2            20.9166257292       19.8247642029      -13.8119624971  SOLV      3167            0.0000000000
      9620      3178  TIP3      H1             20.4462892791       20.5880363961      -14.2058343401  SOLV      3167            0.0000000000
      9621      3178  TIP3      H2             21.7778732827       19.9439840711      -14.2674086246  SOLV      3167            0.0000000000
      9622      3179  TIP3      OH2            25.2787970085       22.1812238806      -12.4197453135  SOLV      3168            0.0000000000
      9623      3179  TIP3      H1             25.7722116786       22.1426565865      -11.5703993855  SOLV      3168            0.0000000000
      9624      3179  TIP3      H2             25.8156719101       22.8145223038      -12.9376327563  SOLV      3168            0.0000000000
      9625      3180  TIP3      OH2            17.6459430552       22.3910087428      -13.5871362314  SOLV      3169            0.0000000000
      9626      3180  TIP3      H1             16.7331197572       22.7057511122      -13.7778623604  SOLV      3169            0.0000000000
      9627      3180  TIP3      H2             17.8130103922       22.8382987311      -12.7499747608  SOLV      3169            0.0000000000
      9628      3181  TIP3      OH2            19.9632465301       22.1116902013      -15.0045619577  SOLV      3170            0.0000000000
      9629      3181  TIP3      H1             19.0970646454       22.2317825952      -14.5523239442  SOLV      3170            0.0000000000
      9630      3181  TIP3      H2             19.7641624457       22.4492151849      -15.8989352621  SOLV      3170            0.0000000000
      9631      3182  TIP3      OH2            24.0337432890       22.5688850436      -16.7964889978  SOLV      3171            0.0000000000
      9632      3182  TIP3      H1             24.1128184128       22.6431161142      -17.7547988379  SOLV      3171            0.0000000000
      9633      3182  TIP3      H2             24.0107208930       23.4988119603      -16.5202492609  SOLV      3171            0.0000000000
      9634      3183  TIP3      OH2            16.7686527056       20.2846733837      -16.1397492024  SOLV      3172            0.0000000000
      9635      3183  TIP3      H1             17.0420950655       19.9927116808      -15.2422477074  SOLV      3172            0.0000000000
      9636      3183  TIP3      H2             17.5034010087       19.8822905387      -16.6565854638  SOLV      3172            0.0000000000
      9637      3184  TIP3      OH2            18.7477957024       19.0528581394      -17.5399170303  SOLV      3173            0.0000000000
      9638      3184  TIP3      H1             18.8745319424       18.1969664018      -17.0652538081  SOLV      3173            0.0000000000
      9639      3184  TIP3      H2             19.6686638367       19.3919616281      -17.5448427374  SOLV      3173            0.0000000000
      9640      3185  TIP3      OH2            21.4334029726       19.8997078354      -17.4628917552  SOLV      3174            0.0000000000
      9641      3185  TIP3      H1             21.6854081356       18.9529366189      -17.4918970572  SOLV      3174            0.0000000000
      9642      3185  TIP3      H2             21.9531599532       20.1695282026      -16.6788611097  SOLV      3174            0.0000000000
      9643      3186  TIP3      OH2            27.1492345904        6.5858967901      -16.4605295918  SOLV      3175            0.0000000000
      9644      3186  TIP3      H1             26.6536096038        5.8490540335      -16.0711768750  SOLV      3175            0.0000000000
      9645      3186  TIP3      H2             27.7863882530        6.1125132847      -17.0447286678  SOLV      3175            0.0000000000
      9646      3187  TIP3      OH2            19.6077501975        3.5884640279      -16.5225676814  SOLV      3176            0.0000000000
      9647      3187  TIP3      H1             18.6883847476        3.2510117209      -16.4913510036  SOLV      3176            0.0000000000
      9648      3187  TIP3      H2             20.1038382498        2.7421904186      -16.5630973283  SOLV      3176            0.0000000000
      9649      3188  TIP3      OH2            17.5084254922        2.3120943591      -20.0204408100  SOLV      3177            0.0000000000
      9650      3188  TIP3      H1             17.8191151218        2.8804935152      -20.7488895179  SOLV      3177            0.0000000000
      9651      3188  TIP3      H2             17.2272288649        2.9744106875      -19.3562439720  SOLV      3177            0.0000000000
      9652      3189  TIP3      OH2            24.0871100672        3.8961326898      -17.6745829867  SOLV      3178            0.0000000000
      9653      3189  TIP3      H1             24.5192057660        4.4133297984      -18.3738245842  SOLV      3178            0.0000000000
      9654      3189  TIP3      H2             24.3263424419        4.4074508421      -16.8924004421  SOLV      3178            0.0000000000
      9655      3190  TIP3      OH2            28.9487196871        5.1430674772      -17.9170964104  SOLV      3179            0.0000000000
      9656      3190  TIP3      H1             29.1593816208        4.9450857664      -18.8320282890  SOLV      3179            0.0000000000
      9657      3190  TIP3      H2             29.1990178533        4.3167416868      -17.4590255377  SOLV      3179            0.0000000000
      9658      3191  TIP3      OH2            29.5715555871        4.5700959369      -22.4031363707  SOLV      3180            0.0000000000
      9659      3191  TIP3      H1             28.8672864176        5.1437234109      -22.0658035741  SOLV      3180            0.0000000000
      9660      3191  TIP3      H2             29.4451094280        3.7589645185      -21.8800920905  SOLV      3180            0.0000000000
      9661      3192  TIP3      OH2            14.6222165648       18.0878290499      -22.2825424067  SOLV      3181            0.0000000000
      9662      3192  TIP3      H1             13.7663979728       17.7450772048      -22.6021954657  SOLV      3181            0.0000000000
      9663      3192  TIP3      H2             14.5226051246       19.0249052296      -22.5426736053  SOLV      3181            0.0000000000
      9664      3193  TIP3      OH2            18.7113133973        3.8398360699      -22.3842024899  SOLV      3182            0.0000000000
      9665      3193  TIP3      H1             19.1973801480        3.2509455073      -22.9919793169  SOLV      3182            0.0000000000
      9666      3193  TIP3      H2             19.4343597733        4.4147373124      -22.0550141813  SOLV      3182            0.0000000000
      9667      3194  TIP3      OH2            23.5760871224        5.7205640231      -21.2524376574  SOLV      3183            0.0000000000
      9668      3194  TIP3      H1             24.3691272122        5.6468791512      -20.6952204257  SOLV      3183            0.0000000000
      9669      3194  TIP3      H2             23.6188948784        6.6448867285      -21.5747233367  SOLV      3183            0.0000000000
      9670      3195  TIP3      OH2            21.6798132590        6.3682694444       -7.6398860360  SOLV      3184            0.0000000000
      9671      3195  TIP3      H1             21.3110278512        5.7047809328       -7.0292874718  SOLV      3184            0.0000000000
      9672      3195  TIP3      H2             22.6159907683        6.3798119375       -7.3451557499  SOLV      3184            0.0000000000
      9673      3196  TIP3      OH2            24.1806507580        6.3746081710       -6.4327092562  SOLV      3185            0.0000000000
      9674      3196  TIP3      H1             25.0393996903        6.1448384116       -6.8266094244  SOLV      3185            0.0000000000
      9675      3196  TIP3      H2             24.0579976441        5.6532998154       -5.7829617206  SOLV      3185            0.0000000000
      9676      3197  TIP3      OH2            15.3187554785       18.2199919037      -25.6072541819  SOLV      3186            0.0000000000
      9677      3197  TIP3      H1             15.2798768330       18.6013147857      -24.7201065674  SOLV      3186            0.0000000000
      9678      3197  TIP3      H2             16.2152345076       17.8751936656      -25.6586567752  SOLV      3186            0.0000000000
      9679      3198  TIP3      OH2            32.5106146921        6.9482077903       -8.4632102501  SOLV      3187            0.0000000000
      9680      3198  TIP3      H1             32.6089836817        6.6162174049       -7.5430188405  SOLV      3187            0.0000000000
      9681      3198  TIP3      H2             33.4010303289        6.8044201457       -8.7980360311  SOLV      3187            0.0000000000
      9682      3199  TIP3      OH2           -22.8080269000       19.5867487060       -4.7731510638  SOLV      3188            0.0000000000
      9683      3199  TIP3      H1            -22.5288833401       20.4342022650       -4.3731132058  SOLV      3188            0.0000000000
      9684      3199  TIP3      H2            -22.5941113001       19.7405925337       -5.7096771151  SOLV      3188            0.0000000000
      9685      3200  TIP3      OH2           -28.9431299877       21.4115785584       -4.4959856263  SOLV      3189            0.0000000000
      9686      3200  TIP3      H1            -28.5085875589       20.5574025728       -4.3238381560  SOLV      3189            0.0000000000
      9687      3200  TIP3      H2            -29.3826256672       21.2308641727       -5.3478185795  SOLV      3189            0.0000000000
      9688      3201  TIP3      OH2           -28.5083300393       18.9226495236       -8.6008640440  SOLV      3190            0.0000000000
      9689      3201  TIP3      H1            -27.7939637869       18.7710607627       -7.9371773055  SOLV      3190            0.0000000000
      9690      3201  TIP3      H2            -27.9820788726       19.2693301949       -9.3433264034  SOLV      3190            0.0000000000
      9691      3202  TIP3      OH2           -22.0767691629       21.6838939201       -3.0725546008  SOLV      3191            0.0000000000
      9692      3202  TIP3      H1            -22.9295271123       22.1180664289       -3.2900592682  SOLV      3191            0.0000000000
      9693      3202  TIP3      H2            -21.9401495463       22.0009267040       -2.1676900828  SOLV      3191            0.0000000000
      9694      3203  TIP3      OH2           -26.5218583146       18.9896686947       -6.7476905851  SOLV      3192            0.0000000000
      9695      3203  TIP3      H1            -26.8045152962       18.6690785842       -5.8777448005  SOLV      3192            0.0000000000
      9696      3203  TIP3      H2            -25.9742183667       19.7613858108       -6.5035294717  SOLV      3192            0.0000000000
      9697      3204  TIP3      OH2           -24.8781823002       18.5507903659       -3.1138900353  SOLV      3193            0.0000000000
      9698      3204  TIP3      H1            -25.7622332796       18.8176583239       -3.4191903400  SOLV      3193            0.0000000000
      9699      3204  TIP3      H2            -24.3018904027       18.8865824594       -3.8314900158  SOLV      3193            0.0000000000
      9700      3205  TIP3      OH2           -23.6852523410       25.1770109894       -4.5631918276  SOLV      3194            0.0000000000
      9701      3205  TIP3      H1            -24.5109931378       25.7018271373       -4.6148953230  SOLV      3194            0.0000000000
      9702      3205  TIP3      H2            -23.4060000761       25.1748670330       -5.5098265259  SOLV      3194            0.0000000000
      9703      3206  TIP3      OH2           -29.2269364702       23.6579668434      -10.8432721506  SOLV      3195            0.0000000000
      9704      3206  TIP3      H1            -29.5519065153       24.2548907241      -10.1506457355  SOLV      3195            0.0000000000
      9705      3206  TIP3      H2            -28.4102307267       23.2944477658      -10.4347047271  SOLV      3195            0.0000000000
      9706      3207  TIP3      OH2           -26.7265739749       23.8910370567       -1.8881579564  SOLV      3196            0.0000000000
      9707      3207  TIP3      H1            -26.8747556371       24.8012983284       -1.5831689759  SOLV      3196            0.0000000000
      9708      3207  TIP3      H2            -27.6340321914       23.7208885569       -2.2489030985  SOLV      3196            0.0000000000
      9709      3208  TIP3      OH2           -30.6123076960       22.0338914904      -12.5331355466  SOLV      3197            0.0000000000
      9710      3208  TIP3      H1            -30.1199201898       22.6944227785      -11.9986341551  SOLV      3197            0.0000000000
      9711      3208  TIP3      H2            -30.7633116226       22.5095283548      -13.3567449182  SOLV      3197            0.0000000000
      9712      3209  TIP3      OH2           -25.6350416168       14.4106999498      -12.2887910456  SOLV      3198            0.0000000000
      9713      3209  TIP3      H1            -26.4290408376       14.6395764521      -11.7588873195  SOLV      3198            0.0000000000
      9714      3209  TIP3      H2            -25.4935270487       15.2437227370      -12.7842098663  SOLV      3198            0.0000000000
      9715      3210  TIP3      OH2           -24.3353361940       23.4582952683       -0.1272837468  SOLV      3199            0.0000000000
      9716      3210  TIP3      H1            -25.1895506763       23.5909924223       -0.5721822400  SOLV      3199            0.0000000000
      9717      3210  TIP3      H2            -24.2015522492       22.4966899595       -0.2419109660  SOLV      3199            0.0000000000
      9718      3211  TIP3      OH2           -29.1289271295       16.9398777213        0.2428074547  SOLV      3200            0.0000000000
      9719      3211  TIP3      H1            -28.3042799817       16.6486396455        0.6865540786  SOLV      3200            0.0000000000
      9720      3211  TIP3      H2            -29.7652050881       16.2579584729        0.4942061675  SOLV      3200            0.0000000000
      9721      3212  TIP3      OH2           -26.6089735786       21.2673830369       -0.8909391576  SOLV      3201            0.0000000000
      9722      3212  TIP3      H1            -27.1607421653       21.1574825593       -0.0875878564  SOLV      3201            0.0000000000
      9723      3212  TIP3      H2            -26.9050052380       22.1265570516       -1.2414221333  SOLV      3201            0.0000000000
      9724      3213  TIP3      OH2           -31.2645269812       20.9789382666       -9.4718356782  SOLV      3202            0.0000000000
      9725      3213  TIP3      H1            -31.4873209219       21.4945871969      -10.2542070595  SOLV      3202            0.0000000000
      9726      3213  TIP3      H2            -30.7328353257       20.2748842056       -9.8887476211  SOLV      3202            0.0000000000
      9727      3214  TIP3      OH2           -29.6637966065       20.9790813816       -7.1504456627  SOLV      3203            0.0000000000
      9728      3214  TIP3      H1            -30.3086103662       21.1962535381       -7.8521704978  SOLV      3203            0.0000000000
      9729      3214  TIP3      H2            -29.3116177146       20.1417461907       -7.5138696554  SOLV      3203            0.0000000000
      9730      3215  TIP3      OH2           -29.2748392014       23.3636114828       -2.6058999223  SOLV      3204            0.0000000000
      9731      3215  TIP3      H1            -29.2851765031       22.6285789189       -3.2641037183  SOLV      3204            0.0000000000
      9732      3215  TIP3      H2            -30.1008795880       23.2321157147       -2.1275124226  SOLV      3204            0.0000000000
      9733      3216  TIP3      OH2           -27.9035822202       18.7939638598       -4.1280452001  SOLV      3205            0.0000000000
      9734      3216  TIP3      H1            -28.1534772599       18.8712819878       -3.1760649893  SOLV      3205            0.0000000000
      9735      3216  TIP3      H2            -28.6473433167       18.2338055415       -4.4372517381  SOLV      3205            0.0000000000
      9736      3217  TIP3      OH2           -26.0523452001       26.6317011426       -4.6666997923  SOLV      3206            0.0000000000
      9737      3217  TIP3      H1            -25.6620884118       27.1083117570       -5.4357307092  SOLV      3206            0.0000000000
      9738      3217  TIP3      H2            -26.7793410022       26.1398205581       -5.1047851656  SOLV      3206            0.0000000000
      9739      3218  TIP3      OH2           -30.6909594119       17.2493798610      -12.4333038919  SOLV      3207            0.0000000000
      9740      3218  TIP3      H1            -31.6122628693       17.5341638468      -12.4580811972  SOLV      3207            0.0000000000
      9741      3218  TIP3      H2            -30.2488032809       18.1193724199      -12.3426162774  SOLV      3207            0.0000000000
      9742      3219  TIP3      OH2           -29.6811642752       19.6606124416      -11.4826654552  SOLV      3208            0.0000000000
      9743      3219  TIP3      H1            -28.7254668841       19.8296591494      -11.3997120422  SOLV      3208            0.0000000000
      9744      3219  TIP3      H2            -29.9824131073       20.4072439381      -12.0463199538  SOLV      3208            0.0000000000
      9745      3220  TIP3      OH2           -25.3491147177       20.6687996066      -13.2125521049  SOLV      3209            0.0000000000
      9746      3220  TIP3      H1            -25.9543613879       20.2389680115      -13.8604290588  SOLV      3209            0.0000000000
      9747      3220  TIP3      H2            -25.3371227907       21.5671154428      -13.6052201578  SOLV      3209            0.0000000000
      9748      3221  TIP3      OH2           -28.0215100350       25.2334454586       -5.9744922459  SOLV      3210            0.0000000000
      9749      3221  TIP3      H1            -28.7475633230       24.9798741538       -5.3883232456  SOLV      3210            0.0000000000
      9750      3221  TIP3      H2            -27.8127225805       24.3743325298       -6.3985454019  SOLV      3210            0.0000000000
      9751      3222  TIP3      OH2           -28.9894739302       25.2739833809      -13.0483802544  SOLV      3211            0.0000000000
      9752      3222  TIP3      H1            -29.1411654288       24.7098580630      -12.2642778190  SOLV      3211            0.0000000000
      9753      3222  TIP3      H2            -28.0350239104       25.1646866649      -13.2002281143  SOLV      3211            0.0000000000
      9754      3223  TIP3      OH2           -28.6268123448       19.0217479056       -1.5251560843  SOLV      3212            0.0000000000
      9755      3223  TIP3      H1            -28.2396171761       19.7428523012       -1.0158048244  SOLV      3212            0.0000000000
      9756      3223  TIP3      H2            -28.8376093103       18.3706981284       -0.8260226020  SOLV      3212            0.0000000000
      9757      3224  TIP3      OH2           -29.7052545202       16.7007815095       -9.8482925127  SOLV      3213            0.0000000000
      9758      3224  TIP3      H1            -30.1962439254       16.9285670695      -10.6658926634  SOLV      3213            0.0000000000
      9759      3224  TIP3      H2            -29.3952107901       17.5778466278       -9.5432878582  SOLV      3213            0.0000000000
      9760      3225  TIP3      OH2           -31.0587201107       15.9293333964       -7.6010354733  SOLV      3214            0.0000000000
      9761      3225  TIP3      H1            -30.8759175380       16.7169302289       -7.0813561889  SOLV      3214            0.0000000000
      9762      3225  TIP3      H2            -30.6930560455       16.1954505705       -8.4750809120  SOLV      3214            0.0000000000
      9763      3226  TIP3      OH2           -23.9817259897       20.7607603526       -0.8880523979  SOLV      3215            0.0000000000
      9764      3226  TIP3      H1            -24.9657165539       20.7951686664       -0.8301232507  SOLV      3215            0.0000000000
      9765      3226  TIP3      H2            -23.8908396900       20.3267036041       -1.7464079057  SOLV      3215            0.0000000000
      9766      3227  TIP3      OH2           -27.4549323263       22.7078302983       -7.0220293867  SOLV      3216            0.0000000000
      9767      3227  TIP3      H1            -28.2204858602       22.1120510692       -6.8883485490  SOLV      3216            0.0000000000
      9768      3227  TIP3      H2            -26.7505089764       22.2327735490       -6.5283733149  SOLV      3216            0.0000000000
      9769      3228  TIP3      OH2           -27.6498834104       26.7686866733       -1.9901919171  SOLV      3217            0.0000000000
      9770      3228  TIP3      H1            -27.0446308852       26.8990207183       -2.7359975110  SOLV      3217            0.0000000000
      9771      3228  TIP3      H2            -28.2796258020       27.4974783563       -2.1230412637  SOLV      3217            0.0000000000
      9772      3229  TIP3      OH2           -26.4908867862       23.5011483877        2.8034741031  SOLV      3218            0.0000000000
      9773      3229  TIP3      H1            -25.9432477510       22.8086723313        2.4159740894  SOLV      3218            0.0000000000
      9774      3229  TIP3      H2            -26.3033850701       24.2621720367        2.2502701934  SOLV      3218            0.0000000000
      9775      3230  TIP3      OH2           -26.2243281406       26.1194637459        0.2122870837  SOLV      3219            0.0000000000
      9776      3230  TIP3      H1            -26.9083589658       26.4175651922       -0.4248360386  SOLV      3219            0.0000000000
      9777      3230  TIP3      H2            -25.4121368042       26.3437914911       -0.2857175671  SOLV      3219            0.0000000000
      9778      3231  TIP3      OH2           -27.9505654734       20.6451797367        1.3681898713  SOLV      3220            0.0000000000
      9779      3231  TIP3      H1            -28.5066837529       21.1999443578        1.9182921915  SOLV      3220            0.0000000000
      9780      3231  TIP3      H2            -27.1733372806       20.4668365603        1.9439335136  SOLV      3220            0.0000000000
      9781      3232  TIP3      OH2           -25.7636111653       20.2164750546        3.0276133215  SOLV      3221            0.0000000000
      9782      3232  TIP3      H1            -25.5564470643       19.2715868640        3.1847645852  SOLV      3221            0.0000000000
      9783      3232  TIP3      H2            -25.8306163819       20.5854291223        3.9336926490  SOLV      3221            0.0000000000
      9784      3233  TIP3      OH2           -26.2541082329       25.2757228726      -13.2503356563  SOLV      3222            0.0000000000
      9785      3233  TIP3      H1            -25.6990456681       26.0486002379      -13.4363805586  SOLV      3222            0.0000000000
      9786      3233  TIP3      H2            -25.8320724644       24.9352263852      -12.4269447555  SOLV      3222            0.0000000000
      9787      3234  TIP3      OH2           -25.0829005726       23.9989201258      -11.1551870510  SOLV      3223            0.0000000000
      9788      3234  TIP3      H1            -25.7240590586       23.5698887494      -10.5469522648  SOLV      3223            0.0000000000
      9789      3234  TIP3      H2            -24.3454155715       24.2408095292      -10.5559405452  SOLV      3223            0.0000000000
      9790      3235  TIP3      OH2           -25.6948761901       23.0031748224      -14.6650567370  SOLV      3224            0.0000000000
      9791      3235  TIP3      H1            -26.5666338695       22.8249465584      -15.0309695661  SOLV      3224            0.0000000000
      9792      3235  TIP3      H2            -25.8596379506       23.8329827400      -14.1613788820  SOLV      3224            0.0000000000
      9793      3236  TIP3      OH2           -26.9811063609       19.7600581596      -15.2291359619  SOLV      3225            0.0000000000
      9794      3236  TIP3      H1            -27.5262246800       20.0207164286      -15.9774953906  SOLV      3225            0.0000000000
      9795      3236  TIP3      H2            -27.1042492632       18.7889834672      -15.2660358070  SOLV      3225            0.0000000000
      9796      3237  TIP3      OH2           -26.9511099863       22.5465449044       -9.7227945399  SOLV      3226            0.0000000000
      9797      3237  TIP3      H1            -26.8517015670       21.5842755672       -9.8277763482  SOLV      3226            0.0000000000
      9798      3237  TIP3      H2            -27.0516621319       22.6402750647       -8.7496013021  SOLV      3226            0.0000000000
      9799      3238  TIP3      OH2           -23.9652877200       26.8724198862       -1.2188596499  SOLV      3227            0.0000000000
      9800      3238  TIP3      H1            -23.3485249840       26.1656627038       -1.5162709899  SOLV      3227            0.0000000000
      9801      3238  TIP3      H2            -24.2760730890       27.2868737973       -2.0299781224  SOLV      3227            0.0000000000
      9802      3239  TIP3      OH2           -22.1588839900       24.7932014392       -1.0234317645  SOLV      3228            0.0000000000
      9803      3239  TIP3      H1            -22.9459617443       24.3467551850       -0.6372981110  SOLV      3228            0.0000000000
      9804      3239  TIP3      H2            -21.4709820511       24.1277341226       -0.8079885659  SOLV      3228            0.0000000000
      9805      3240  TIP3      OH2           -27.3274978064       17.0110716526      -15.5182187260  SOLV      3229            0.0000000000
      9806      3240  TIP3      H1            -26.6951166968       16.7711655819      -14.8094461016  SOLV      3229            0.0000000000
      9807      3240  TIP3      H2            -28.1689962055       16.6144703906      -15.1823745087  SOLV      3229            0.0000000000
      9808      3241  TIP3      OH2           -26.8828344477       19.7624345866      -10.7840133829  SOLV      3230            0.0000000000
      9809      3241  TIP3      H1            -26.4854515608       18.8715677383      -10.6306056737  SOLV      3230            0.0000000000
      9810      3241  TIP3      H2            -26.3225584610       20.0669241668      -11.5204019521  SOLV      3230            0.0000000000
      9811      3242  TIP3      OH2           -25.3215134626       21.4061250483       -5.8189863215  SOLV      3231            0.0000000000
      9812      3242  TIP3      H1            -24.4567485639       21.6613397075       -6.2151076753  SOLV      3231            0.0000000000
      9813      3242  TIP3      H2            -25.1892389267       21.7696092650       -4.9219191033  SOLV      3231            0.0000000000
      9814      3243  TIP3      OH2           -24.6009147681       22.8334440869       -3.4957800209  SOLV      3232            0.0000000000
      9815      3243  TIP3      H1            -25.3595755905       23.1519169840       -2.9654776473  SOLV      3232            0.0000000000
      9816      3243  TIP3      H2            -24.2808989863       23.6740985574       -3.8888024912  SOLV      3232            0.0000000000
      9817      3244  TIP3      OH2           -20.1285611269       18.8318556890        2.0449480547  SOLV      3233            0.0000000000
      9818      3244  TIP3      H1            -19.5237530566       18.1930352028        1.6134212063  SOLV      3233            0.0000000000
      9819      3244  TIP3      H2            -20.4377961616       19.3620476473        1.2778200912  SOLV      3233            0.0000000000
      9820      3245  TIP3      OH2           -25.8477198393       17.2403146225      -10.3909462391  SOLV      3234            0.0000000000
      9821      3245  TIP3      H1            -25.3799166941       17.0654263868       -9.5466996935  SOLV      3234            0.0000000000
      9822      3245  TIP3      H2            -26.4370042488       16.4590318589      -10.4311157447  SOLV      3234            0.0000000000
      9823      3246  TIP3      OH2           -21.4438725001       20.1655278379        0.0812439874  SOLV      3235            0.0000000000
      9824      3246  TIP3      H1            -22.3121401474       20.5951928843        0.2209082708  SOLV      3235            0.0000000000
      9825      3246  TIP3      H2            -21.7286502040       19.4217224336       -0.4845261172  SOLV      3235            0.0000000000
      9826      3247  TIP3      OH2           -25.0507163751       16.5140698744      -13.9936594565  SOLV      3236            0.0000000000
      9827      3247  TIP3      H1            -24.6349507413       15.8147061893      -14.5396873116  SOLV      3236            0.0000000000
      9828      3247  TIP3      H2            -24.3783164205       17.2233978189      -14.0197019027  SOLV      3236            0.0000000000
      9829      3248  TIP3      OH2           -22.4335294000       17.7958223918       -1.0882383594  SOLV      3237            0.0000000000
      9830      3248  TIP3      H1            -23.3236856747       17.7164108629       -1.4749295521  SOLV      3237            0.0000000000
      9831      3248  TIP3      H2            -22.0937531443       16.8778022771       -1.2018560244  SOLV      3237            0.0000000000
      9832      3249  TIP3      OH2           -29.9790734000       17.0691304322       -4.8946405494  SOLV      3238            0.0000000000
      9833      3249  TIP3      H1            -30.6675429172       16.4229665623       -4.7057444980  SOLV      3238            0.0000000000
      9834      3249  TIP3      H2            -29.3004438315       16.5378765224       -5.3573447516  SOLV      3238            0.0000000000
      9835      3250  TIP3      OH2           -25.1662407912       15.7700428431       -5.8699657120  SOLV      3239            0.0000000000
      9836      3250  TIP3      H1            -24.8054597953       16.2978378513       -6.6165041778  SOLV      3239            0.0000000000
      9837      3250  TIP3      H2            -26.1211234925       15.9686566797       -5.9417073678  SOLV      3239            0.0000000000
      9838      3251  TIP3      OH2           -24.2171675984       16.7525785876       -8.2278071533  SOLV      3240            0.0000000000
      9839      3251  TIP3      H1            -23.4781588025       16.2243280333       -8.6000825811  SOLV      3240            0.0000000000
      9840      3251  TIP3      H2            -23.8655534613       17.6624585693       -8.3683554263  SOLV      3240            0.0000000000
      9841      3252  TIP3      OH2           -27.9387972627       15.7544807152       -6.1868976145  SOLV      3241            0.0000000000
      9842      3252  TIP3      H1            -27.9918373160       15.3687417532       -7.0685535390  SOLV      3241            0.0000000000
      9843      3252  TIP3      H2            -28.0921162888       14.9657900599       -5.6130582397  SOLV      3241            0.0000000000
      9844      3253  TIP3      OH2           -27.5931037616       15.0619303890      -10.4673179925  SOLV      3242            0.0000000000
      9845      3253  TIP3      H1            -28.4074004193       15.5797768235      -10.2853940358  SOLV      3242            0.0000000000
      9846      3253  TIP3      H2            -27.8125994311       14.2158753514      -10.0228481404  SOLV      3242            0.0000000000
      9847      3254  TIP3      OH2           -25.0425070304       17.5255066880        3.2435005688  SOLV      3243            0.0000000000
      9848      3254  TIP3      H1            -24.8611497144       17.1847932672        4.1449165640  SOLV      3243            0.0000000000
      9849      3254  TIP3      H2            -24.1549278206       17.4690560306        2.8291191393  SOLV      3243            0.0000000000
      9850      3255  TIP3      OH2           -12.9236066924       26.5942767094      -14.1965221664  SOLV      3244            0.0000000000
      9851      3255  TIP3      H1            -13.2492819204       27.5003474484      -14.1897943662  SOLV      3244            0.0000000000
      9852      3255  TIP3      H2            -13.6797862582       26.1155004471      -14.5926153252  SOLV      3244            0.0000000000
      9853      3256  TIP3      OH2           -12.9314252898       26.7031101090      -10.3046792085  SOLV      3245            0.0000000000
      9854      3256  TIP3      H1            -12.5568509432       26.4276193432       -9.4454946284  SOLV      3245            0.0000000000
      9855      3256  TIP3      H2            -13.3852669172       25.8869234355      -10.5796494651  SOLV      3245            0.0000000000
      9856      3257  TIP3      OH2           -20.0189137966       25.5455769692       -6.7460353930  SOLV      3246            0.0000000000
      9857      3257  TIP3      H1            -19.6077690486       24.9093895666       -6.1347717170  SOLV      3246            0.0000000000
      9858      3257  TIP3      H2            -19.5213507711       26.3544369857       -6.5535941715  SOLV      3246            0.0000000000
      9859      3258  TIP3      OH2           -23.2356064137       21.7346574336      -11.7094640037  SOLV      3247            0.0000000000
      9860      3258  TIP3      H1            -23.6686471157       22.5774270232      -11.5054210417  SOLV      3247            0.0000000000
      9861      3258  TIP3      H2            -23.9774797268       21.2279184239      -12.0805467354  SOLV      3247            0.0000000000
      9862      3259  TIP3      OH2           -22.6776065805       24.6131503468      -10.0283060588  SOLV      3248            0.0000000000
      9863      3259  TIP3      H1            -22.2541760828       23.8746020998       -9.5309105635  SOLV      3248            0.0000000000
      9864      3259  TIP3      H2            -21.8877357278       25.0684488937      -10.3518201971  SOLV      3248            0.0000000000
      9865      3260  TIP3      OH2           -14.8249858878       28.7580683570      -10.4746937758  SOLV      3249            0.0000000000
      9866      3260  TIP3      H1            -14.1450565109       28.0522056879      -10.4536397393  SOLV      3249            0.0000000000
      9867      3260  TIP3      H2            -14.5118885125       29.3648182004       -9.7907491155  SOLV      3249            0.0000000000
      9868      3261  TIP3      OH2            -4.8587179191       22.1702221981       -9.9105897615  SOLV      3250            0.0000000000
      9869      3261  TIP3      H1             -4.5699771630       23.0037044252       -9.4864760778  SOLV      3250            0.0000000000
      9870      3261  TIP3      H2             -4.6493806192       22.3491901200      -10.8423153285  SOLV      3250            0.0000000000
      9871      3262  TIP3      OH2           -10.8605043074       23.9806731087       -9.6143922247  SOLV      3251            0.0000000000
      9872      3262  TIP3      H1            -10.4769778829       23.1052528023       -9.4116462120  SOLV      3251            0.0000000000
      9873      3262  TIP3      H2            -11.2257675932       23.8135950240      -10.5063799910  SOLV      3251            0.0000000000
      9874      3263  TIP3      OH2           -17.4524511271       20.5504349725       -9.9665235969  SOLV      3252            0.0000000000
      9875      3263  TIP3      H1            -17.6915948668       21.2728040862      -10.5851515400  SOLV      3252            0.0000000000
      9876      3263  TIP3      H2            -17.9317103933       19.8050136417      -10.3965749048  SOLV      3252            0.0000000000
      9877      3264  TIP3      OH2           -10.5418661978       21.4878920584      -13.7247806944  SOLV      3253            0.0000000000
      9878      3264  TIP3      H1             -9.8250546777       21.3477280688      -13.0631176719  SOLV      3253            0.0000000000
      9879      3264  TIP3      H2            -10.0258129921       21.8384602182      -14.4704144893  SOLV      3253            0.0000000000
      9880      3265  TIP3      OH2           -21.2273402450       22.5779303779       -8.8475320600  SOLV      3254            0.0000000000
      9881      3265  TIP3      H1            -20.3912164499       22.4229173044       -8.3725472362  SOLV      3254            0.0000000000
      9882      3265  TIP3      H2            -21.0671225934       22.0476070124       -9.6555824347  SOLV      3254            0.0000000000
      9883      3266  TIP3      OH2           -16.7727943508       24.5661357297      -11.1328655466  SOLV      3255            0.0000000000
      9884      3266  TIP3      H1            -15.8496658119       24.3068899596      -10.9389640268  SOLV      3255            0.0000000000
      9885      3266  TIP3      H2            -17.1782379026       23.7122224052      -11.4041963135  SOLV      3255            0.0000000000
      9886      3267  TIP3      OH2            -4.1290974105       24.2687915412       -8.2317781723  SOLV      3256            0.0000000000
      9887      3267  TIP3      H1             -4.9959098985       24.6867290181       -8.4181721986  SOLV      3256            0.0000000000
      9888      3267  TIP3      H2             -4.0540609481       24.4423739382       -7.2823440349  SOLV      3256            0.0000000000
      9889      3268  TIP3      OH2           -17.5713657504       20.4053754585       -5.5582112078  SOLV      3257            0.0000000000
      9890      3268  TIP3      H1            -18.1587031344       20.7577313350       -6.2537507642  SOLV      3257            0.0000000000
      9891      3268  TIP3      H2            -18.1148906130       20.5902707840       -4.7634494461  SOLV      3257            0.0000000000
      9892      3269  TIP3      OH2           -16.3397175312       27.6438295149       -8.2012213116  SOLV      3258            0.0000000000
      9893      3269  TIP3      H1            -17.0526851336       28.1107148546       -7.7120501058  SOLV      3258            0.0000000000
      9894      3269  TIP3      H2            -16.1844518477       28.2459962217       -8.9641574047  SOLV      3258            0.0000000000
      9895      3270  TIP3      OH2            -8.5228745505       21.5584476833      -11.9138662369  SOLV      3259            0.0000000000
      9896      3270  TIP3      H1             -8.7508957063       21.1205125861      -11.0830286586  SOLV      3259            0.0000000000
      9897      3270  TIP3      H2             -8.0216214013       22.3386553695      -11.6061313407  SOLV      3259            0.0000000000
      9898      3271  TIP3      OH2           -18.8322551474       21.5246157742       -7.7701063404  SOLV      3260            0.0000000000
      9899      3271  TIP3      H1            -18.2181872391       22.2486241448       -7.5250915550  SOLV      3260            0.0000000000
      9900      3271  TIP3      H2            -18.3380263492       21.1276759942       -8.5230870949  SOLV      3260            0.0000000000
      9901      3272  TIP3      OH2            -6.9344088721       21.1749063662       -8.2360295620  SOLV      3261            0.0000000000
      9902      3272  TIP3      H1             -7.8159155127       21.4094331420       -8.5676336656  SOLV      3261            0.0000000000
      9903      3272  TIP3      H2             -6.3471609434       21.4807266221       -8.9580932575  SOLV      3261            0.0000000000
      9904      3273  TIP3      OH2           -14.0343938829       17.5676532482       -8.3732607955  SOLV      3262            0.0000000000
      9905      3273  TIP3      H1            -14.2009979816       16.6156128317       -8.2349061071  SOLV      3262            0.0000000000
      9906      3273  TIP3      H2            -14.8179593597       17.9500462883       -7.9199758900  SOLV      3262            0.0000000000
      9907      3274  TIP3      OH2           -14.6314082402       25.0971614752      -15.8062890314  SOLV      3263            0.0000000000
      9908      3274  TIP3      H1            -15.4824097391       25.5726825959      -15.9713122987  SOLV      3263            0.0000000000
      9909      3274  TIP3      H2            -14.1446318145       25.3996299172      -16.5909200605  SOLV      3263            0.0000000000
      9910      3275  TIP3      OH2           -15.1643422146       23.1694672295      -18.8051198696  SOLV      3264            0.0000000000
      9911      3275  TIP3      H1            -14.5717124964       23.6262749211      -18.1853731172  SOLV      3264            0.0000000000
      9912      3275  TIP3      H2            -14.5443683416       22.5529097248      -19.2373112755  SOLV      3264            0.0000000000
      9913      3276  TIP3      OH2            -5.7461113192       27.7474674766       -9.6960296747  SOLV      3265            0.0000000000
      9914      3276  TIP3      H1             -6.5926740444       28.2381890782       -9.7567793587  SOLV      3265            0.0000000000
      9915      3276  TIP3      H2             -5.4625631417       27.7399480707      -10.6400620757  SOLV      3265            0.0000000000
      9916      3277  TIP3      OH2           -11.1194052061       26.0669039298      -16.1894124545  SOLV      3266            0.0000000000
      9917      3277  TIP3      H1            -11.7204041159       26.2420558028      -15.4253800272  SOLV      3266            0.0000000000
      9918      3277  TIP3      H2            -10.3179905373       25.7538899012      -15.7221060306  SOLV      3266            0.0000000000
      9919      3278  TIP3      OH2            -8.9471547667       26.3935042048       -7.0715503019  SOLV      3267            0.0000000000
      9920      3278  TIP3      H1             -9.0169700277       27.2549991937       -6.6296369727  SOLV      3267            0.0000000000
      9921      3278  TIP3      H2             -9.8190102786       26.3685584783       -7.5160192358  SOLV      3267            0.0000000000
      9922      3279  TIP3      OH2           -19.0179262274       26.0399259822      -12.0163689081  SOLV      3268            0.0000000000
      9923      3279  TIP3      H1            -19.4306749920       25.4664101713      -12.6994565128  SOLV      3268            0.0000000000
      9924      3279  TIP3      H2            -18.1746340977       25.5660135344      -11.8572362599  SOLV      3268            0.0000000000
      9925      3280  TIP3      OH2           -17.7033305748       25.3515656871       -8.7145437894  SOLV      3269            0.0000000000
      9926      3280  TIP3      H1            -17.4083585494       25.0844121754       -9.6058910031  SOLV      3269            0.0000000000
      9927      3280  TIP3      H2            -17.1712410600       26.1665904451       -8.5757679016  SOLV      3269            0.0000000000
      9928      3281  TIP3      OH2           -12.7221506234       24.5879428563      -17.8762016098  SOLV      3270            0.0000000000
      9929      3281  TIP3      H1            -12.1998764351       25.2296076430      -17.3475347008  SOLV      3270            0.0000000000
      9930      3281  TIP3      H2            -12.5030592021       24.8834590156      -18.7890595045  SOLV      3270            0.0000000000
      9931      3282  TIP3      OH2           -18.6855703638       26.4505355697       -4.2867742003  SOLV      3271            0.0000000000
      9932      3282  TIP3      H1            -18.5546059675       27.3388103151       -3.8991375164  SOLV      3271            0.0000000000
      9933      3282  TIP3      H2            -19.6306161771       26.3095280365       -4.0581509594  SOLV      3271            0.0000000000
      9934      3283  TIP3      OH2            -7.6852482175       16.9956191425      -17.3815324432  SOLV      3272            0.0000000000
      9935      3283  TIP3      H1             -8.5084731195       17.1949427840      -16.8875049227  SOLV      3272            0.0000000000
      9936      3283  TIP3      H2             -7.5647936797       17.8234895720      -17.8888040741  SOLV      3272            0.0000000000
      9937      3284  TIP3      OH2           -20.3638845602       24.4122529788      -13.8708266770  SOLV      3273            0.0000000000
      9938      3284  TIP3      H1            -21.1323603216       24.7359135287      -14.3822896029  SOLV      3273            0.0000000000
      9939      3284  TIP3      H2            -20.5598687960       23.4727803593      -13.7898635328  SOLV      3273            0.0000000000
      9940      3285  TIP3      OH2           -21.9430955198       27.7034281667       -5.3749431124  SOLV      3274            0.0000000000
      9941      3285  TIP3      H1            -22.8183944753       27.5488780018       -5.7794595011  SOLV      3274            0.0000000000
      9942      3285  TIP3      H2            -21.8554041176       26.9517049912       -4.7626194283  SOLV      3274            0.0000000000
      9943      3286  TIP3      OH2            -6.3437883578       26.0339545435       -5.2563052893  SOLV      3275            0.0000000000
      9944      3286  TIP3      H1             -7.2375717203       26.1127795207       -5.6175457703  SOLV      3275            0.0000000000
      9945      3286  TIP3      H2             -6.1897134749       25.0704602967       -5.3297911403  SOLV      3275            0.0000000000
      9946      3287  TIP3      OH2           -16.4151934546       18.3532192962       -7.0938201248  SOLV      3276            0.0000000000
      9947      3287  TIP3      H1            -17.2914926860       18.0437656069       -7.4071017942  SOLV      3276            0.0000000000
      9948      3287  TIP3      H2            -16.6981257190       19.1514041062       -6.6053905902  SOLV      3276            0.0000000000
      9949      3288  TIP3      OH2           -11.0562377842       19.4914139248       -5.1755352681  SOLV      3277            0.0000000000
      9950      3288  TIP3      H1            -10.3619658200       19.2230111223       -4.5387324966  SOLV      3277            0.0000000000
      9951      3288  TIP3      H2            -11.8835451164       19.2899433297       -4.6915479143  SOLV      3277            0.0000000000
      9952      3289  TIP3      OH2            -8.6674933029       23.8379192895       -5.9505005328  SOLV      3278            0.0000000000
      9953      3289  TIP3      H1             -9.1920287934       23.7684443049       -5.1206237263  SOLV      3278            0.0000000000
      9954      3289  TIP3      H2             -8.9732561056       24.6816051668       -6.3313382234  SOLV      3278            0.0000000000
      9955      3290  TIP3      OH2           -11.9263903928       25.2628665849      -20.3405601134  SOLV      3279            0.0000000000
      9956      3290  TIP3      H1            -12.3099069829       24.8680125401      -21.1521546576  SOLV      3279            0.0000000000
      9957      3290  TIP3      H2            -11.0112077287       25.3999665175      -20.6440047760  SOLV      3279            0.0000000000
      9958      3291  TIP3      OH2           -14.8936874347       18.7957617064      -17.4421280657  SOLV      3280            0.0000000000
      9959      3291  TIP3      H1            -15.2882823975       18.8473172049      -16.5418944622  SOLV      3280            0.0000000000
      9960      3291  TIP3      H2            -15.4039081954       18.0555246037      -17.7900692180  SOLV      3280            0.0000000000
      9961      3292  TIP3      OH2           -17.0223583838       23.4440330226       -6.9266269708  SOLV      3281            0.0000000000
      9962      3292  TIP3      H1            -17.5650018835       23.6016001006       -6.1242230053  SOLV      3281            0.0000000000
      9963      3292  TIP3      H2            -17.3163847927       24.1828589680       -7.5082580375  SOLV      3281            0.0000000000
      9964      3293  TIP3      OH2           -18.2500916074       22.3703254674      -11.8099795317  SOLV      3282            0.0000000000
      9965      3293  TIP3      H1            -19.1714275359       22.0830288631      -11.6260676779  SOLV      3282            0.0000000000
      9966      3293  TIP3      H2            -18.1267928367       21.9907253341      -12.7127238036  SOLV      3282            0.0000000000
      9967      3294  TIP3      OH2           -13.2830748246       23.1921302650      -14.4347022283  SOLV      3283            0.0000000000
      9968      3294  TIP3      H1            -13.8248770117       23.8664484004      -14.9065313799  SOLV      3283            0.0000000000
      9969      3294  TIP3      H2            -12.7626608992       22.8191419024      -15.1730843509  SOLV      3283            0.0000000000
      9970      3295  TIP3      OH2           -11.4694381997       25.8716546149       -3.7799114981  SOLV      3284            0.0000000000
      9971      3295  TIP3      H1            -11.7226762873       25.1929250972       -3.1144591238  SOLV      3284            0.0000000000
      9972      3295  TIP3      H2            -10.5769202883       26.1037550386       -3.4598186449  SOLV      3284            0.0000000000
      9973      3296  TIP3      OH2           -11.7343660843       23.4844506368      -12.1593614928  SOLV      3285            0.0000000000
      9974      3296  TIP3      H1            -12.4013022570       23.7217062066      -12.8391271089  SOLV      3285            0.0000000000
      9975      3296  TIP3      H2            -11.3904908381       22.6759713867      -12.5930209505  SOLV      3285            0.0000000000
      9976      3297  TIP3      OH2           -18.8245196135       23.6661357770       -4.8963258877  SOLV      3286            0.0000000000
      9977      3297  TIP3      H1            -18.7116447968       24.3866479551       -4.2552487858  SOLV      3286            0.0000000000
      9978      3297  TIP3      H2            -19.0004739931       22.8933100559       -4.3233085396  SOLV      3286            0.0000000000
      9979      3298  TIP3      OH2           -18.0728465172       18.5944838733      -17.6788259865  SOLV      3287            0.0000000000
      9980      3298  TIP3      H1            -18.0194484513       17.7562660095      -17.1833498761  SOLV      3287            0.0000000000
      9981      3298  TIP3      H2            -19.0152943151       18.7946373196      -17.6384334328  SOLV      3287            0.0000000000
      9982      3299  TIP3      OH2           -22.9612569572       18.9938283335       -9.0424181962  SOLV      3288            0.0000000000
      9983      3299  TIP3      H1            -22.2127000644       19.3152510897       -8.4994414479  SOLV      3288            0.0000000000
      9984      3299  TIP3      H2            -22.5347836218       18.6792337748       -9.8515584695  SOLV      3288            0.0000000000
      9985      3300  TIP3      OH2           -23.3477756040       18.7667139682      -13.8769824093  SOLV      3289            0.0000000000
      9986      3300  TIP3      H1            -22.8663530628       19.1448173352      -14.6439843859  SOLV      3289            0.0000000000
      9987      3300  TIP3      H2            -23.9321956971       19.5163932066      -13.6607485500  SOLV      3289            0.0000000000
      9988      3301  TIP3      OH2           -11.6544792163       25.9262398513       -7.9500406833  SOLV      3290            0.0000000000
      9989      3301  TIP3      H1            -11.3277474942       25.2116654658       -8.5485178793  SOLV      3290            0.0000000000
      9990      3301  TIP3      H2            -11.9445851023       25.3804848727       -7.1871568913  SOLV      3290            0.0000000000
      9991      3302  TIP3      OH2           -14.8695040923       20.5993654087      -11.1673803961  SOLV      3291            0.0000000000
      9992      3302  TIP3      H1            -15.7078026628       20.5667974066      -10.6604932363  SOLV      3291            0.0000000000
      9993      3302  TIP3      H2            -14.2045151034       20.4912141523      -10.4684130622  SOLV      3291            0.0000000000
      9994      3303  TIP3      OH2           -20.6186933744       21.1704232075      -11.1440748855  SOLV      3292            0.0000000000
      9995      3303  TIP3      H1            -21.5583975904       21.2214660081      -11.4369044964  SOLV      3292            0.0000000000
      9996      3303  TIP3      H2            -20.3662630498       20.2532111826      -11.3666502359  SOLV      3292            0.0000000000
      9997      3304  TIP3      OH2           -17.9387680180       21.2636352424      -14.2572565434  SOLV      3293            0.0000000000
      9998      3304  TIP3      H1            -17.0095473315       21.2847083541      -14.5460124583  SOLV      3293            0.0000000000
      9999      3304  TIP3      H2            -18.4450214192       21.3796994388      -15.0906871927  SOLV      3293            0.0000000000
     10000      3305  TIP3      OH2           -10.0673827841       21.3474427031       -9.1770607685  SOLV      3294            0.0000000000
     10001      3305  TIP3      H1            -10.3572749873       21.4782786243       -8.2459200265  SOLV      3294            0.0000000000
     10002      3305  TIP3      H2            -10.7643355019       20.7425501550       -9.4920246367  SOLV      3294            0.0000000000
     10003      3306  TIP3      OH2           -19.5618474740       21.5875254510      -16.4512544826  SOLV      3295            0.0000000000
     10004      3306  TIP3      H1            -20.2517961496       21.0693177344      -16.8953564129  SOLV      3295            0.0000000000
     10005      3306  TIP3      H2            -19.0009558267       21.8436879290      -17.2123303747  SOLV      3295            0.0000000000
     10006      3307  TIP3      OH2           -18.8041756175       28.7393946824       -2.8031918613  SOLV      3296            0.0000000000
     10007      3307  TIP3      H1            -17.9796267062       28.9986348371       -2.3113439643  SOLV      3296            0.0000000000
     10008      3307  TIP3      H2            -19.2100732575       28.1728685517       -2.1247741704  SOLV      3296            0.0000000000
     10009      3308  TIP3      OH2           -14.1520484856       23.9187039447      -10.1934554495  SOLV      3297            0.0000000000
     10010      3308  TIP3      H1            -13.4824934974       23.4035919922      -10.6632097931  SOLV      3297            0.0000000000
     10011      3308  TIP3      H2            -14.1793724373       23.4735441281       -9.3217273726  SOLV      3297            0.0000000000
     10012      3309  TIP3      OH2           -18.9826132995       18.7703439218      -11.4389986097  SOLV      3298            0.0000000000
     10013      3309  TIP3      H1            -19.2559982105       17.9282882367      -11.0153471447  SOLV      3298            0.0000000000
     10014      3309  TIP3      H2            -18.8808843873       18.5082976556      -12.3715284886  SOLV      3298            0.0000000000
     10015      3310  TIP3      OH2           -14.3735253727       22.9342781746       -7.4429331447  SOLV      3299            0.0000000000
     10016      3310  TIP3      H1            -15.2923243079       23.1947364005       -7.2146424833  SOLV      3299            0.0000000000
     10017      3310  TIP3      H2            -13.8300298306       23.4907234727       -6.8535755265  SOLV      3299            0.0000000000
     10018      3311  TIP3      OH2           -16.7916382871       26.5424675635      -16.4464997796  SOLV      3300            0.0000000000
     10019      3311  TIP3      H1            -17.5959480517       25.9812294568      -16.3927985065  SOLV      3300            0.0000000000
     10020      3311  TIP3      H2            -17.0609835766       27.4066557172      -16.1253320269  SOLV      3300            0.0000000000
     10021      3312  TIP3      OH2            -8.1533029443       29.1004804639       -9.8554403944  SOLV      3301            0.0000000000
     10022      3312  TIP3      H1             -7.7988611540       29.5974672916      -10.6238236994  SOLV      3301            0.0000000000
     10023      3312  TIP3      H2             -8.9225918497       28.6390825516      -10.2499351546  SOLV      3301            0.0000000000
     10024      3313  TIP3      OH2           -12.4396415078       19.8703163635      -17.7634575197  SOLV      3302            0.0000000000
     10025      3313  TIP3      H1            -13.3832761233       19.6094746112      -17.6242451075  SOLV      3302            0.0000000000
     10026      3313  TIP3      H2            -12.4086225681       20.7913176235      -17.4381735937  SOLV      3302            0.0000000000
     10027      3314  TIP3      OH2           -11.7860576685       22.3266136537      -16.6420847227  SOLV      3303            0.0000000000
     10028      3314  TIP3      H1            -10.8225867673       22.4220746523      -16.5325902771  SOLV      3303            0.0000000000
     10029      3314  TIP3      H2            -12.0245244982       23.1240131404      -17.1633548297  SOLV      3303            0.0000000000
     10030      3315  TIP3      OH2           -20.3415987800       26.3884771144       -9.5882168847  SOLV      3304            0.0000000000
     10031      3315  TIP3      H1            -19.7666279116       26.3228981307      -10.3772540642  SOLV      3304            0.0000000000
     10032      3315  TIP3      H2            -19.7578288283       26.0191483692       -8.8979913906  SOLV      3304            0.0000000000
     10033      3316  TIP3      OH2           -21.2278080895       25.9186203767       -3.3692758641  SOLV      3305            0.0000000000
     10034      3316  TIP3      H1            -21.1643885093       25.7100380580       -2.4177047679  SOLV      3305            0.0000000000
     10035      3316  TIP3      H2            -21.9932453901       25.3639908491       -3.6193101222  SOLV      3305            0.0000000000
     10036      3317  TIP3      OH2           -13.9265866612       26.9387021631       -3.2348433684  SOLV      3306            0.0000000000
     10037      3317  TIP3      H1            -14.5483849350       26.3977131408       -3.7498430520  SOLV      3306            0.0000000000
     10038      3317  TIP3      H2            -13.0620647772       26.6621704905       -3.6014166562  SOLV      3306            0.0000000000
     10039      3318  TIP3      OH2            -7.3214708602       23.2225089254      -18.3684775672  SOLV      3307            0.0000000000
     10040      3318  TIP3      H1             -7.9518718183       22.7784278036      -18.9840418691  SOLV      3307            0.0000000000
     10041      3318  TIP3      H2             -7.3555041111       24.1114502078      -18.7844543580  SOLV      3307            0.0000000000
     10042      3319  TIP3      OH2           -10.2533820345       27.7901324415      -11.1780518021  SOLV      3308            0.0000000000
     10043      3319  TIP3      H1            -11.1586249354       27.5632434440      -10.8912413864  SOLV      3308            0.0000000000
     10044      3319  TIP3      H2             -9.9727813441       26.9304278839      -11.5583318792  SOLV      3308            0.0000000000
     10045      3320  TIP3      OH2           -23.5102631637       23.0090531131      -16.3460314434  SOLV      3309            0.0000000000
     10046      3320  TIP3      H1            -23.0381703019       23.8351421849      -16.0993609020  SOLV      3309            0.0000000000
     10047      3320  TIP3      H2            -24.2641842966       23.0432342988      -15.7196134306  SOLV      3309            0.0000000000
     10048      3321  TIP3      OH2           -19.2126314164       21.2171825832       -3.4344105433  SOLV      3310            0.0000000000
     10049      3321  TIP3      H1            -20.1848537774       21.2633015242       -3.3400265501  SOLV      3310            0.0000000000
     10050      3321  TIP3      H2            -18.9666930680       20.6548620445       -2.6837003178  SOLV      3310            0.0000000000
     10051      3322  TIP3      OH2           -10.9809451035       28.0156541638      -18.1280870401  SOLV      3311            0.0000000000
     10052      3322  TIP3      H1            -11.2667978920       27.3826925552      -17.4258045834  SOLV      3311            0.0000000000
     10053      3322  TIP3      H2            -10.0955810690       27.6729428196      -18.3156531772  SOLV      3311            0.0000000000
     10054      3323  TIP3      OH2           -22.4393921232       25.3861504174      -15.4813379964  SOLV      3312            0.0000000000
     10055      3323  TIP3      H1            -23.1892051950       25.9950410508      -15.2946937528  SOLV      3312            0.0000000000
     10056      3323  TIP3      H2            -21.8431199977       25.9715620855      -15.9941636659  SOLV      3312            0.0000000000
     10057      3324  TIP3      OH2           -10.7506596695       21.8613463392       -6.5615528532  SOLV      3313            0.0000000000
     10058      3324  TIP3      H1             -9.9665010879       22.2277782357       -6.1235926826  SOLV      3313            0.0000000000
     10059      3324  TIP3      H2            -10.9088822921       21.0403730423       -6.0453935035  SOLV      3313            0.0000000000
     10060      3325  TIP3      OH2           -11.9348852340       19.3193389597      -14.8729849113  SOLV      3314            0.0000000000
     10061      3325  TIP3      H1            -12.1355148275       19.5522112498      -15.7967891652  SOLV      3314            0.0000000000
     10062      3325  TIP3      H2            -11.5534147737       20.1514506564      -14.5241898145  SOLV      3314            0.0000000000
     10063      3326  TIP3      OH2           -15.0821846046       21.2131909265      -13.8427633308  SOLV      3315            0.0000000000
     10064      3326  TIP3      H1            -14.4476481773       21.9429535665      -13.9983358796  SOLV      3315            0.0000000000
     10065      3326  TIP3      H2            -15.0567980240       21.1353582173      -12.8656261679  SOLV      3315            0.0000000000
     10066      3327  TIP3      OH2           -12.4079482699       24.3228360281       -5.8899401999  SOLV      3316            0.0000000000
     10067      3327  TIP3      H1            -12.1050459582       24.8317863802       -5.1061142563  SOLV      3316            0.0000000000
     10068      3327  TIP3      H2            -11.9084261223       23.4923591525       -5.7938158417  SOLV      3316            0.0000000000
     10069      3328  TIP3      OH2           -13.6971256346       18.3919029588      -12.8524521515  SOLV      3317            0.0000000000
     10070      3328  TIP3      H1            -13.8670446595       19.2209893043      -12.3702948620  SOLV      3317            0.0000000000
     10071      3328  TIP3      H2            -13.0850286001       18.7031154389      -13.5545522795  SOLV      3317            0.0000000000
     10072      3329  TIP3      OH2           -18.8497723234       18.4781431097      -14.3173615910  SOLV      3318            0.0000000000
     10073      3329  TIP3      H1            -18.3601247812       19.3112855828      -14.4177737906  SOLV      3318            0.0000000000
     10074      3329  TIP3      H2            -18.2467966562       17.8318400896      -14.7336393696  SOLV      3318            0.0000000000
     10075      3330  TIP3      OH2            -6.0362363687       23.3341439162       -6.0637796757  SOLV      3319            0.0000000000
     10076      3330  TIP3      H1             -7.0127963859       23.3893366046       -5.9427991621  SOLV      3319            0.0000000000
     10077      3330  TIP3      H2             -6.0091470557       22.7700997094       -6.8479992036  SOLV      3319            0.0000000000
     10078      3331  TIP3      OH2            -9.4945239446       25.2755939688      -12.2160347397  SOLV      3320            0.0000000000
     10079      3331  TIP3      H1            -10.2760229216       24.7002112527      -12.1036471563  SOLV      3320            0.0000000000
     10080      3331  TIP3      H2             -8.8132009602       24.7916919214      -11.7011481232  SOLV      3320            0.0000000000
     10081      3332  TIP3      OH2           -22.9519486924       20.3331129018      -16.1027697924  SOLV      3321            0.0000000000
     10082      3332  TIP3      H1            -22.9135218372       21.3100868696      -16.1421490284  SOLV      3321            0.0000000000
     10083      3332  TIP3      H2            -23.7818891909       20.1539211398      -16.5478213794  SOLV      3321            0.0000000000
     10084      3333  TIP3      OH2           -19.0484272556       17.5435376112       -7.4211615873  SOLV      3322            0.0000000000
     10085      3333  TIP3      H1            -19.3564787438       17.2183018807       -8.2959602108  SOLV      3322            0.0000000000
     10086      3333  TIP3      H2            -19.1717730949       16.7530693910       -6.8580452784  SOLV      3322            0.0000000000
     10087      3334  TIP3      OH2           -21.1338231780       28.6867971025       -0.8992847901  SOLV      3323            0.0000000000
     10088      3334  TIP3      H1            -20.6468120977       27.8881743181       -0.6377619850  SOLV      3323            0.0000000000
     10089      3334  TIP3      H2            -21.7938192966       28.3280111482       -1.4954409788  SOLV      3323            0.0000000000
     10090      3335  TIP3      OH2           -21.4079924676       25.1145222473      -18.9563979181  SOLV      3324            0.0000000000
     10091      3335  TIP3      H1            -20.9559276721       25.4230817166      -18.1556222970  SOLV      3324            0.0000000000
     10092      3335  TIP3      H2            -20.6668076356       25.1340490815      -19.6112856075  SOLV      3324            0.0000000000
     10093      3336  TIP3      OH2           -15.0404408625       29.3879631298       -3.1573685490  SOLV      3325            0.0000000000
     10094      3336  TIP3      H1            -14.9807608929       29.6428748572       -4.0773286341  SOLV      3325            0.0000000000
     10095      3336  TIP3      H2            -14.5708901484       28.5271708068       -3.1510676387  SOLV      3325            0.0000000000
     10096      3337  TIP3      OH2            -9.8808242758       29.4122539980       -7.0373934165  SOLV      3326            0.0000000000
     10097      3337  TIP3      H1             -9.2760441597       29.6926139169       -7.7420901215  SOLV      3326            0.0000000000
     10098      3337  TIP3      H2            -10.2398464259       30.2572259393       -6.7169926753  SOLV      3326            0.0000000000
     10099      3338  TIP3      OH2           -19.3221869542       26.5221058973       -0.9858105007  SOLV      3327            0.0000000000
     10100      3338  TIP3      H1            -18.6221732552       25.8794403716       -1.1641415731  SOLV      3327            0.0000000000
     10101      3338  TIP3      H2            -19.0941325785       26.8020400063       -0.0708456649  SOLV      3327            0.0000000000
     10102      3339  TIP3      OH2           -18.7596669419       24.6021854215      -16.4280262583  SOLV      3328            0.0000000000
     10103      3339  TIP3      H1            -19.0841908149       24.0074287083      -15.7341380286  SOLV      3328            0.0000000000
     10104      3339  TIP3      H2            -18.4534355860       23.9539044147      -17.0996788457  SOLV      3328            0.0000000000
     10105      3340  TIP3      OH2           -16.1451535433       25.3681685516       -4.4434769959  SOLV      3329            0.0000000000
     10106      3340  TIP3      H1            -17.0179436446       25.8124921216       -4.4482447231  SOLV      3329            0.0000000000
     10107      3340  TIP3      H2            -15.7102370373       25.7799338666       -5.2207155884  SOLV      3329            0.0000000000
     10108      3341  TIP3      OH2           -17.8725900241       22.7311117162      -18.2937821902  SOLV      3330            0.0000000000
     10109      3341  TIP3      H1            -18.1182252562       22.6866098612      -19.2408886022  SOLV      3330            0.0000000000
     10110      3341  TIP3      H2            -16.8982772127       22.7868020343      -18.3725436047  SOLV      3330            0.0000000000
     10111      3342  TIP3      OH2           -10.8251206404       29.4724901675       -3.3203934881  SOLV      3331            0.0000000000
     10112      3342  TIP3      H1             -9.9131752548       29.2143179790       -3.1625368780  SOLV      3331            0.0000000000
     10113      3342  TIP3      H2            -11.2751948834       29.0013335486       -2.6029574741  SOLV      3331            0.0000000000
     10114      3343  TIP3      OH2            -9.5670784873       25.7165850787      -21.6534876211  SOLV      3332            0.0000000000
     10115      3343  TIP3      H1             -9.7782024428       25.2525823919      -22.4897555462  SOLV      3332            0.0000000000
     10116      3343  TIP3      H2             -9.6949444155       26.6314206661      -21.9529897520  SOLV      3332            0.0000000000
     10117      3344  TIP3      OH2           -14.9774312323       23.2862017925       -3.1646376766  SOLV      3333            0.0000000000
     10118      3344  TIP3      H1            -14.9881185956       22.5085920007       -3.7569776470  SOLV      3333            0.0000000000
     10119      3344  TIP3      H2            -15.4143532276       23.9686169818       -3.7247584175  SOLV      3333            0.0000000000
     10120      3345  TIP3      OH2           -14.9776271385       21.1900663064       -5.1182221455  SOLV      3334            0.0000000000
     10121      3345  TIP3      H1            -14.7144703645       21.5583575257       -5.9799341019  SOLV      3334            0.0000000000
     10122      3345  TIP3      H2            -15.9165555752       20.9532098089       -5.2819999445  SOLV      3334            0.0000000000
     10123      3346  TIP3      OH2           -14.6537312102       26.5966304174       -6.3189127490  SOLV      3335            0.0000000000
     10124      3346  TIP3      H1            -13.8347305585       26.3863731340       -6.7641242706  SOLV      3335            0.0000000000
     10125      3346  TIP3      H2            -15.1907751180       27.0147023880       -7.0274665324  SOLV      3335            0.0000000000
     10126      3347  TIP3      OH2            -8.9097044022       26.1697193074       -2.5713423525  SOLV      3336            0.0000000000
     10127      3347  TIP3      H1             -8.4801269808       25.3293118988       -2.3494666811  SOLV      3336            0.0000000000
     10128      3347  TIP3      H2             -8.1833831478       26.6683223103       -2.9706616504  SOLV      3336            0.0000000000
     10129      3348  TIP3      OH2            -8.2738890781       28.5785696122       -5.0306041318  SOLV      3337            0.0000000000
     10130      3348  TIP3      H1             -9.0050149924       28.9241882036       -5.5839976254  SOLV      3337            0.0000000000
     10131      3348  TIP3      H2             -7.4900506069       28.8831118472       -5.5314281386  SOLV      3337            0.0000000000
     10132      3349  TIP3      OH2           -16.2505281159       24.3578324754       -0.8531711842  SOLV      3338            0.0000000000
     10133      3349  TIP3      H1            -16.9001499259       23.6430139396       -0.6875263734  SOLV      3338            0.0000000000
     10134      3349  TIP3      H2            -15.8976363034       24.1026428487       -1.7268078495  SOLV      3338            0.0000000000
     10135      3350  TIP3      OH2           -13.6734941241       18.8031661494       -4.3706311679  SOLV      3339            0.0000000000
     10136      3350  TIP3      H1            -14.1631118391       19.6143990121       -4.6221469162  SOLV      3339            0.0000000000
     10137      3350  TIP3      H2            -14.3596599398       18.1152200305       -4.4943724272  SOLV      3339            0.0000000000
     10138      3351  TIP3      OH2           -12.3907763174       23.8036098806       -2.2598461116  SOLV      3340            0.0000000000
     10139      3351  TIP3      H1            -12.5489099949       23.6841987585       -1.3048920226  SOLV      3340            0.0000000000
     10140      3351  TIP3      H2            -13.2872712495       23.5806558297       -2.5930638745  SOLV      3340            0.0000000000
     10141      3352  TIP3      OH2           -10.0260728638       23.2379467151       -3.7095414361  SOLV      3341            0.0000000000
     10142      3352  TIP3      H1            -10.7807452107       23.2852773951       -3.0897469630  SOLV      3341            0.0000000000
     10143      3352  TIP3      H2             -9.2884454920       22.9738528327       -3.1236121794  SOLV      3341            0.0000000000
     10144      3353  TIP3      OH2            -7.6801471063       22.7654200416       -2.2236093631  SOLV      3342            0.0000000000
     10145      3353  TIP3      H1             -7.5636379955       21.8037488615       -2.0661918911  SOLV      3342            0.0000000000
     10146      3353  TIP3      H2             -7.7607810838       23.1200565523       -1.3122464059  SOLV      3342            0.0000000000
     10147      3354  TIP3      OH2           -17.8322585431       22.1464738441       -0.2774073334  SOLV      3343            0.0000000000
     10148      3354  TIP3      H1            -17.7966316451       21.2310458758       -0.6132964323  SOLV      3343            0.0000000000
     10149      3354  TIP3      H2            -17.4590022560       22.0260240185        0.6212381538  SOLV      3343            0.0000000000
     10150      3355  TIP3      OH2           -12.7621870200       18.8831609542       -1.7827427619  SOLV      3344            0.0000000000
     10151      3355  TIP3      H1            -12.0901595677       18.1768362099       -1.8612240751  SOLV      3344            0.0000000000
     10152      3355  TIP3      H2            -13.1517438832       18.8531081620       -2.6804721791  SOLV      3344            0.0000000000
     10153      3356  TIP3      OH2           -12.0771696230       21.0278170569       -0.2240714702  SOLV      3345            0.0000000000
     10154      3356  TIP3      H1            -12.2994240397       20.3145034809       -0.8632309438  SOLV      3345            0.0000000000
     10155      3356  TIP3      H2            -12.8572577672       21.6175282222       -0.2962310950  SOLV      3345            0.0000000000
     10156      3357  TIP3      OH2            -8.2432023320       27.7923903664      -18.3608167323  SOLV      3346            0.0000000000
     10157      3357  TIP3      H1             -7.6900309613       28.4907299564      -18.7569457905  SOLV      3346            0.0000000000
     10158      3357  TIP3      H2             -8.1006579401       27.8802880629      -17.4194853071  SOLV      3346            0.0000000000
     10159      3358  TIP3      OH2            -7.6092293982       25.5352385295      -19.7654522617  SOLV      3347            0.0000000000
     10160      3358  TIP3      H1             -8.3332220655       25.4634715833      -20.4300404414  SOLV      3347            0.0000000000
     10161      3358  TIP3      H2             -7.9109090864       26.3189722097      -19.2573305073  SOLV      3347            0.0000000000
     10162      3359  TIP3      OH2            -9.0068148182       22.3506933363      -20.3477325132  SOLV      3348            0.0000000000
     10163      3359  TIP3      H1             -9.4562490819       22.6164079672      -21.1574744295  SOLV      3348            0.0000000000
     10164      3359  TIP3      H2             -9.2061369214       21.3879743033      -20.3525169151  SOLV      3348            0.0000000000
     10165      3360  TIP3      OH2            -8.8786791753       25.0623745909      -14.9297545275  SOLV      3349            0.0000000000
     10166      3360  TIP3      H1             -8.8869832928       24.0935885745      -14.9892192196  SOLV      3349            0.0000000000
     10167      3360  TIP3      H2             -9.0122694243       25.2159722280      -13.9698009185  SOLV      3349            0.0000000000
     10168      3361  TIP3      OH2           -22.6750638432       25.1435324153       -7.0898414921  SOLV      3350            0.0000000000
     10169      3361  TIP3      H1            -22.8755395650       25.4505878741       -7.9867355570  SOLV      3350            0.0000000000
     10170      3361  TIP3      H2            -21.7101459169       25.3511852791       -7.0390598268  SOLV      3350            0.0000000000
     10171      3362  TIP3      OH2            -5.9901280409       29.4535903238       -6.3472703795  SOLV      3351            0.0000000000
     10172      3362  TIP3      H1             -5.3951302702       28.7212257206       -6.6331279807  SOLV      3351            0.0000000000
     10173      3362  TIP3      H2             -6.3269609196       29.8317848981       -7.1653035474  SOLV      3351            0.0000000000
     10174      3363  TIP3      OH2            -4.1893528818       27.3721279279       -6.1784188328  SOLV      3352            0.0000000000
     10175      3363  TIP3      H1             -4.9683765044       26.9085042570       -5.7959017539  SOLV      3352            0.0000000000
     10176      3363  TIP3      H2             -3.4927850179       26.7118463578       -5.9688828444  SOLV      3352            0.0000000000
     10177      3364  TIP3      OH2            -9.5627845904       19.6912113787      -20.4830701326  SOLV      3353            0.0000000000
     10178      3364  TIP3      H1             -8.8819386128       19.3317607592      -19.8822571307  SOLV      3353            0.0000000000
     10179      3364  TIP3      H2            -10.3501987971       19.1491230245      -20.2849583359  SOLV      3353            0.0000000000
     10180      3365  TIP3      OH2            -8.9416459811       22.2924036779      -15.9362005118  SOLV      3354            0.0000000000
     10181      3365  TIP3      H1             -8.5546516104       21.3982506876      -15.7743646741  SOLV      3354            0.0000000000
     10182      3365  TIP3      H2             -8.3889660139       22.5783132885      -16.6836185723  SOLV      3354            0.0000000000
     10183      3366  TIP3      OH2            -7.3789868436       23.9685881145      -10.9497965651  SOLV      3355            0.0000000000
     10184      3366  TIP3      H1             -6.5101381086       24.2096611081      -11.3439436788  SOLV      3355            0.0000000000
     10185      3366  TIP3      H2             -7.2477430376       24.3369429377      -10.0539752593  SOLV      3355            0.0000000000
     10186      3367  TIP3      OH2            -6.6798479793       25.4055656351       -8.6350650923  SOLV      3356            0.0000000000
     10187      3367  TIP3      H1             -7.4509757929       25.7049076868       -8.1150878150  SOLV      3356            0.0000000000
     10188      3367  TIP3      H2             -6.3493668864       26.2546476965       -8.9983916007  SOLV      3356            0.0000000000
     10189      3368  TIP3      OH2           -20.4993387409       22.6942154446       -0.5835061693  SOLV      3357            0.0000000000
     10190      3368  TIP3      H1            -19.5204944823       22.6391804110       -0.5412398393  SOLV      3357            0.0000000000
     10191      3368  TIP3      H2            -20.7373726631       21.8206576666       -0.2157966296  SOLV      3357            0.0000000000
     10192      3369  TIP3      OH2            -2.1633986190       21.4139362580       -3.1006888381  SOLV      3358            0.0000000000
     10193      3369  TIP3      H1             -1.5577754252       20.7631077882       -3.5116748071  SOLV      3358            0.0000000000
     10194      3369  TIP3      H2             -2.4593333333       21.9329983684       -3.8788564554  SOLV      3358            0.0000000000
     10195      3370  TIP3      OH2            -7.8865118262       19.7816356627      -15.5317095501  SOLV      3359            0.0000000000
     10196      3370  TIP3      H1             -7.4363534361       19.6055694309      -14.6785762317  SOLV      3359            0.0000000000
     10197      3370  TIP3      H2             -8.5145053777       19.0278343216      -15.5589345943  SOLV      3359            0.0000000000
     10198      3371  TIP3      OH2           -20.8938536248       19.6371859241       -7.3010227939  SOLV      3360            0.0000000000
     10199      3371  TIP3      H1            -20.2675680238       18.8882689161       -7.2415688610  SOLV      3360            0.0000000000
     10200      3371  TIP3      H2            -20.2768255870       20.3820679173       -7.4093745278  SOLV      3360            0.0000000000
     10201      3372  TIP3      OH2           -22.8949775069       22.3993994406       -6.6018118867  SOLV      3361            0.0000000000
     10202      3372  TIP3      H1            -22.3680658095       22.2166369036       -7.4024505091  SOLV      3361            0.0000000000
     10203      3372  TIP3      H2            -22.8192630879       23.3719206379       -6.5884859599  SOLV      3361            0.0000000000
     10204      3373  TIP3      OH2            -3.4742996034       22.7457848165       -5.0824144566  SOLV      3362            0.0000000000
     10205      3373  TIP3      H1             -4.3341742019       23.1548972578       -4.8620462792  SOLV      3362            0.0000000000
     10206      3373  TIP3      H2             -3.7843369475       21.9965426334       -5.6268760800  SOLV      3362            0.0000000000
     10207      3374  TIP3      OH2            -7.1237967007       19.0796048020      -19.1488974094  SOLV      3363            0.0000000000
     10208      3374  TIP3      H1             -6.7556917620       18.3797774481      -19.7295689332  SOLV      3363            0.0000000000
     10209      3374  TIP3      H2             -6.4392426328       19.7722673072      -19.1987455014  SOLV      3363            0.0000000000
     10210      3375  TIP3      OH2           -23.0146556092       17.3870471334      -11.5646199300  SOLV      3364            0.0000000000
     10211      3375  TIP3      H1            -23.9403120473       17.3361599409      -11.2733886390  SOLV      3364            0.0000000000
     10212      3375  TIP3      H2            -23.0785140335       17.9653156917      -12.3518244668  SOLV      3364            0.0000000000
     10213      3376  TIP3      OH2           -20.8314628020       18.1699535806       -3.4329907917  SOLV      3365            0.0000000000
     10214      3376  TIP3      H1            -21.3500468344       18.1589513994       -2.6136997845  SOLV      3365            0.0000000000
     10215      3376  TIP3      H2            -21.4721540586       18.5797543077       -4.0490706029  SOLV      3365            0.0000000000
     10216      3377  TIP3      OH2            -4.4648441652       20.3408327850       -6.2281248472  SOLV      3366            0.0000000000
     10217      3377  TIP3      H1             -5.3718897059       20.1984703005       -6.5519845878  SOLV      3366            0.0000000000
     10218      3377  TIP3      H2             -4.0972564359       19.4308909756       -6.3171066142  SOLV      3366            0.0000000000
     10219      3378  TIP3      OH2           -12.3771630736       19.5417455046       -9.9174264320  SOLV      3367            0.0000000000
     10220      3378  TIP3      H1            -12.8321439710       18.8191393011       -9.4474606636  SOLV      3367            0.0000000000
     10221      3378  TIP3      H2            -11.7174053802       19.0615935763      -10.4494383359  SOLV      3367            0.0000000000
     10222      3379  TIP3      OH2            -7.2186444153       18.3672775610      -11.0213282225  SOLV      3368            0.0000000000
     10223      3379  TIP3      H1             -6.8769627650       18.8964419399      -11.7741222406  SOLV      3368            0.0000000000
     10224      3379  TIP3      H2             -8.1800664063       18.5320978884      -11.0821097552  SOLV      3368            0.0000000000
     10225      3380  TIP3      OH2            -6.2277243290       19.3822440449      -13.3696294947  SOLV      3369            0.0000000000
     10226      3380  TIP3      H1             -5.4855239131       18.8507492302      -13.7278917823  SOLV      3369            0.0000000000
     10227      3380  TIP3      H2             -5.8994398999       20.2941141659      -13.5231756031  SOLV      3369            0.0000000000
     10228      3381  TIP3      OH2           -19.9490260193       16.5983588771       -9.8658643095  SOLV      3370            0.0000000000
     10229      3381  TIP3      H1            -20.8684061093       16.2627758930       -9.8459349239  SOLV      3370            0.0000000000
     10230      3381  TIP3      H2            -19.4542548111       15.7532669452       -9.9300959776  SOLV      3370            0.0000000000
     10231      3382  TIP3      OH2           -22.0913905099       15.3084142006      -13.3776577358  SOLV      3371            0.0000000000
     10232      3382  TIP3      H1            -21.6952034897       15.8653060005      -14.0686612668  SOLV      3371            0.0000000000
     10233      3382  TIP3      H2            -22.3244060132       15.9686614927      -12.6968514689  SOLV      3371            0.0000000000
     10234      3383  TIP3      OH2           -15.3834518140       16.8670806969      -11.0488636448  SOLV      3372            0.0000000000
     10235      3383  TIP3      H1            -14.8668931824       17.3671706388      -11.7015684154  SOLV      3372            0.0000000000
     10236      3383  TIP3      H2            -15.1657813641       17.3201331769      -10.2275912033  SOLV      3372            0.0000000000
     10237      3384  TIP3      OH2           -10.0308264518       18.4134514352      -11.2522874774  SOLV      3373            0.0000000000
     10238      3384  TIP3      H1            -10.1018338270       17.9865666938      -12.1133153807  SOLV      3373            0.0000000000
     10239      3384  TIP3      H2            -10.1344296508       17.6388471496      -10.6463547375  SOLV      3373            0.0000000000
     10240      3385  TIP3      OH2            -9.7114340666       17.6801779306      -15.5809554038  SOLV      3374            0.0000000000
     10241      3385  TIP3      H1            -10.5644533727       18.1161910801      -15.3895075747  SOLV      3374            0.0000000000
     10242      3385  TIP3      H2             -9.8688055039       16.8035708074      -15.1640167272  SOLV      3374            0.0000000000
     10243      3386  TIP3      OH2           -20.8714929070       17.0756804688      -15.7409535687  SOLV      3375            0.0000000000
     10244      3386  TIP3      H1            -20.1307658221       16.4464490710      -15.9103600147  SOLV      3375            0.0000000000
     10245      3386  TIP3      H2            -20.3653677900       17.7064154365      -15.1896721989  SOLV      3375            0.0000000000
     10246      3387  TIP3      OH2           -15.7712879671       18.8066948148      -14.8693962676  SOLV      3376            0.0000000000
     10247      3387  TIP3      H1            -15.3864397950       18.1868868511      -14.2360537236  SOLV      3376            0.0000000000
     10248      3387  TIP3      H2            -15.5104836301       19.6679284075      -14.4835288040  SOLV      3376            0.0000000000
     10249      3388  TIP3      OH2           -17.8739951347       19.3989690364       -0.9495625858  SOLV      3377            0.0000000000
     10250      3388  TIP3      H1            -18.2059275024       18.6851085618       -0.3752976622  SOLV      3377            0.0000000000
     10251      3388  TIP3      H2            -16.9285561563       19.4116215958       -0.6859797793  SOLV      3377            0.0000000000
     10252      3389  TIP3      OH2           -15.3604809332       19.3973511997        0.2182070651  SOLV      3378            0.0000000000
     10253      3389  TIP3      H1            -14.5073996286       19.1584666879       -0.1830920104  SOLV      3378            0.0000000000
     10254      3389  TIP3      H2            -15.4730168737       18.6829411928        0.8780697076  SOLV      3378            0.0000000000
     10255      3390  TIP3      OH2            -7.0886192082       20.0558639166       -1.9081520818  SOLV      3379            0.0000000000
     10256      3390  TIP3      H1             -6.9140343783       19.7519431029       -0.9905652732  SOLV      3379            0.0000000000
     10257      3390  TIP3      H2             -6.1948966381       19.9961119293       -2.3053623578  SOLV      3379            0.0000000000
     10258      3391  TIP3      OH2             4.8008422332       29.1860230592      -19.3048072048  SOLV      3380            0.0000000000
     10259      3391  TIP3      H1              4.7448292504       30.0452101345      -19.7501498238  SOLV      3380            0.0000000000
     10260      3391  TIP3      H2              4.0764001910       28.7140908987      -19.7559776390  SOLV      3380            0.0000000000
     10261      3392  TIP3      OH2             5.0591277614       29.4142808162      -15.4292294828  SOLV      3381            0.0000000000
     10262      3392  TIP3      H1              5.3701190069       29.0764845011      -14.5672957226  SOLV      3381            0.0000000000
     10263      3392  TIP3      H2              4.5795351289       28.6496877079      -15.7775367911  SOLV      3381            0.0000000000
     10264      3393  TIP3      OH2            -2.0117299767       28.1145770411      -11.8812180981  SOLV      3382            0.0000000000
     10265      3393  TIP3      H1             -1.6832734269       27.4156697561      -11.2829830554  SOLV      3382            0.0000000000
     10266      3393  TIP3      H2             -1.5128042633       28.8777559759      -11.5517405438  SOLV      3382            0.0000000000
     10267      3394  TIP3      OH2            -5.6315124611       24.9096649660      -16.6569712212  SOLV      3383            0.0000000000
     10268      3394  TIP3      H1             -6.1986828372       24.8314032314      -15.8933737388  SOLV      3383            0.0000000000
     10269      3394  TIP3      H2             -6.0164677785       24.2293240133      -17.2430614598  SOLV      3383            0.0000000000
     10270      3395  TIP3      OH2            13.0824207052       24.7156095202      -15.0539847790  SOLV      3384            0.0000000000
     10271      3395  TIP3      H1             13.3555726197       25.5541926827      -14.6271385206  SOLV      3384            0.0000000000
     10272      3395  TIP3      H2             13.3681095843       24.8654867826      -15.9723414905  SOLV      3384            0.0000000000
     10273      3396  TIP3      OH2             7.0326082180       26.5519596578      -14.7355332596  SOLV      3385            0.0000000000
     10274      3396  TIP3      H1              7.4756176305       25.7094656347      -14.5148329948  SOLV      3385            0.0000000000
     10275      3396  TIP3      H2              6.7057983756       26.3548312927      -15.6343645609  SOLV      3385            0.0000000000
     10276      3397  TIP3      OH2             0.4822784553       23.1629120601      -15.0902413966  SOLV      3386            0.0000000000
     10277      3397  TIP3      H1              0.2759970827       23.8723498633      -15.7308564473  SOLV      3386            0.0000000000
     10278      3397  TIP3      H2             -0.0042309953       22.4113836629      -15.4917789956  SOLV      3386            0.0000000000
     10279      3398  TIP3      OH2             7.4058407841       24.0398158850      -18.8542780366  SOLV      3387            0.0000000000
     10280      3398  TIP3      H1              8.1222905503       23.9293573104      -18.1849046138  SOLV      3387            0.0000000000
     10281      3398  TIP3      H2              7.9242950888       24.3992932899      -19.5973266596  SOLV      3387            0.0000000000
     10282      3399  TIP3      OH2            -3.2437366717       25.1707977863      -13.9803154904  SOLV      3388            0.0000000000
     10283      3399  TIP3      H1             -2.4208381317       24.9681607986      -13.5012261913  SOLV      3388            0.0000000000
     10284      3399  TIP3      H2             -3.1041242480       24.6693838714      -14.8030054579  SOLV      3388            0.0000000000
     10285      3400  TIP3      OH2             1.1925155759       27.1417145130      -16.2829657838  SOLV      3389            0.0000000000
     10286      3400  TIP3      H1              2.1184198308       26.8950209526      -16.0611048578  SOLV      3389            0.0000000000
     10287      3400  TIP3      H2              0.8149286660       26.2759793249      -16.5518510424  SOLV      3389            0.0000000000
     10288      3401  TIP3      OH2            13.7835954407       26.8067959234      -13.3584688579  SOLV      3390            0.0000000000
     10289      3401  TIP3      H1             13.0024701016       27.3449461874      -13.5974432608  SOLV      3390            0.0000000000
     10290      3401  TIP3      H2             13.9759225747       27.1423372403      -12.4690427225  SOLV      3390            0.0000000000
     10291      3402  TIP3      OH2             0.3975796903       22.9592213304      -10.6935925074  SOLV      3391            0.0000000000
     10292      3402  TIP3      H1             -0.2082638064       23.3104510672      -11.3720291307  SOLV      3391            0.0000000000
     10293      3402  TIP3      H2             -0.1326835253       23.1242300627       -9.8854134596  SOLV      3391            0.0000000000
     10294      3403  TIP3      OH2             1.5943283089       30.2526001154      -13.3249537812  SOLV      3392            0.0000000000
     10295      3403  TIP3      H1              0.8259220379       30.5016626521      -12.7662207185  SOLV      3392            0.0000000000
     10296      3403  TIP3      H2              1.9434013194       31.1301221809      -13.5660701332  SOLV      3392            0.0000000000
     10297      3404  TIP3      OH2             9.4105574450       24.1584923563      -17.0428127971  SOLV      3393            0.0000000000
     10298      3404  TIP3      H1              9.2828489921       23.7216887089      -16.1916124797  SOLV      3393            0.0000000000
     10299      3404  TIP3      H2              9.9778457775       24.9156699403      -16.7980378477  SOLV      3393            0.0000000000
     10300      3405  TIP3      OH2            -0.8779621937       24.0942398248      -12.8875212461  SOLV      3394            0.0000000000
     10301      3405  TIP3      H1             -0.2627376310       24.8125905931      -12.6263498922  SOLV      3394            0.0000000000
     10302      3405  TIP3      H2             -0.3673636586       23.6973520785      -13.6293865476  SOLV      3394            0.0000000000
     10303      3406  TIP3      OH2            11.0265614201       23.7028776302      -13.3963368223  SOLV      3395            0.0000000000
     10304      3406  TIP3      H1             10.1614633046       24.0014580841      -13.7168698982  SOLV      3395            0.0000000000
     10305      3406  TIP3      H2             11.6372370089       24.0330704679      -14.0888952515  SOLV      3395            0.0000000000
     10306      3407  TIP3      OH2             3.8861313245       20.0974243834      -13.5549379883  SOLV      3396            0.0000000000
     10307      3407  TIP3      H1              3.7608298725       19.1553349003      -13.3276142043  SOLV      3396            0.0000000000
     10308      3407  TIP3      H2              3.1260915077       20.4965264351      -13.0764511877  SOLV      3396            0.0000000000
     10309      3408  TIP3      OH2             3.0419221113       27.7261730906      -21.0142834268  SOLV      3397            0.0000000000
     10310      3408  TIP3      H1              2.1335388839       27.9188892605      -21.3420423455  SOLV      3397            0.0000000000
     10311      3408  TIP3      H2              3.5244015172       28.2399727609      -21.6801460738  SOLV      3397            0.0000000000
     10312      3409  TIP3      OH2             2.8296021838       25.6294314791      -23.8157258822  SOLV      3398            0.0000000000
     10313      3409  TIP3      H1              3.4271437599       26.1623404238      -23.2684160402  SOLV      3398            0.0000000000
     10314      3409  TIP3      H2              3.4554001831       25.1521794640      -24.3865830627  SOLV      3398            0.0000000000
     10315      3410  TIP3      OH2             6.7536182634       28.5560929229      -21.2134561548  SOLV      3399            0.0000000000
     10316      3410  TIP3      H1              6.1889334152       28.7579787783      -20.4366416154  SOLV      3399            0.0000000000
     10317      3410  TIP3      H2              7.5955156736       28.3073921790      -20.7766335229  SOLV      3399            0.0000000000
     10318      3411  TIP3      OH2             9.0183892498       28.9471328615      -12.1676101047  SOLV      3400            0.0000000000
     10319      3411  TIP3      H1              9.0000708205       29.8084787949      -11.7155810282  SOLV      3400            0.0000000000
     10320      3411  TIP3      H2              8.1566189330       28.9797388734      -12.6240834391  SOLV      3400            0.0000000000
     10321      3412  TIP3      OH2            -0.9888880137       28.6596682383      -17.1019013609  SOLV      3401            0.0000000000
     10322      3412  TIP3      H1             -1.4319566088       28.0657188946      -17.7308971017  SOLV      3401            0.0000000000
     10323      3412  TIP3      H2             -0.1579308108       28.1628928190      -16.9230490486  SOLV      3401            0.0000000000
     10324      3413  TIP3      OH2             0.2294923254       27.9531399039      -13.8906130295  SOLV      3402            0.0000000000
     10325      3413  TIP3      H1              0.5630825834       27.6263061927      -14.7468144055  SOLV      3402            0.0000000000
     10326      3413  TIP3      H2              0.7803545423       28.7568989427      -13.7673072670  SOLV      3402            0.0000000000
     10327      3414  TIP3      OH2             5.3038320905       27.0604578165      -23.0111332823  SOLV      3403            0.0000000000
     10328      3414  TIP3      H1              5.7299114033       27.7263002573      -22.4229513834  SOLV      3403            0.0000000000
     10329      3414  TIP3      H2              5.5806973636       27.3691061877      -23.8917524261  SOLV      3403            0.0000000000
     10330      3415  TIP3      OH2            -0.7292134486       29.1011845027       -9.5101263069  SOLV      3404            0.0000000000
     10331      3415  TIP3      H1             -0.5896961576       29.9504854448       -9.0428440843  SOLV      3404            0.0000000000
     10332      3415  TIP3      H2             -1.6434841717       28.9005401873       -9.2130030779  SOLV      3404            0.0000000000
     10333      3416  TIP3      OH2            10.2860507391       19.5960743265      -22.5193338658  SOLV      3405            0.0000000000
     10334      3416  TIP3      H1              9.4771371418       19.8270666325      -22.0190682523  SOLV      3405            0.0000000000
     10335      3416  TIP3      H2             10.4194817687       20.4076934680      -23.0527817161  SOLV      3405            0.0000000000
     10336      3417  TIP3      OH2            -3.0399390133       27.1317107882      -18.4085558821  SOLV      3406            0.0000000000
     10337      3417  TIP3      H1             -3.2564512334       27.4423586811      -19.3233831854  SOLV      3406            0.0000000000
     10338      3417  TIP3      H2             -2.5624388266       26.3176809788      -18.6468415078  SOLV      3406            0.0000000000
     10339      3418  TIP3      OH2            -3.9965097351       30.2584715010      -10.5420146469  SOLV      3407            0.0000000000
     10340      3418  TIP3      H1             -4.8871513192       30.0705032508      -10.8929276169  SOLV      3407            0.0000000000
     10341      3418  TIP3      H2             -3.8777422045       29.5525299840       -9.8786017184  SOLV      3407            0.0000000000
     10342      3419  TIP3      OH2            11.5947561139       28.5710184537      -10.3891710332  SOLV      3408            0.0000000000
     10343      3419  TIP3      H1             10.7339182844       28.6752737381      -10.8152756698  SOLV      3408            0.0000000000
     10344      3419  TIP3      H2             11.7492662253       27.6082904439      -10.4823192354  SOLV      3408            0.0000000000
     10345      3420  TIP3      OH2             1.5405823658       20.9213558990      -12.2370644172  SOLV      3409            0.0000000000
     10346      3420  TIP3      H1              0.6572312306       20.6081605532      -12.5244754700  SOLV      3409            0.0000000000
     10347      3420  TIP3      H2              1.2693150152       21.7098706680      -11.7261023157  SOLV      3409            0.0000000000
     10348      3421  TIP3      OH2             6.9215689245       22.0505472558      -10.3055453809  SOLV      3410            0.0000000000
     10349      3421  TIP3      H1              7.6264146558       21.7887398868       -9.6759789659  SOLV      3410            0.0000000000
     10350      3421  TIP3      H2              6.1031841644       21.8525987726       -9.8064707271  SOLV      3410            0.0000000000
     10351      3422  TIP3      OH2             9.2362372833       26.3455890572      -11.1396550914  SOLV      3411            0.0000000000
     10352      3422  TIP3      H1              8.7664074246       26.3136321593      -10.2745279074  SOLV      3411            0.0000000000
     10353      3422  TIP3      H2              9.0063910698       27.2319229920      -11.4762569696  SOLV      3411            0.0000000000
     10354      3423  TIP3      OH2             5.9124817912       27.9741817049      -25.5848885853  SOLV      3412            0.0000000000
     10355      3423  TIP3      H1              5.0762419420       28.1069696770      -26.0484797880  SOLV      3412            0.0000000000
     10356      3423  TIP3      H2              6.0939543526       28.8495504153      -25.2305818846  SOLV      3412            0.0000000000
     10357      3424  TIP3      OH2             3.1245034662       21.3211243685      -22.4700743531  SOLV      3413            0.0000000000
     10358      3424  TIP3      H1              2.7227740428       21.3376340796      -21.5800295354  SOLV      3413            0.0000000000
     10359      3424  TIP3      H2              2.6398329849       20.5647365385      -22.8532702707  SOLV      3413            0.0000000000
     10360      3425  TIP3      OH2             0.9069763991       26.0394845190      -12.0723285123  SOLV      3414            0.0000000000
     10361      3425  TIP3      H1              0.3897052467       26.1941020133      -11.2543704597  SOLV      3414            0.0000000000
     10362      3425  TIP3      H2              0.6063732522       26.7833270545      -12.6401696736  SOLV      3414            0.0000000000
     10363      3426  TIP3      OH2            -0.3256357766       24.9684668258      -16.9907809510  SOLV      3415            0.0000000000
     10364      3426  TIP3      H1             -1.2256339890       24.6403206008      -16.7744760670  SOLV      3415            0.0000000000
     10365      3426  TIP3      H2             -0.1756503938       24.5135222710      -17.8532652746  SOLV      3415            0.0000000000
     10366      3427  TIP3      OH2             4.5619288033       25.8157772387      -19.6429416066  SOLV      3416            0.0000000000
     10367      3427  TIP3      H1              4.0062208392       26.4786874623      -20.1113947224  SOLV      3416            0.0000000000
     10368      3427  TIP3      H2              5.1098680627       25.4689791206      -20.3717296499  SOLV      3416            0.0000000000
     10369      3428  TIP3      OH2             6.4907506589       28.4412419768       -8.9002917498  SOLV      3417            0.0000000000
     10370      3428  TIP3      H1              6.2586628718       27.7501452633       -8.2398013466  SOLV      3417            0.0000000000
     10371      3428  TIP3      H2              7.3933983034       28.6678412391       -8.6037342196  SOLV      3417            0.0000000000
     10372      3429  TIP3      OH2             6.1587022247       26.0226727355      -17.2945670422  SOLV      3418            0.0000000000
     10373      3429  TIP3      H1              5.5253202150       26.2928108325      -17.9914802296  SOLV      3418            0.0000000000
     10374      3429  TIP3      H2              6.5299421187       25.2328046205      -17.7400956594  SOLV      3418            0.0000000000
     10375      3430  TIP3      OH2            -0.9045724210       26.2347048025      -10.0282603618  SOLV      3419            0.0000000000
     10376      3430  TIP3      H1             -0.6836139481       26.8916419182       -9.3511669632  SOLV      3419            0.0000000000
     10377      3430  TIP3      H2             -1.0686610525       25.4328577144       -9.4893034824  SOLV      3419            0.0000000000
     10378      3431  TIP3      OH2            -0.4425931090       21.1652509634      -22.8814189199  SOLV      3420            0.0000000000
     10379      3431  TIP3      H1             -0.5522614163       21.1553390174      -21.9092839091  SOLV      3420            0.0000000000
     10380      3431  TIP3      H2             -1.1932837502       21.7238809637      -23.1453310967  SOLV      3420            0.0000000000
     10381      3432  TIP3      OH2            -4.9896030703       21.6572523630      -14.2875491138  SOLV      3421            0.0000000000
     10382      3432  TIP3      H1             -4.2462054938       21.8870905465      -13.6906541988  SOLV      3421            0.0000000000
     10383      3432  TIP3      H2             -4.5711944523       21.1450203701      -14.9962412583  SOLV      3421            0.0000000000
     10384      3433  TIP3      OH2            -5.3494547869       21.3366715397      -18.9643429757  SOLV      3422            0.0000000000
     10385      3433  TIP3      H1             -4.9348091116       21.7068832561      -19.7758429008  SOLV      3422            0.0000000000
     10386      3433  TIP3      H2             -6.0060539620       22.0363898003      -18.7822237041  SOLV      3422            0.0000000000
     10387      3434  TIP3      OH2             6.1874437365       28.4962371477      -13.0789669872  SOLV      3423            0.0000000000
     10388      3434  TIP3      H1              6.5481902583       27.8043733375      -13.6838321476  SOLV      3423            0.0000000000
     10389      3434  TIP3      H2              5.9751997839       27.9355305320      -12.3026837811  SOLV      3423            0.0000000000
     10390      3435  TIP3      OH2             3.0663268753       23.1462603207      -16.3345292014  SOLV      3424            0.0000000000
     10391      3435  TIP3      H1              2.2782332377       23.1352198141      -15.7559658172  SOLV      3424            0.0000000000
     10392      3435  TIP3      H2              3.7908790906       23.0306303895      -15.6933549458  SOLV      3424            0.0000000000
     10393      3436  TIP3      OH2            -2.6606016957       23.7189769569      -16.3290329797  SOLV      3425            0.0000000000
     10394      3436  TIP3      H1             -3.5898007698       23.6119401175      -16.5839642215  SOLV      3425            0.0000000000
     10395      3436  TIP3      H2             -2.3037349403       22.8114434290      -16.4333723093  SOLV      3425            0.0000000000
     10396      3437  TIP3      OH2            -0.0362203103       23.7055791861      -19.3627880174  SOLV      3426            0.0000000000
     10397      3437  TIP3      H1              0.8990812069       23.8530590040      -19.6029088143  SOLV      3426            0.0000000000
     10398      3437  TIP3      H2             -0.5140303459       23.9101462638      -20.2003734600  SOLV      3426            0.0000000000
     10399      3438  TIP3      OH2             7.9114414003       23.9446511907      -14.2882275126  SOLV      3427            0.0000000000
     10400      3438  TIP3      H1              7.6038669646       24.0607235586      -13.3607433396  SOLV      3427            0.0000000000
     10401      3438  TIP3      H2              7.2361309954       23.3358910482      -14.6278236083  SOLV      3427            0.0000000000
     10402      3439  TIP3      OH2            -1.5977713767       23.9689621686      -21.5799548999  SOLV      3428            0.0000000000
     10403      3439  TIP3      H1             -2.2371402439       23.5534794638      -22.1841632866  SOLV      3428            0.0000000000
     10404      3439  TIP3      H2             -1.0080770092       24.4137281154      -22.2363170943  SOLV      3428            0.0000000000
     10405      3440  TIP3      OH2            -0.8362215431       31.3138334531       -7.9426390725  SOLV      3429            0.0000000000
     10406      3440  TIP3      H1             -0.0145568808       31.5587883022       -7.4379696836  SOLV      3429            0.0000000000
     10407      3440  TIP3      H2             -1.2725402488       30.7705202064       -7.2627211381  SOLV      3429            0.0000000000
     10408      3441  TIP3      OH2             3.7545169897       26.4724652520      -15.3508534437  SOLV      3430            0.0000000000
     10409      3441  TIP3      H1              4.5086027409       26.0815961932      -15.8147501083  SOLV      3430            0.0000000000
     10410      3441  TIP3      H2              3.7994933422       26.0319803981      -14.4776206582  SOLV      3430            0.0000000000
     10411      3442  TIP3      OH2            -1.0715586561       21.3310501905      -16.4820992720  SOLV      3431            0.0000000000
     10412      3442  TIP3      H1             -1.4057888798       20.5504713776      -15.9838033181  SOLV      3431            0.0000000000
     10413      3442  TIP3      H2             -0.6151393805       20.8990657969      -17.2160183053  SOLV      3431            0.0000000000
     10414      3443  TIP3      OH2             3.5792702444       25.5007990044      -12.5673142684  SOLV      3432            0.0000000000
     10415      3443  TIP3      H1              2.6710307464       25.7788986509      -12.3258369477  SOLV      3432            0.0000000000
     10416      3443  TIP3      H2              4.1438421912       26.0350183729      -11.9758605215  SOLV      3432            0.0000000000
     10417      3444  TIP3      OH2             9.5364180424       31.8682520215      -14.6922989405  SOLV      3433            0.0000000000
     10418      3444  TIP3      H1             10.1508221941       32.1527841361      -15.4134921190  SOLV      3433            0.0000000000
     10419      3444  TIP3      H2              8.9651028931       31.2585522391      -15.1956640970  SOLV      3433            0.0000000000
     10420      3445  TIP3      OH2             5.4107666703       22.5765946242      -23.1823799616  SOLV      3434            0.0000000000
     10421      3445  TIP3      H1              4.5241165210       22.2712354112      -22.8711633106  SOLV      3434            0.0000000000
     10422      3445  TIP3      H2              5.5519716248       23.4033764462      -22.6779151749  SOLV      3434            0.0000000000
     10423      3446  TIP3      OH2             6.2054140879       24.8123041213      -21.7680673390  SOLV      3435            0.0000000000
     10424      3446  TIP3      H1              7.1663048011       24.9205532738      -21.6224221947  SOLV      3435            0.0000000000
     10425      3446  TIP3      H2              5.9809286239       25.6313790706      -22.2643179446  SOLV      3435            0.0000000000
     10426      3447  TIP3      OH2            -2.5200886584       28.7732070768      -14.7767788229  SOLV      3436            0.0000000000
     10427      3447  TIP3      H1             -1.7952921622       28.7891430141      -15.4308691075  SOLV      3436            0.0000000000
     10428      3447  TIP3      H2             -2.0344108838       28.4505499006      -13.9905685637  SOLV      3436            0.0000000000
     10429      3448  TIP3      OH2            -3.2433961098       28.5234111677       -8.5223196858  SOLV      3437            0.0000000000
     10430      3448  TIP3      H1             -3.1372638372       28.3456229420       -7.5677632840  SOLV      3437            0.0000000000
     10431      3448  TIP3      H2             -3.9952191773       27.9329472883       -8.7222733787  SOLV      3437            0.0000000000
     10432      3449  TIP3      OH2             4.0463884154       29.5146471379       -8.3709111954  SOLV      3438            0.0000000000
     10433      3449  TIP3      H1              3.4499451996       28.9388441334       -8.8740768350  SOLV      3438            0.0000000000
     10434      3449  TIP3      H2              4.9268534387       29.2350036245       -8.7013312766  SOLV      3438            0.0000000000
     10435      3450  TIP3      OH2            10.4705812045       25.7523248458      -23.4565925450  SOLV      3439            0.0000000000
     10436      3450  TIP3      H1              9.8168574582       25.3308851569      -24.0603885215  SOLV      3439            0.0000000000
     10437      3450  TIP3      H2             10.4493331664       26.6524893691      -23.8654318170  SOLV      3439            0.0000000000
     10438      3451  TIP3      OH2             7.7001443674       30.3345301417      -16.2293665554  SOLV      3440            0.0000000000
     10439      3451  TIP3      H1              6.7715528298       30.1084757293      -16.0201211376  SOLV      3440            0.0000000000
     10440      3451  TIP3      H2              8.0049397851       29.4876478535      -16.6173022482  SOLV      3440            0.0000000000
     10441      3452  TIP3      OH2            -5.4418827295       25.5056098739      -21.4065153186  SOLV      3441            0.0000000000
     10442      3452  TIP3      H1             -5.0181641748       26.3693020122      -21.2114837169  SOLV      3441            0.0000000000
     10443      3452  TIP3      H2             -6.2053090528       25.5408206824      -20.7890255944  SOLV      3441            0.0000000000
     10444      3453  TIP3      OH2            -1.2424306555       23.7900240036       -8.5801404938  SOLV      3442            0.0000000000
     10445      3453  TIP3      H1             -2.2122841199       23.8311170705       -8.4642756201  SOLV      3442            0.0000000000
     10446      3453  TIP3      H2             -0.9779740741       23.2420311099       -7.8236925379  SOLV      3442            0.0000000000
     10447      3454  TIP3      OH2             6.9898891496       30.4037617082      -23.2526760190  SOLV      3443            0.0000000000
     10448      3454  TIP3      H1              6.8636582787       29.7676137801      -22.5173941646  SOLV      3443            0.0000000000
     10449      3454  TIP3      H2              7.9466688510       30.2952602989      -23.4414292133  SOLV      3443            0.0000000000
     10450      3455  TIP3      OH2            -4.4887582570       27.9709607366      -20.6190233450  SOLV      3444            0.0000000000
     10451      3455  TIP3      H1             -5.1918928685       28.6486713101      -20.6337608251  SOLV      3444            0.0000000000
     10452      3455  TIP3      H2             -3.7513549355       28.4161331279      -21.0982242941  SOLV      3444            0.0000000000
     10453      3456  TIP3      OH2             7.1666813623       24.4362012214      -11.6875054265  SOLV      3445            0.0000000000
     10454      3456  TIP3      H1              7.9764399577       24.8279919715      -11.3161761442  SOLV      3445            0.0000000000
     10455      3456  TIP3      H2              7.0635713144       23.6207733247      -11.1493367771  SOLV      3445            0.0000000000
     10456      3457  TIP3      OH2             6.0263014936       21.9207742214      -20.0060318511  SOLV      3446            0.0000000000
     10457      3457  TIP3      H1              5.8391212548       22.2447940823      -20.8991224107  SOLV      3446            0.0000000000
     10458      3457  TIP3      H2              6.4503037784       22.7095203972      -19.5993378349  SOLV      3446            0.0000000000
     10459      3458  TIP3      OH2             2.8103206743       23.7631747328      -19.0179996010  SOLV      3447            0.0000000000
     10460      3458  TIP3      H1              3.4367080179       24.4963426662      -19.1981379533  SOLV      3447            0.0000000000
     10461      3458  TIP3      H2              2.9043822198       23.6654846175      -18.0456553655  SOLV      3447            0.0000000000
     10462      3459  TIP3      OH2             5.5509218521       26.8680310477      -11.0011896695  SOLV      3448            0.0000000000
     10463      3459  TIP3      H1              5.8730855258       27.3677442670      -10.2193695764  SOLV      3448            0.0000000000
     10464      3459  TIP3      H2              6.0689647472       26.0443210614      -10.9367317145  SOLV      3448            0.0000000000
     10465      3460  TIP3      OH2             4.2797546174       20.9264278960      -18.0483048436  SOLV      3449            0.0000000000
     10466      3460  TIP3      H1              4.2260793333       21.6919499981      -17.4482054166  SOLV      3449            0.0000000000
     10467      3460  TIP3      H2              4.9104216790       21.2688082213      -18.7221401649  SOLV      3449            0.0000000000
     10468      3461  TIP3      OH2            -0.5992321583       21.0197465655      -20.1159007030  SOLV      3450            0.0000000000
     10469      3461  TIP3      H1             -0.6486644094       21.9300999449      -19.7680029838  SOLV      3450            0.0000000000
     10470      3461  TIP3      H2              0.3678179300       20.8690638636      -20.0391178570  SOLV      3450            0.0000000000
     10471      3462  TIP3      OH2            11.9001766133       25.8949110464      -11.1371364896  SOLV      3451            0.0000000000
     10472      3462  TIP3      H1             10.9178077122       25.8868735188      -11.0851093824  SOLV      3451            0.0000000000
     10473      3462  TIP3      H2             12.0307816115       25.4316534997      -11.9743624196  SOLV      3451            0.0000000000
     10474      3463  TIP3      OH2             8.4436787499       27.8272707964      -17.2723766396  SOLV      3452            0.0000000000
     10475      3463  TIP3      H1              7.7002480434       27.2123425634      -17.1411552457  SOLV      3452            0.0000000000
     10476      3463  TIP3      H2              9.1728041929       27.3758174537      -16.7919674035  SOLV      3452            0.0000000000
     10477      3464  TIP3      OH2            -5.0333073217       22.8016428342      -21.2309367852  SOLV      3453            0.0000000000
     10478      3464  TIP3      H1             -4.9759804478       23.7786741528      -21.2308337758  SOLV      3453            0.0000000000
     10479      3464  TIP3      H2             -5.8095608248       22.6400373845      -21.7709406553  SOLV      3453            0.0000000000
     10480      3465  TIP3      OH2            -1.0856015343       20.0981364946      -12.5518421845  SOLV      3454            0.0000000000
     10481      3465  TIP3      H1             -1.3991081859       19.7430429023      -13.4100410080  SOLV      3454            0.0000000000
     10482      3465  TIP3      H2             -1.1929306794       19.3228200274      -11.9616932031  SOLV      3454            0.0000000000
     10483      3466  TIP3      OH2            -3.1209306235       31.2599465398       -6.0519969219  SOLV      3455            0.0000000000
     10484      3466  TIP3      H1             -2.6381642781       30.4825851488       -5.7327659309  SOLV      3455            0.0000000000
     10485      3466  TIP3      H2             -3.8912175809       30.8579794265       -6.4612757560  SOLV      3455            0.0000000000
     10486      3467  TIP3      OH2            -3.2511221981       27.8795584204      -23.9742891090  SOLV      3456            0.0000000000
     10487      3467  TIP3      H1             -2.7263133420       27.9150559016      -23.1573518981  SOLV      3456            0.0000000000
     10488      3467  TIP3      H2             -2.5410245604       27.7403716477      -24.6510839695  SOLV      3456            0.0000000000
     10489      3468  TIP3      OH2             2.8906008660       31.9410992515       -8.3092253343  SOLV      3457            0.0000000000
     10490      3468  TIP3      H1              3.1155000080       32.2428939731       -9.1856496676  SOLV      3457            0.0000000000
     10491      3468  TIP3      H2              3.3737698533       31.0872139281       -8.2613026336  SOLV      3457            0.0000000000
     10492      3469  TIP3      OH2             8.1413903539       31.9557305170      -12.3043779414  SOLV      3458            0.0000000000
     10493      3469  TIP3      H1              8.6722925746       31.9498536762      -13.1259223065  SOLV      3458            0.0000000000
     10494      3469  TIP3      H2              7.9451877404       32.8992034231      -12.1940293519  SOLV      3458            0.0000000000
     10495      3470  TIP3      OH2            -1.3341926179       29.0490763103       -6.1379784597  SOLV      3459            0.0000000000
     10496      3470  TIP3      H1             -0.6491933656       28.3776772585       -6.2661599502  SOLV      3459            0.0000000000
     10497      3470  TIP3      H2             -1.1271129240       29.3480828169       -5.2243944112  SOLV      3459            0.0000000000
     10498      3471  TIP3      OH2             1.7681850803       27.9079667795       -9.5921183291  SOLV      3460            0.0000000000
     10499      3471  TIP3      H1              0.9274477599       28.4097947406       -9.5997138974  SOLV      3460            0.0000000000
     10500      3471  TIP3      H2              2.2445132974       28.3088817662      -10.3495909701  SOLV      3460            0.0000000000
     10501      3472  TIP3      OH2             0.0654839838       25.0113070346      -23.4151280831  SOLV      3461            0.0000000000
     10502      3472  TIP3      H1             -0.1850194151       25.1518080965      -24.3468293489  SOLV      3461            0.0000000000
     10503      3472  TIP3      H2              0.9705196772       25.3800675157      -23.4089224376  SOLV      3461            0.0000000000
     10504      3473  TIP3      OH2             7.0987139742       32.0452973468       -8.4688758250  SOLV      3462            0.0000000000
     10505      3473  TIP3      H1              8.0232610224       31.7807927120       -8.4301223372  SOLV      3462            0.0000000000
     10506      3473  TIP3      H2              6.7334765947       31.5558795622       -7.7159457145  SOLV      3462            0.0000000000
     10507      3474  TIP3      OH2             2.9685498491       25.8527870713       -8.2832504145  SOLV      3463            0.0000000000
     10508      3474  TIP3      H1              2.9807581673       25.0665447588       -8.8644569895  SOLV      3463            0.0000000000
     10509      3474  TIP3      H2              2.5268645025       26.5191387259       -8.8567545034  SOLV      3463            0.0000000000
     10510      3475  TIP3      OH2             2.9841974498       23.7613445774      -10.2369062445  SOLV      3464            0.0000000000
     10511      3475  TIP3      H1              3.2610953506       24.1166001875      -11.0994572539  SOLV      3464            0.0000000000
     10512      3475  TIP3      H2              2.0502393491       23.5147069428      -10.4098040778  SOLV      3464            0.0000000000
     10513      3476  TIP3      OH2             3.2921784953       29.0789825663      -11.4755785601  SOLV      3465            0.0000000000
     10514      3476  TIP3      H1              4.1678254627       28.9117207004      -11.8309328762  SOLV      3465            0.0000000000
     10515      3476  TIP3      H2              2.8092387021       29.4602605667      -12.2342552985  SOLV      3465            0.0000000000
     10516      3477  TIP3      OH2             9.0618358463       28.7411039619       -7.7185407563  SOLV      3466            0.0000000000
     10517      3477  TIP3      H1              9.4928710209       27.8993023823       -7.5053455575  SOLV      3466            0.0000000000
     10518      3477  TIP3      H2              9.7848057791       29.2324639840       -8.1359375012  SOLV      3466            0.0000000000
     10519      3478  TIP3      OH2             9.6325919126       31.1798990479      -10.1696286146  SOLV      3467            0.0000000000
     10520      3478  TIP3      H1              8.9674888340       31.5501373453      -10.7881817376  SOLV      3467            0.0000000000
     10521      3478  TIP3      H2             10.4634867531       31.3926800976      -10.6548306035  SOLV      3467            0.0000000000
     10522      3479  TIP3      OH2             1.6886268457       26.9381391860       -5.9971900269  SOLV      3468            0.0000000000
     10523      3479  TIP3      H1              1.0553710075       26.2130026934       -5.8115723299  SOLV      3468            0.0000000000
     10524      3479  TIP3      H2              2.0662544235       26.6522006222       -6.8516091997  SOLV      3468            0.0000000000
     10525      3480  TIP3      OH2             4.2919615328       21.3601063427       -9.5152950744  SOLV      3469            0.0000000000
     10526      3480  TIP3      H1              3.7984988692       22.1748090514       -9.7434109948  SOLV      3469            0.0000000000
     10527      3480  TIP3      H2              3.6008439219       20.6739330346       -9.6194655479  SOLV      3469            0.0000000000
     10528      3481  TIP3      OH2             5.5696018851       26.3750750198       -7.3830193629  SOLV      3470            0.0000000000
     10529      3481  TIP3      H1              5.4398786990       26.2441875872       -6.4253076947  SOLV      3470            0.0000000000
     10530      3481  TIP3      H2              4.6695774144       26.1415254414       -7.6956387362  SOLV      3470            0.0000000000
     10531      3482  TIP3      OH2             7.9454576595       25.8308627777       -8.8342674190  SOLV      3471            0.0000000000
     10532      3482  TIP3      H1              7.1981192842       25.8539395363       -8.2058248110  SOLV      3471            0.0000000000
     10533      3482  TIP3      H2              8.6919086902       25.5576165917       -8.2613820477  SOLV      3471            0.0000000000
     10534      3483  TIP3      OH2            10.2530609244       25.3250090516       -7.3460148413  SOLV      3472            0.0000000000
     10535      3483  TIP3      H1             10.3897905296       24.3650119750       -7.1931844702  SOLV      3472            0.0000000000
     10536      3483  TIP3      H2             10.1964378234       25.6777693094       -6.4327566545  SOLV      3472            0.0000000000
     10537      3484  TIP3      OH2             0.1400557664       24.7150428868       -5.4129535004  SOLV      3473            0.0000000000
     10538      3484  TIP3      H1              0.1687359396       23.7953632411       -5.7394176900  SOLV      3473            0.0000000000
     10539      3484  TIP3      H2              0.5202206332       24.5961840403       -4.5152949379  SOLV      3473            0.0000000000
     10540      3485  TIP3      OH2             5.2123070863       21.4611178012       -6.9278397340  SOLV      3474            0.0000000000
     10541      3485  TIP3      H1              5.8842960172       20.7522016697       -6.9862676956  SOLV      3474            0.0000000000
     10542      3485  TIP3      H2              4.8235825633       21.4084554728       -7.8237945867  SOLV      3474            0.0000000000
     10543      3486  TIP3      OH2             5.8882944839       23.6022098556       -5.3676029864  SOLV      3475            0.0000000000
     10544      3486  TIP3      H1              5.6719782361       22.8796417084       -5.9988360738  SOLV      3475            0.0000000000
     10545      3486  TIP3      H2              5.0977088212       24.1769986241       -5.4363887963  SOLV      3475            0.0000000000
     10546      3487  TIP3      OH2             9.6926112988       30.4554987572      -23.5731971666  SOLV      3476            0.0000000000
     10547      3487  TIP3      H1             10.3278966094       31.0971111716      -23.9435465551  SOLV      3476            0.0000000000
     10548      3487  TIP3      H2             10.1614530448       30.1433356427      -22.7658560982  SOLV      3476            0.0000000000
     10549      3488  TIP3      OH2            10.8651290811       29.1612581276      -21.4620460194  SOLV      3477            0.0000000000
     10550      3488  TIP3      H1             10.2672322946       28.7262625022      -20.8180288109  SOLV      3477            0.0000000000
     10551      3488  TIP3      H2             11.6477784827       29.3943695077      -20.9186957422  SOLV      3477            0.0000000000
     10552      3489  TIP3      OH2            10.1964344476       28.0596107082      -24.8287629142  SOLV      3478            0.0000000000
     10553      3489  TIP3      H1              9.8630564787       28.2884922149      -25.6988768897  SOLV      3478            0.0000000000
     10554      3489  TIP3      H2             10.0618772803       28.9011774352      -24.3469302508  SOLV      3478            0.0000000000
     10555      3490  TIP3      OH2             8.8110971684       24.8701100417      -25.4716869743  SOLV      3479            0.0000000000
     10556      3490  TIP3      H1              9.1915757174       25.0091012576      -26.3452945105  SOLV      3479            0.0000000000
     10557      3490  TIP3      H2              8.5754487017       23.9194078347      -25.5211317488  SOLV      3479            0.0000000000
     10558      3491  TIP3      OH2             9.0398159426       27.6803406934      -19.9539974413  SOLV      3480            0.0000000000
     10559      3491  TIP3      H1              9.1394425403       26.7176482336      -20.0308078317  SOLV      3480            0.0000000000
     10560      3491  TIP3      H2              8.9051244939       27.8018194606      -18.9889003213  SOLV      3480            0.0000000000
     10561      3492  TIP3      OH2            -4.6498246899       27.6973642094      -12.1848940721  SOLV      3481            0.0000000000
     10562      3492  TIP3      H1             -4.7436368338       27.8763411581      -13.1257356018  SOLV      3481            0.0000000000
     10563      3492  TIP3      H2             -3.6924623306       27.9047586533      -12.0620084951  SOLV      3481            0.0000000000
     10564      3493  TIP3      OH2            11.8802996342       31.8406784970      -11.5196187042  SOLV      3482            0.0000000000
     10565      3493  TIP3      H1             12.7120594820       31.3285646663      -11.6263250647  SOLV      3482            0.0000000000
     10566      3493  TIP3      H2             11.8884129693       32.3688536982      -12.3292346945  SOLV      3482            0.0000000000
     10567      3494  TIP3      OH2            13.8436150401       30.0009132516      -10.8176308085  SOLV      3483            0.0000000000
     10568      3494  TIP3      H1             13.0087323302       29.5060466023      -10.6744910395  SOLV      3483            0.0000000000
     10569      3494  TIP3      H2             14.4834022991       29.2601714536      -10.8546238765  SOLV      3483            0.0000000000
     10570      3495  TIP3      OH2             8.3698778430       22.1773536452      -25.6880329163  SOLV      3484            0.0000000000
     10571      3495  TIP3      H1              9.1612486930       21.9447568955      -25.1532693247  SOLV      3484            0.0000000000
     10572      3495  TIP3      H2              7.6893181826       21.5785321717      -25.3342576078  SOLV      3484            0.0000000000
     10573      3496  TIP3      OH2             8.9922462155       24.8540916000      -21.0598176974  SOLV      3485            0.0000000000
     10574      3496  TIP3      H1              9.4253632997       23.9788740506      -20.9151876670  SOLV      3485            0.0000000000
     10575      3496  TIP3      H2              9.5552429787       25.1989743450      -21.7793041135  SOLV      3485            0.0000000000
     10576      3497  TIP3      OH2            10.6146755613       26.5793459237      -16.0862505371  SOLV      3486            0.0000000000
     10577      3497  TIP3      H1             11.4474463153       26.9025170500      -16.5053432268  SOLV      3486            0.0000000000
     10578      3497  TIP3      H2             10.7541511550       26.9582567386      -15.1976268738  SOLV      3486            0.0000000000
     10579      3498  TIP3      OH2            11.2667583489       28.1529471200      -13.8245662234  SOLV      3487            0.0000000000
     10580      3498  TIP3      H1             10.5058585068       28.4036996797      -13.2655040600  SOLV      3487            0.0000000000
     10581      3498  TIP3      H2             11.4761645508       28.9886812811      -14.2661248664  SOLV      3487            0.0000000000
     10582      3499  TIP3      OH2            -2.5189095496       25.2868148586       -5.6908727415  SOLV      3488            0.0000000000
     10583      3499  TIP3      H1             -1.5412474724       25.2124665269       -5.6485051851  SOLV      3488            0.0000000000
     10584      3499  TIP3      H2             -2.7716881534       24.4058050671       -5.3513128546  SOLV      3488            0.0000000000
     10585      3500  TIP3      OH2            15.8181610754       23.9763490966       -8.2159115733  SOLV      3489            0.0000000000
     10586      3500  TIP3      H1             16.4168978941       23.3169249259       -8.6265077480  SOLV      3489            0.0000000000
     10587      3500  TIP3      H2             15.5115243833       24.4830608833       -8.9978259832  SOLV      3489            0.0000000000
     10588      3501  TIP3      OH2            10.0713859742       22.3546447225      -20.6509370981  SOLV      3490            0.0000000000
     10589      3501  TIP3      H1             10.5508424344       22.1818783079      -19.8127743673  SOLV      3490            0.0000000000
     10590      3501  TIP3      H2              9.4612407486       21.5895281782      -20.6700775915  SOLV      3490            0.0000000000
     10591      3502  TIP3      OH2            -2.9411522822       22.1736365141      -12.5017072181  SOLV      3491            0.0000000000
     10592      3502  TIP3      H1             -2.3133913800       21.4336196399      -12.3784402192  SOLV      3491            0.0000000000
     10593      3502  TIP3      H2             -2.3295784429       22.9292714043      -12.5391741170  SOLV      3491            0.0000000000
     10594      3503  TIP3      OH2            -4.9273643601       24.9260014491      -11.7493650142  SOLV      3492            0.0000000000
     10595      3503  TIP3      H1             -4.4233799049       24.8124057107      -12.5777724084  SOLV      3492            0.0000000000
     10596      3503  TIP3      H2             -4.8179456921       25.8852977423      -11.6336231281  SOLV      3492            0.0000000000
     10597      3504  TIP3      OH2            14.4642594710       25.2731342267      -10.1901507375  SOLV      3493            0.0000000000
     10598      3504  TIP3      H1             13.5987138020       25.6911489633      -10.0104454513  SOLV      3493            0.0000000000
     10599      3504  TIP3      H2             14.1727481502       24.5247053076      -10.7460657786  SOLV      3493            0.0000000000
     10600      3505  TIP3      OH2            10.7582477381       21.6559282113      -24.3469133837  SOLV      3494            0.0000000000
     10601      3505  TIP3      H1             11.1239660534       20.9778127641      -24.9561073508  SOLV      3494            0.0000000000
     10602      3505  TIP3      H2             11.4307468836       22.3625186421      -24.4036622843  SOLV      3494            0.0000000000
     10603      3506  TIP3      OH2            -5.0608481698       19.9519335161      -16.6623485871  SOLV      3495            0.0000000000
     10604      3506  TIP3      H1             -5.9925988981       19.8654192430      -16.3934244648  SOLV      3495            0.0000000000
     10605      3506  TIP3      H2             -5.1333894766       20.5151118162      -17.4607248921  SOLV      3495            0.0000000000
     10606      3507  TIP3      OH2            -2.8694329391       20.7687378689       -8.5637713859  SOLV      3496            0.0000000000
     10607      3507  TIP3      H1             -3.3840143564       20.7029326421       -7.7429894578  SOLV      3496            0.0000000000
     10608      3507  TIP3      H2             -3.5357923264       21.1535642957       -9.1669519441  SOLV      3496            0.0000000000
     10609      3508  TIP3      OH2            13.4985137235       22.8955635067      -11.3590971204  SOLV      3497            0.0000000000
     10610      3508  TIP3      H1             12.5943504311       22.7464135691      -11.6854978272  SOLV      3497            0.0000000000
     10611      3508  TIP3      H2             13.8774196252       21.9894059592      -11.4460834775  SOLV      3497            0.0000000000
     10612      3509  TIP3      OH2             5.4845162648       22.0607996064      -15.1847968504  SOLV      3498            0.0000000000
     10613      3509  TIP3      H1              5.1170968475       21.3377115892      -14.6435720327  SOLV      3498            0.0000000000
     10614      3509  TIP3      H2              6.2543268861       21.6369437787      -15.6094937929  SOLV      3498            0.0000000000
     10615      3510  TIP3      OH2            10.7097652092       20.9121425430      -16.1339815180  SOLV      3499            0.0000000000
     10616      3510  TIP3      H1             11.0842347833       21.4196740388      -16.8881994020  SOLV      3499            0.0000000000
     10617      3510  TIP3      H2              9.7651591531       21.1417982522      -16.1844118606  SOLV      3499            0.0000000000
     10618      3511  TIP3      OH2            11.6979284107       21.8693681478      -18.4865142999  SOLV      3500            0.0000000000
     10619      3511  TIP3      H1             12.4437653269       21.3396814764      -18.8414525258  SOLV      3500            0.0000000000
     10620      3511  TIP3      H2             12.0575305055       22.7775569252      -18.6244549823  SOLV      3500            0.0000000000
     10621      3512  TIP3      OH2            -1.9814513309       19.1557110634      -15.0207864345  SOLV      3501            0.0000000000
     10622      3512  TIP3      H1             -2.8965383666       18.8040387754      -14.9772362032  SOLV      3501            0.0000000000
     10623      3512  TIP3      H2             -1.4790764914       18.3116575820      -15.0543982220  SOLV      3501            0.0000000000
     10624      3513  TIP3      OH2            -4.0564352934       17.9098749943      -18.4987320238  SOLV      3502            0.0000000000
     10625      3513  TIP3      H1             -3.7804785325       18.4808629939      -19.2376409006  SOLV      3502            0.0000000000
     10626      3513  TIP3      H2             -4.3438890378       18.5619448518      -17.8319852009  SOLV      3502            0.0000000000
     10627      3514  TIP3      OH2             2.4994690571       19.5070583743      -16.1808916390  SOLV      3503            0.0000000000
     10628      3514  TIP3      H1              3.0609444637       19.9809785521      -16.8129894809  SOLV      3503            0.0000000000
     10629      3514  TIP3      H2              2.8271879702       19.8366862442      -15.3316079358  SOLV      3503            0.0000000000
     10630      3515  TIP3      OH2             7.8586627327       20.9764821365      -16.3505391744  SOLV      3504            0.0000000000
     10631      3515  TIP3      H1              7.9517168972       20.5516374098      -17.2094462301  SOLV      3504            0.0000000000
     10632      3515  TIP3      H2              7.7785711163       20.1888871679      -15.7568986964  SOLV      3504            0.0000000000
     10633      3516  TIP3      OH2             8.2295079526       20.2472867217      -20.7240215644  SOLV      3505            0.0000000000
     10634      3516  TIP3      H1              7.3940073882       20.6951695728      -20.4934615972  SOLV      3505            0.0000000000
     10635      3516  TIP3      H2              8.0967629017       19.3786224516      -20.2849498288  SOLV      3505            0.0000000000
     10636      3517  TIP3      OH2            -2.8931906240       19.4830511136      -20.8857931500  SOLV      3506            0.0000000000
     10637      3517  TIP3      H1             -2.4213025891       18.8491310773      -21.4600961583  SOLV      3506            0.0000000000
     10638      3517  TIP3      H2             -2.1519840384       20.0179472747      -20.5354219852  SOLV      3506            0.0000000000
     10639      3518  TIP3      OH2             2.1560974662       21.2635112404      -19.8799514175  SOLV      3507            0.0000000000
     10640      3518  TIP3      H1              2.7626256795       20.8124270720      -19.2680608948  SOLV      3507            0.0000000000
     10641      3518  TIP3      H2              2.3528353915       22.1970913350      -19.6430834779  SOLV      3507            0.0000000000
     10642      3519  TIP3      OH2             0.0953020788       21.9782060511       -6.0824833296  SOLV      3508            0.0000000000
     10643      3519  TIP3      H1             -0.2439276033       21.2646518401       -5.5114144600  SOLV      3508            0.0000000000
     10644      3519  TIP3      H2              1.0397710095       21.9811292485       -5.8132781906  SOLV      3508            0.0000000000
     10645      3520  TIP3      OH2             2.6028841203       21.9600934488       -4.9098435082  SOLV      3509            0.0000000000
     10646      3520  TIP3      H1              3.4605063542       21.7039064617       -5.2900981219  SOLV      3509            0.0000000000
     10647      3520  TIP3      H2              2.4755535586       21.2597214285       -4.2359639832  SOLV      3509            0.0000000000
     10648      3521  TIP3      OH2            10.8727885138       22.6247361036       -7.0398982383  SOLV      3510            0.0000000000
     10649      3521  TIP3      H1             11.0510072687       22.3137296687       -6.1249394363  SOLV      3510            0.0000000000
     10650      3521  TIP3      H2             11.7659552599       22.5670880892       -7.4398419262  SOLV      3510            0.0000000000
     10651      3522  TIP3      OH2            16.8378019680       30.8841666066      -17.0953833296  SOLV      3511            0.0000000000
     10652      3522  TIP3      H1             15.9532952306       30.6761055691      -16.7360287977  SOLV      3511            0.0000000000
     10653      3522  TIP3      H2             16.6106393302       31.6116482628      -17.6813854184  SOLV      3511            0.0000000000
     10654      3523  TIP3      OH2            12.6351986626       26.7852928557      -22.0089422915  SOLV      3512            0.0000000000
     10655      3523  TIP3      H1             12.3285190148       27.6799134674      -21.7910637475  SOLV      3512            0.0000000000
     10656      3523  TIP3      H2             11.8295129948       26.3959851605      -22.3842420678  SOLV      3512            0.0000000000
     10657      3524  TIP3      OH2            13.3684133194       29.7604445600      -20.5202877320  SOLV      3513            0.0000000000
     10658      3524  TIP3      H1             13.7287372382       29.1691166976      -19.8274953734  SOLV      3513            0.0000000000
     10659      3524  TIP3      H2             14.1966531948       30.1108281559      -20.8925240826  SOLV      3513            0.0000000000
     10660      3525  TIP3      OH2            18.2733411221       25.7518424115      -20.1500111085  SOLV      3514            0.0000000000
     10661      3525  TIP3      H1             18.0976112337       26.3633364848      -20.8932287491  SOLV      3514            0.0000000000
     10662      3525  TIP3      H2             17.9054815212       24.9283117102      -20.5310119995  SOLV      3514            0.0000000000
     10663      3526  TIP3      OH2            14.6333244232       27.7324306738      -19.0314200445  SOLV      3515            0.0000000000
     10664      3526  TIP3      H1             15.4607957720       27.5574027744      -18.5498291767  SOLV      3515            0.0000000000
     10665      3526  TIP3      H2             14.7677026984       27.1690578026      -19.8204780151  SOLV      3515            0.0000000000
     10666      3527  TIP3      OH2            18.3241870174       25.5270655810      -15.7732492405  SOLV      3516            0.0000000000
     10667      3527  TIP3      H1             17.7374913309       25.9012057833      -16.4605778025  SOLV      3516            0.0000000000
     10668      3527  TIP3      H2             17.7662711887       25.6641538646      -14.9761359896  SOLV      3516            0.0000000000
     10669      3528  TIP3      OH2            17.0157702019       26.6755983921      -17.9265862641  SOLV      3517            0.0000000000
     10670      3528  TIP3      H1             17.5686977393       27.4679401315      -17.7478518857  SOLV      3517            0.0000000000
     10671      3528  TIP3      H2             17.4811297103       26.3087985883      -18.7164478999  SOLV      3517            0.0000000000
     10672      3529  TIP3      OH2            21.5621843849       22.5668024438      -18.8050832687  SOLV      3518            0.0000000000
     10673      3529  TIP3      H1             21.6668013716       21.6781000504      -18.4132974747  SOLV      3518            0.0000000000
     10674      3529  TIP3      H2             20.8703934978       22.9406028236      -18.2172512713  SOLV      3518            0.0000000000
     10675      3530  TIP3      OH2            19.4331794870       23.5096168066      -17.3078363608  SOLV      3519            0.0000000000
     10676      3530  TIP3      H1             18.5784750984       23.1769211129      -17.6546987582  SOLV      3519            0.0000000000
     10677      3530  TIP3      H2             19.1021816996       24.2682842011      -16.7877066632  SOLV      3519            0.0000000000
     10678      3531  TIP3      OH2            18.6080496243       28.7939953466      -17.1887003058  SOLV      3520            0.0000000000
     10679      3531  TIP3      H1             18.2446452051       28.7668178239      -16.2722585604  SOLV      3520            0.0000000000
     10680      3531  TIP3      H2             18.1519292253       29.6144328774      -17.4868920725  SOLV      3520            0.0000000000
     10681      3532  TIP3      OH2            17.4001787536       27.3122636171      -22.2385984620  SOLV      3521            0.0000000000
     10682      3532  TIP3      H1             16.5672746854       26.9718351880      -21.8345311395  SOLV      3521            0.0000000000
     10683      3532  TIP3      H2             17.0415404377       27.6922037729      -23.0588427481  SOLV      3521            0.0000000000
     10684      3533  TIP3      OH2            17.5842008752       28.6677719110      -14.6810324576  SOLV      3522            0.0000000000
     10685      3533  TIP3      H1             16.9130321250       29.3096644066      -14.4331956895  SOLV      3522            0.0000000000
     10686      3533  TIP3      H2             17.2542837054       27.8486627510      -14.2543472028  SOLV      3522            0.0000000000
     10687      3534  TIP3      OH2            12.9495259407       24.1028134582      -19.2973033608  SOLV      3523            0.0000000000
     10688      3534  TIP3      H1             13.6641249591       24.4577831929      -18.7282208763  SOLV      3523            0.0000000000
     10689      3534  TIP3      H2             13.4097641051       23.8666388458      -20.1109083700  SOLV      3523            0.0000000000
     10690      3535  TIP3      OH2            12.5293305219       23.9253216223      -24.2022928183  SOLV      3524            0.0000000000
     10691      3535  TIP3      H1             13.1655931068       24.2864375518      -24.8289912578  SOLV      3524            0.0000000000
     10692      3535  TIP3      H2             11.9502486166       24.6900718173      -24.0147316332  SOLV      3524            0.0000000000
     10693      3536  TIP3      OH2            15.1498224860       26.1373926473      -21.2409452954  SOLV      3525            0.0000000000
     10694      3536  TIP3      H1             14.2265998743       26.2764635977      -21.5641046932  SOLV      3525            0.0000000000
     10695      3536  TIP3      H2             15.3367599794       25.2198554945      -21.4955363032  SOLV      3525            0.0000000000
     10696      3537  TIP3      OH2            17.0018292804       23.7791599953      -21.6771635878  SOLV      3526            0.0000000000
     10697      3537  TIP3      H1             16.6798007463       23.0332310569      -21.1225948900  SOLV      3526            0.0000000000
     10698      3537  TIP3      H2             17.2401460644       23.3231012113      -22.4903982656  SOLV      3526            0.0000000000
     10699      3538  TIP3      OH2            14.1612889437       31.9433158105      -13.3001742232  SOLV      3527            0.0000000000
     10700      3538  TIP3      H1             14.7253225742       31.2649582969      -12.8801327362  SOLV      3527            0.0000000000
     10701      3538  TIP3      H2             14.0454172425       31.5910827438      -14.1944603630  SOLV      3527            0.0000000000
     10702      3539  TIP3      OH2            16.7109498440       26.2228882015      -13.6195293840  SOLV      3528            0.0000000000
     10703      3539  TIP3      H1             15.7382859919       26.2537963035      -13.5457513250  SOLV      3528            0.0000000000
     10704      3539  TIP3      H2             16.9507033761       25.6486652187      -12.8729897355  SOLV      3528            0.0000000000
     10705      3540  TIP3      OH2            17.3408944912       23.4121676551      -25.0329986082  SOLV      3529            0.0000000000
     10706      3540  TIP3      H1             17.3708955507       24.3760242407      -25.0483207928  SOLV      3529            0.0000000000
     10707      3540  TIP3      H2             18.2216510626       23.1757138196      -25.3479454422  SOLV      3529            0.0000000000
     10708      3541  TIP3      OH2            16.8386056999       22.6628315841      -17.6814556675  SOLV      3530            0.0000000000
     10709      3541  TIP3      H1             16.5427652567       22.3125335438      -18.5482759166  SOLV      3530            0.0000000000
     10710      3541  TIP3      H2             16.7377315010       21.8805305890      -17.1007497405  SOLV      3530            0.0000000000
     10711      3542  TIP3      OH2            14.7941812161       33.8052393908      -11.3399959522  SOLV      3531            0.0000000000
     10712      3542  TIP3      H1             15.6725779000       33.4167881121      -11.2522418506  SOLV      3531            0.0000000000
     10713      3542  TIP3      H2             14.4229660130       33.2042272578      -12.0096680628  SOLV      3531            0.0000000000
     10714      3543  TIP3      OH2            16.8338889580       31.6812045570      -11.4097581609  SOLV      3532            0.0000000000
     10715      3543  TIP3      H1             17.3831195307       30.8867904815      -11.3802619700  SOLV      3532            0.0000000000
     10716      3543  TIP3      H2             16.7864552400       31.9190919250      -10.4614897507  SOLV      3532            0.0000000000
     10717      3544  TIP3      OH2            20.5058779814       28.4303286456      -13.3776090943  SOLV      3533            0.0000000000
     10718      3544  TIP3      H1             20.8102818966       27.5153647607      -13.4959820758  SOLV      3533            0.0000000000
     10719      3544  TIP3      H2             20.1899995495       28.6412757545      -14.2646014884  SOLV      3533            0.0000000000
     10720      3545  TIP3      OH2            20.9061543234       26.2910278243      -15.4913967169  SOLV      3534            0.0000000000
     10721      3545  TIP3      H1             21.1628617598       26.0316769699      -16.3794615038  SOLV      3534            0.0000000000
     10722      3545  TIP3      H2             19.9542978266       26.0205414488      -15.4731070399  SOLV      3534            0.0000000000
     10723      3546  TIP3      OH2            19.3777417132       29.5329456295      -11.1526953855  SOLV      3535            0.0000000000
     10724      3546  TIP3      H1             18.8189149636       28.7818674879      -10.8578099915  SOLV      3535            0.0000000000
     10725      3546  TIP3      H2             19.7425703681       29.1577363461      -11.9872695526  SOLV      3535            0.0000000000
     10726      3547  TIP3      OH2            22.1288270690       23.8219211927      -14.5759847707  SOLV      3536            0.0000000000
     10727      3547  TIP3      H1             21.7070205562       24.6295403933      -14.9035569929  SOLV      3536            0.0000000000
     10728      3547  TIP3      H2             21.4604039957       23.1309559638      -14.7556018593  SOLV      3536            0.0000000000
     10729      3548  TIP3      OH2            18.0353598734       27.2226857076      -10.4716436381  SOLV      3537            0.0000000000
     10730      3548  TIP3      H1             18.1045176575       26.3247019635      -10.8486281157  SOLV      3537            0.0000000000
     10731      3548  TIP3      H2             18.4259659651       27.0751449823       -9.5855685450  SOLV      3537            0.0000000000
     10732      3549  TIP3      OH2            23.3151215326       24.1344732164      -12.2034895734  SOLV      3538            0.0000000000
     10733      3549  TIP3      H1             23.8688464057       23.3297019902      -12.1314135269  SOLV      3538            0.0000000000
     10734      3549  TIP3      H2             22.8258300955       23.9278331200      -13.0330087501  SOLV      3538            0.0000000000
     10735      3550  TIP3      OH2            23.4165807216       25.9712602328      -10.2033811521  SOLV      3539            0.0000000000
     10736      3550  TIP3      H1             23.4321715394       25.3691155021      -10.9764299789  SOLV      3539            0.0000000000
     10737      3550  TIP3      H2             22.6698256884       26.5674560774      -10.4178273245  SOLV      3539            0.0000000000
     10738      3551  TIP3      OH2            15.3930060023       27.7642831539      -10.9230173174  SOLV      3540            0.0000000000
     10739      3551  TIP3      H1             16.3693901077       27.7193098374      -10.8325730798  SOLV      3540            0.0000000000
     10740      3551  TIP3      H2             15.1528476044       26.8909608930      -10.5506890682  SOLV      3540            0.0000000000
     10741      3552  TIP3      OH2            14.9821455095       24.7489295386      -17.5257490600  SOLV      3541            0.0000000000
     10742      3552  TIP3      H1             15.6208642963       24.0095390606      -17.4747501988  SOLV      3541            0.0000000000
     10743      3552  TIP3      H2             15.5868150846       25.5079291142      -17.6108388544  SOLV      3541            0.0000000000
     10744      3553  TIP3      OH2            12.9567525224       27.7898943210      -16.8092887018  SOLV      3542            0.0000000000
     10745      3553  TIP3      H1             13.4992646717       27.6900130367      -17.6161297787  SOLV      3542            0.0000000000
     10746      3553  TIP3      H2             13.1825415973       28.7129705559      -16.5703241570  SOLV      3542            0.0000000000
     10747      3554  TIP3      OH2            12.8827387751       22.5103612835      -21.9055392010  SOLV      3543            0.0000000000
     10748      3554  TIP3      H1             11.9817107770       22.4682597879      -21.5443990405  SOLV      3543            0.0000000000
     10749      3554  TIP3      H2             12.7646085595       23.1044503396      -22.6736386489  SOLV      3543            0.0000000000
     10750      3555  TIP3      OH2            15.0867871382       23.3610820203      -13.6797762964  SOLV      3544            0.0000000000
     10751      3555  TIP3      H1             14.5589251985       23.2796119671      -12.8689557502  SOLV      3544            0.0000000000
     10752      3555  TIP3      H2             14.4221551546       23.7230730155      -14.2978337686  SOLV      3544            0.0000000000
     10753      3556  TIP3      OH2            15.9769514416       21.7074144121      -20.1458845753  SOLV      3545            0.0000000000
     10754      3556  TIP3      H1             15.0577284342       21.3684534609      -20.1073258363  SOLV      3545            0.0000000000
     10755      3556  TIP3      H2             16.4734781045       20.8608084677      -20.1809717630  SOLV      3545            0.0000000000
     10756      3557  TIP3      OH2            13.9509583877       20.4727278687      -23.5810219177  SOLV      3546            0.0000000000
     10757      3557  TIP3      H1             14.1365367612       21.0457656705      -24.3442966371  SOLV      3546            0.0000000000
     10758      3557  TIP3      H2             13.6113590069       21.1173239614      -22.9264287424  SOLV      3546            0.0000000000
     10759      3558  TIP3      OH2            20.1998485427       22.1598700679      -21.2212340558  SOLV      3547            0.0000000000
     10760      3558  TIP3      H1             20.9237699060       22.1531653200      -21.8576907876  SOLV      3547            0.0000000000
     10761      3558  TIP3      H2             20.6507656815       22.3588537494      -20.3768398911  SOLV      3547            0.0000000000
     10762      3559  TIP3      OH2            15.1151723749       21.9978976318      -25.9600915638  SOLV      3548            0.0000000000
     10763      3559  TIP3      H1             15.5638266670       21.2483576200      -26.3735087804  SOLV      3548            0.0000000000
     10764      3559  TIP3      H2             15.8693251152       22.5119517119      -25.6006241570  SOLV      3548            0.0000000000
     10765      3560  TIP3      OH2            18.0201104340       24.5106683870      -11.2479404024  SOLV      3549            0.0000000000
     10766      3560  TIP3      H1             17.6885331247       23.8051883005      -10.6625090122  SOLV      3549            0.0000000000
     10767      3560  TIP3      H2             18.9658434056       24.5202064096      -10.9757584433  SOLV      3549            0.0000000000
     10768      3561  TIP3      OH2            20.4824356738       24.4801461068      -10.0401592310  SOLV      3550            0.0000000000
     10769      3561  TIP3      H1             21.3935117503       24.3126525874      -10.3288243943  SOLV      3550            0.0000000000
     10770      3561  TIP3      H2             20.3714560547       23.7823204289       -9.3593171855  SOLV      3550            0.0000000000
     10771      3562  TIP3      OH2           -15.6784163959      -25.7549428522       19.6679395175  SOLV      3551            0.0000000000
     10772      3562  TIP3      H1            -16.0200423877      -24.8871004700       19.3592265762  SOLV      3551            0.0000000000
     10773      3562  TIP3      H2            -16.3716923082      -26.3357301493       19.3095483106  SOLV      3551            0.0000000000
     10774      3563  TIP3      OH2           -15.4975077491      -25.8036394682       23.3611380181  SOLV      3552            0.0000000000
     10775      3563  TIP3      H1            -15.4338487553      -26.5062061336       24.0253246775  SOLV      3552            0.0000000000
     10776      3563  TIP3      H2            -15.7619682877      -26.3009879932       22.5738115886  SOLV      3552            0.0000000000
     10777      3564  TIP3      OH2           -13.1761275920      -22.8247154704       20.2688948166  SOLV      3553            0.0000000000
     10778      3564  TIP3      H1            -13.3322814927      -23.5174144003       20.9263335977  SOLV      3553            0.0000000000
     10779      3564  TIP3      H2            -12.8636699379      -22.0858334814       20.8132639538  SOLV      3553            0.0000000000
     10780      3565  TIP3      OH2           -16.6528869483      -18.2038349864       20.4495038807  SOLV      3554            0.0000000000
     10781      3565  TIP3      H1            -16.2450532551      -18.8894218983       19.8752263301  SOLV      3554            0.0000000000
     10782      3565  TIP3      H2            -16.8210711088      -18.7048804566       21.2499816742  SOLV      3554            0.0000000000
     10783      3566  TIP3      OH2           -17.6472485997      -23.5605732682       23.8027388773  SOLV      3555            0.0000000000
     10784      3566  TIP3      H1            -17.3061744930      -24.4338750124       23.5633995858  SOLV      3555            0.0000000000
     10785      3566  TIP3      H2            -16.8236708658      -23.1380239671       24.1121296406  SOLV      3555            0.0000000000
     10786      3567  TIP3      OH2            -7.5070877264      -30.1763505091       23.7667055323  SOLV      3556            0.0000000000
     10787      3567  TIP3      H1             -7.3731898011      -29.2886240297       24.1630645388  SOLV      3556            0.0000000000
     10788      3567  TIP3      H2             -7.2305234929      -30.0187337836       22.8468492640  SOLV      3556            0.0000000000
     10789      3568  TIP3      OH2           -13.7623112526      -28.4449814827       24.1922428032  SOLV      3557            0.0000000000
     10790      3568  TIP3      H1            -13.4219982124      -29.2913995227       24.4835945954  SOLV      3557            0.0000000000
     10791      3568  TIP3      H2            -14.0085284620      -28.6404217000       23.2661964146  SOLV      3557            0.0000000000
     10792      3569  TIP3      OH2           -13.2331899841      -31.4161104344       20.3285251014  SOLV      3558            0.0000000000
     10793      3569  TIP3      H1            -12.4209237703      -31.3199688523       20.8787619383  SOLV      3558            0.0000000000
     10794      3569  TIP3      H2            -12.9713477279      -30.9969537129       19.5002719318  SOLV      3558            0.0000000000
     10795      3570  TIP3      OH2            -7.1213464775      -27.9860637111       25.4544317042  SOLV      3559            0.0000000000
     10796      3570  TIP3      H1             -8.0177330959      -27.6051452691       25.3756166774  SOLV      3559            0.0000000000
     10797      3570  TIP3      H2             -6.9676162534      -27.9161487243       26.4114938116  SOLV      3559            0.0000000000
     10798      3571  TIP3      OH2           -16.8597921831      -23.6877175476       18.2823164123  SOLV      3560            0.0000000000
     10799      3571  TIP3      H1            -17.1312709533      -23.7320536829       17.3578368114  SOLV      3560            0.0000000000
     10800      3571  TIP3      H2            -17.2885176244      -22.8549939463       18.5667755090  SOLV      3560            0.0000000000
     10801      3572  TIP3      OH2           -11.0967629082      -31.0928469552       21.9674270913  SOLV      3561            0.0000000000
     10802      3572  TIP3      H1            -11.0313708488      -31.6424423134       22.7694924224  SOLV      3561            0.0000000000
     10803      3572  TIP3      H2            -10.6168445079      -30.2840195682       22.2296392429  SOLV      3561            0.0000000000
     10804      3573  TIP3      OH2           -12.4903455091      -20.3514854659       21.8948899733  SOLV      3562            0.0000000000
     10805      3573  TIP3      H1            -13.3963099875      -20.4706351235       22.2620050082  SOLV      3562            0.0000000000
     10806      3573  TIP3      H2            -12.5973696941      -19.5109147540       21.4090750553  SOLV      3562            0.0000000000
     10807      3574  TIP3      OH2           -15.5442870904      -19.9231337113       18.6351121125  SOLV      3563            0.0000000000
     10808      3574  TIP3      H1            -15.0459504526      -20.7484386217       18.4240520634  SOLV      3563            0.0000000000
     10809      3574  TIP3      H2            -14.9463156616      -19.2669989258       18.2096750730  SOLV      3563            0.0000000000
     10810      3575  TIP3      OH2           -14.1410018990      -22.0942981534       17.7733877557  SOLV      3564            0.0000000000
     10811      3575  TIP3      H1            -14.3236744198      -22.9212466421       17.3062939127  SOLV      3564            0.0000000000
     10812      3575  TIP3      H2            -13.7482891816      -22.4222124242       18.6127582620  SOLV      3564            0.0000000000
     10813      3576  TIP3      OH2           -10.3108807736      -21.3260745006       25.3738399719  SOLV      3565            0.0000000000
     10814      3576  TIP3      H1            -10.3755644862      -22.1142674973       24.7873511823  SOLV      3565            0.0000000000
     10815      3576  TIP3      H2            -10.4916577465      -20.6065567793       24.7336960867  SOLV      3565            0.0000000000
     10816      3577  TIP3      OH2           -17.2438840373      -27.2865903863       17.9201884206  SOLV      3566            0.0000000000
     10817      3577  TIP3      H1            -18.0596705117      -26.7947996617       17.6902045402  SOLV      3566            0.0000000000
     10818      3577  TIP3      H2            -16.7914199100      -27.3339459636       17.0601322457  SOLV      3566            0.0000000000
     10819      3578  TIP3      OH2           -17.3264521446      -29.3669101431       14.6554970884  SOLV      3567            0.0000000000
     10820      3578  TIP3      H1            -16.6288798614      -28.9727109401       15.2386901445  SOLV      3567            0.0000000000
     10821      3578  TIP3      H2            -17.9446681582      -29.7285778574       15.2709439778  SOLV      3567            0.0000000000
     10822      3579  TIP3      OH2            -8.3380059291      -24.9186978684       23.7865945733  SOLV      3568            0.0000000000
     10823      3579  TIP3      H1             -9.1264999779      -24.3416158529       23.8746771030  SOLV      3568            0.0000000000
     10824      3579  TIP3      H2             -8.0359603881      -24.6733263391       22.8866054998  SOLV      3568            0.0000000000
     10825      3580  TIP3      OH2           -13.8208192356      -26.3630547073       17.7337187927  SOLV      3569            0.0000000000
     10826      3580  TIP3      H1            -14.3680391370      -26.1332346553       18.5205892898  SOLV      3569            0.0000000000
     10827      3580  TIP3      H2            -12.9816112858      -26.6250408246       18.1660598450  SOLV      3569            0.0000000000
     10828      3581  TIP3      OH2           -20.0079256308      -22.1803336523       23.1121044026  SOLV      3570            0.0000000000
     10829      3581  TIP3      H1            -20.2639628554      -22.7348165897       22.3689522545  SOLV      3570            0.0000000000
     10830      3581  TIP3      H2            -19.1788941976      -22.6162135306       23.4071342662  SOLV      3570            0.0000000000
     10831      3582  TIP3      OH2           -14.9147966383      -20.4767686239       23.0784312736  SOLV      3571            0.0000000000
     10832      3582  TIP3      H1            -15.1000927263      -19.6445616549       23.5476430233  SOLV      3571            0.0000000000
     10833      3582  TIP3      H2            -15.1167167255      -21.1626119363       23.7424512823  SOLV      3571            0.0000000000
     10834      3583  TIP3      OH2           -15.2690527690      -27.8934399838       15.9697140365  SOLV      3572            0.0000000000
     10835      3583  TIP3      H1            -14.7321534914      -27.2471132794       16.4804234068  SOLV      3572            0.0000000000
     10836      3583  TIP3      H2            -15.0475519758      -27.6441600121       15.0392105136  SOLV      3572            0.0000000000
     10837      3584  TIP3      OH2           -18.0228349221      -21.1580498310       18.6066130312  SOLV      3573            0.0000000000
     10838      3584  TIP3      H1            -17.1948277666      -20.6583787704       18.7146126770  SOLV      3573            0.0000000000
     10839      3584  TIP3      H2            -18.5899117768      -20.5294894585       18.1378333185  SOLV      3573            0.0000000000
     10840      3585  TIP3      OH2           -12.3152628591      -21.8692704043       11.8684683908  SOLV      3574            0.0000000000
     10841      3585  TIP3      H1            -12.2318157693      -20.9030669912       11.7168318899  SOLV      3574            0.0000000000
     10842      3585  TIP3      H2            -11.3885135100      -22.1622758143       11.7392888017  SOLV      3574            0.0000000000
     10843      3586  TIP3      OH2            -7.9551880619      -17.6614706759       25.6718178139  SOLV      3575            0.0000000000
     10844      3586  TIP3      H1             -7.9002429233      -18.6360551740       25.7615809506  SOLV      3575            0.0000000000
     10845      3586  TIP3      H2             -8.7565995443      -17.4786130903       26.2015333144  SOLV      3575            0.0000000000
     10846      3587  TIP3      OH2           -19.3355606697      -18.7479386045       16.6452120321  SOLV      3576            0.0000000000
     10847      3587  TIP3      H1            -19.8736720341      -18.8359559101       15.8457320907  SOLV      3576            0.0000000000
     10848      3587  TIP3      H2            -19.5472807058      -17.8435132995       16.9349854266  SOLV      3576            0.0000000000
     10849      3588  TIP3      OH2           -24.9219471474      -20.3055748533       20.4353956366  SOLV      3577            0.0000000000
     10850      3588  TIP3      H1            -24.3612887210      -20.3782960091       21.2460832626  SOLV      3577            0.0000000000
     10851      3588  TIP3      H2            -25.6906556250      -20.8239638146       20.7055387602  SOLV      3577            0.0000000000
     10852      3589  TIP3      OH2           -16.6734557080      -18.8883155830       15.9881427320  SOLV      3578            0.0000000000
     10853      3589  TIP3      H1            -17.6245253078      -18.9796992690       16.2040313829  SOLV      3578            0.0000000000
     10854      3589  TIP3      H2            -16.2887899888      -19.6423647467       16.4503832802  SOLV      3578            0.0000000000
     10855      3590  TIP3      OH2           -14.6807925268      -27.5245036882       13.3469333845  SOLV      3579            0.0000000000
     10856      3590  TIP3      H1            -15.0237502800      -27.7956544990       12.4729540022  SOLV      3579            0.0000000000
     10857      3590  TIP3      H2            -13.8565228116      -27.0716000990       13.0962567219  SOLV      3579            0.0000000000
     10858      3591  TIP3      OH2           -15.7596752679      -29.1821964741       19.2281658587  SOLV      3580            0.0000000000
     10859      3591  TIP3      H1            -16.3245061547      -28.4577875714       18.8851893065  SOLV      3580            0.0000000000
     10860      3591  TIP3      H2            -15.1001438219      -29.2938572940       18.5263348450  SOLV      3580            0.0000000000
     10861      3592  TIP3      OH2           -14.0782397646      -29.0131133088       21.5192419590  SOLV      3581            0.0000000000
     10862      3592  TIP3      H1            -14.9328761714      -28.8488764599       21.0735439888  SOLV      3581            0.0000000000
     10863      3592  TIP3      H2            -13.9071234535      -29.9176977130       21.1939666361  SOLV      3581            0.0000000000
     10864      3593  TIP3      OH2           -11.1402982468      -14.3375914048       26.8992790764  SOLV      3582            0.0000000000
     10865      3593  TIP3      H1            -11.1116278736      -14.1353546155       25.9467115934  SOLV      3582            0.0000000000
     10866      3593  TIP3      H2            -10.2880928077      -13.9353880780       27.1849374972  SOLV      3582            0.0000000000
     10867      3594  TIP3      OH2           -19.5511236766      -25.8528502153       17.3681862415  SOLV      3583            0.0000000000
     10868      3594  TIP3      H1            -20.3349493550      -26.4130670906       17.4268076134  SOLV      3583            0.0000000000
     10869      3594  TIP3      H2            -19.6193157130      -25.3652994884       18.2265938479  SOLV      3583            0.0000000000
     10870      3595  TIP3      OH2           -10.6667568375      -23.4261920942       23.6675696805  SOLV      3584            0.0000000000
     10871      3595  TIP3      H1            -10.3954344910      -22.9411743911       22.8586295068  SOLV      3584            0.0000000000
     10872      3595  TIP3      H2            -11.5106699491      -23.8427778141       23.3856590725  SOLV      3584            0.0000000000
     10873      3596  TIP3      OH2           -15.3422869203      -32.2496917098       15.5249155783  SOLV      3585            0.0000000000
     10874      3596  TIP3      H1            -15.4977110297      -32.9490793301       16.1606191099  SOLV      3585            0.0000000000
     10875      3596  TIP3      H2            -14.9310998179      -31.5662492531       16.1098864851  SOLV      3585            0.0000000000
     10876      3597  TIP3      OH2           -14.2410534118      -30.2001200875       17.0593328236  SOLV      3586            0.0000000000
     10877      3597  TIP3      H1            -13.2840368255      -30.1223291723       17.2469466807  SOLV      3586            0.0000000000
     10878      3597  TIP3      H2            -14.4286647099      -29.3863892445       16.5505918792  SOLV      3586            0.0000000000
     10879      3598  TIP3      OH2           -18.1796835557      -24.2523792113       15.5677387770  SOLV      3587            0.0000000000
     10880      3598  TIP3      H1            -18.6559847344      -23.3923117298       15.5835682118  SOLV      3587            0.0000000000
     10881      3598  TIP3      H2            -18.7095501258      -24.8102086806       16.1753262234  SOLV      3587            0.0000000000
     10882      3599  TIP3      OH2           -13.8223597178      -20.0965746622       26.2642897808  SOLV      3588            0.0000000000
     10883      3599  TIP3      H1            -14.7570928051      -19.9102306196       26.4600082621  SOLV      3588            0.0000000000
     10884      3599  TIP3      H2            -13.3926109665      -19.4801007890       26.8649909914  SOLV      3588            0.0000000000
     10885      3600  TIP3      OH2           -10.0240369383      -29.3232678452       15.4634194558  SOLV      3589            0.0000000000
     10886      3600  TIP3      H1            -10.5572074345      -29.7697522778       14.7658855340  SOLV      3589            0.0000000000
     10887      3600  TIP3      H2            -10.0146585706      -28.4315475649       15.0521104167  SOLV      3589            0.0000000000
     10888      3601  TIP3      OH2            -7.9096402794      -20.4002690076       26.1639361428  SOLV      3590            0.0000000000
     10889      3601  TIP3      H1             -8.8298993608      -20.7084395213       26.0000322001  SOLV      3590            0.0000000000
     10890      3601  TIP3      H2             -7.4847491397      -20.8315683897       25.3858694661  SOLV      3590            0.0000000000
     10891      3602  TIP3      OH2           -12.8532827429      -21.1203521275       14.5444876362  SOLV      3591            0.0000000000
     10892      3602  TIP3      H1            -13.2108403579      -21.8055285948       15.1253520807  SOLV      3591            0.0000000000
     10893      3602  TIP3      H2            -12.7750673331      -21.5790719481       13.6885929508  SOLV      3591            0.0000000000
     10894      3603  TIP3      OH2           -12.9969476967      -24.7258253909       22.8156747752  SOLV      3592            0.0000000000
     10895      3603  TIP3      H1            -13.8856547801      -25.0713797433       23.0449530830  SOLV      3592            0.0000000000
     10896      3603  TIP3      H2            -12.6169498875      -25.5291815650       22.3987687318  SOLV      3592            0.0000000000
     10897      3604  TIP3      OH2           -21.6358550022      -22.4503063782       20.3358701289  SOLV      3593            0.0000000000
     10898      3604  TIP3      H1            -21.5269567943      -21.6599255363       19.7674984938  SOLV      3593            0.0000000000
     10899      3604  TIP3      H2            -22.3657772417      -22.1682562068       20.8889393210  SOLV      3593            0.0000000000
     10900      3605  TIP3      OH2           -20.1238415268      -24.6698671815       19.6840146360  SOLV      3594            0.0000000000
     10901      3605  TIP3      H1            -20.5482308497      -23.8472744830       20.0026622799  SOLV      3594            0.0000000000
     10902      3605  TIP3      H2            -20.4005514721      -25.3346429795       20.3347223131  SOLV      3594            0.0000000000
     10903      3606  TIP3      OH2           -19.0368296407      -18.9547494546       24.9452137934  SOLV      3595            0.0000000000
     10904      3606  TIP3      H1            -18.4886312289      -18.2937457536       24.4858593845  SOLV      3595            0.0000000000
     10905      3606  TIP3      H2            -18.4363087632      -19.3349545443       25.5892897218  SOLV      3595            0.0000000000
     10906      3607  TIP3      OH2           -22.5106077510      -20.0915225361       18.9288460991  SOLV      3596            0.0000000000
     10907      3607  TIP3      H1            -23.3874053202      -20.0707521310       19.3529428385  SOLV      3596            0.0000000000
     10908      3607  TIP3      H2            -22.2271519988      -19.1531790718       19.0052989941  SOLV      3596            0.0000000000
     10909      3608  TIP3      OH2           -15.0722407694      -22.7490417643       24.7417409813  SOLV      3597            0.0000000000
     10910      3608  TIP3      H1            -14.6070087870      -22.8327586307       25.5859661613  SOLV      3597            0.0000000000
     10911      3608  TIP3      H2            -14.5015072925      -23.2835549504       24.1697964336  SOLV      3597            0.0000000000
     10912      3609  TIP3      OH2           -15.3330415529      -23.8893049896       13.5930690287  SOLV      3598            0.0000000000
     10913      3609  TIP3      H1            -14.8317490665      -24.1163912957       14.4063615920  SOLV      3598            0.0000000000
     10914      3609  TIP3      H2            -16.2444153812      -24.0630137985       13.8734897539  SOLV      3598            0.0000000000
     10915      3610  TIP3      OH2           -12.6702690694      -17.4920024524       25.1407186222  SOLV      3599            0.0000000000
     10916      3610  TIP3      H1            -13.4586754524      -18.0229241557       24.9073293647  SOLV      3599            0.0000000000
     10917      3610  TIP3      H2            -12.6797554032      -16.8348557036       24.4068825270  SOLV      3599            0.0000000000
     10918      3611  TIP3      OH2           -12.0168115063      -19.1112804848       11.6943495611  SOLV      3600            0.0000000000
     10919      3611  TIP3      H1            -11.7037657826      -18.3940892614       11.1197823616  SOLV      3600            0.0000000000
     10920      3611  TIP3      H2            -12.7954123573      -18.6632602481       12.0891382024  SOLV      3600            0.0000000000
     10921      3612  TIP3      OH2           -13.7326727032      -24.4269007986       15.7858755244  SOLV      3601            0.0000000000
     10922      3612  TIP3      H1            -13.8092495311      -25.0935955920       16.5009389063  SOLV      3601            0.0000000000
     10923      3612  TIP3      H2            -12.7733167664      -24.4864512046       15.5970880894  SOLV      3601            0.0000000000
     10924      3613  TIP3      OH2           -22.1236397775      -24.0027357360       13.4676981296  SOLV      3602            0.0000000000
     10925      3613  TIP3      H1            -21.7444353042      -24.8509379878       13.1595695399  SOLV      3602            0.0000000000
     10926      3613  TIP3      H2            -21.7628826582      -23.9500955291       14.3682360421  SOLV      3602            0.0000000000
     10927      3614  TIP3      OH2           -21.7280892091      -23.8561366147       16.2587048057  SOLV      3603            0.0000000000
     10928      3614  TIP3      H1            -20.8540620986      -23.7689012724       16.6145388703  SOLV      3603            0.0000000000
     10929      3614  TIP3      H2            -22.0183104346      -22.9074036308       16.2509245277  SOLV      3603            0.0000000000
     10930      3615  TIP3      OH2           -19.5472339859      -21.8889225903       15.4541213114  SOLV      3604            0.0000000000
     10931      3615  TIP3      H1            -20.3660967743      -21.4989761766       15.8109454256  SOLV      3604            0.0000000000
     10932      3615  TIP3      H2            -19.4305943230      -21.3763507065       14.6349850030  SOLV      3604            0.0000000000
     10933      3616  TIP3      OH2           -22.0831125350      -21.1712169429       16.3967634819  SOLV      3605            0.0000000000
     10934      3616  TIP3      H1            -22.2595701842      -20.4598418468       15.7377415437  SOLV      3605            0.0000000000
     10935      3616  TIP3      H2            -22.2749791874      -20.7176722026       17.2421707240  SOLV      3605            0.0000000000
     10936      3617  TIP3      OH2           -12.0879531690      -27.1263127488       21.6707811130  SOLV      3606            0.0000000000
     10937      3617  TIP3      H1            -12.8406005989      -27.7576806559       21.6882223226  SOLV      3606            0.0000000000
     10938      3617  TIP3      H2            -11.3989400262      -27.6459272954       22.1368433054  SOLV      3606            0.0000000000
     10939      3618  TIP3      OH2           -12.4498460542      -17.6283136638       21.1085007829  SOLV      3607            0.0000000000
     10940      3618  TIP3      H1            -12.8854455358      -17.1340473965       20.3790891449  SOLV      3607            0.0000000000
     10941      3618  TIP3      H2            -11.5057279999      -17.4431448887       20.8995056674  SOLV      3607            0.0000000000
     10942      3619  TIP3      OH2           -15.9803597429      -22.0610094526       11.3724953493  SOLV      3608            0.0000000000
     10943      3619  TIP3      H1            -15.6595583006      -22.1664985271       12.2793290913  SOLV      3608            0.0000000000
     10944      3619  TIP3      H2            -15.2197519174      -21.6736740685       10.9110217477  SOLV      3608            0.0000000000
     10945      3620  TIP3      OH2           -18.5486956406      -24.8529440887       12.8513315112  SOLV      3609            0.0000000000
     10946      3620  TIP3      H1            -18.5167202964      -24.6342429615       13.7970336025  SOLV      3609            0.0000000000
     10947      3620  TIP3      H2            -18.6093727621      -25.8364924537       12.8820132698  SOLV      3609            0.0000000000
     10948      3621  TIP3      OH2           -12.6191257899      -22.6090213893       26.5021607828  SOLV      3610            0.0000000000
     10949      3621  TIP3      H1            -11.7089248465      -22.3892784257       26.2424629858  SOLV      3610            0.0000000000
     10950      3621  TIP3      H2            -13.0362289057      -21.7345632846       26.4113176728  SOLV      3610            0.0000000000
     10951      3622  TIP3      OH2           -12.3751745875      -26.5568625190       12.1711802804  SOLV      3611            0.0000000000
     10952      3622  TIP3      H1            -12.5669669749      -26.9849511401       11.3164645344  SOLV      3611            0.0000000000
     10953      3622  TIP3      H2            -12.6960795657      -25.6478022947       11.9665772973  SOLV      3611            0.0000000000
     10954      3623  TIP3      OH2           -21.9970837769      -19.1908983032       14.4793551091  SOLV      3612            0.0000000000
     10955      3623  TIP3      H1            -21.3164864921      -19.4882693954       13.8388148680  SOLV      3612            0.0000000000
     10956      3623  TIP3      H2            -22.5371083630      -18.6661130150       13.8608065599  SOLV      3612            0.0000000000
     10957      3624  TIP3      OH2            -9.8854410190      -16.7698282068       20.7459292278  SOLV      3613            0.0000000000
     10958      3624  TIP3      H1             -9.5797563932      -16.4282123161       21.6033905477  SOLV      3613            0.0000000000
     10959      3624  TIP3      H2             -9.2041995587      -16.4463252004       20.1365823864  SOLV      3613            0.0000000000
     10960      3625  TIP3      OH2            -9.6096285194      -16.5775769525       23.6032238216  SOLV      3614            0.0000000000
     10961      3625  TIP3      H1            -10.0281876153      -17.4577270597       23.4954168666  SOLV      3614            0.0000000000
     10962      3625  TIP3      H2             -8.8372264522      -16.8335084134       24.1411321157  SOLV      3614            0.0000000000
     10963      3626  TIP3      OH2           -10.9648392059      -24.7002564906       15.4433499132  SOLV      3615            0.0000000000
     10964      3626  TIP3      H1            -10.3085221589      -24.0368786431       15.1522274785  SOLV      3615            0.0000000000
     10965      3626  TIP3      H2            -10.5230242443      -25.0627721069       16.2445323121  SOLV      3615            0.0000000000
     10966      3627  TIP3      OH2            -9.7061773082      -25.9457785116       17.5276402888  SOLV      3616            0.0000000000
     10967      3627  TIP3      H1            -10.3639635473      -26.3695043688       18.1237212993  SOLV      3616            0.0000000000
     10968      3627  TIP3      H2             -9.0275855985      -25.6259806490       18.1581799694  SOLV      3616            0.0000000000
     10969      3628  TIP3      OH2            -9.1143977896      -22.0487228547       21.8388178173  SOLV      3617            0.0000000000
     10970      3628  TIP3      H1             -8.5760780778      -22.7429057575       21.4066524173  SOLV      3617            0.0000000000
     10971      3628  TIP3      H2             -9.1569749679      -21.3604292283       21.1479617055  SOLV      3617            0.0000000000
     10972      3629  TIP3      OH2           -10.8195779654      -19.1146147440       23.7298365662  SOLV      3618            0.0000000000
     10973      3629  TIP3      H1            -11.5790764793      -18.7419173782       24.2088337809  SOLV      3618            0.0000000000
     10974      3629  TIP3      H2            -11.2629871388      -19.5810523607       22.9864966799  SOLV      3618            0.0000000000
     10975      3630  TIP3      OH2           -10.3294759514      -26.9453272336       13.9657906978  SOLV      3619            0.0000000000
     10976      3630  TIP3      H1            -11.0530792440      -26.9178158378       13.2992116346  SOLV      3619            0.0000000000
     10977      3630  TIP3      H2            -10.5887151798      -26.1768333601       14.5150299940  SOLV      3619            0.0000000000
     10978      3631  TIP3      OH2           -11.5312347338      -30.1447559130       13.3571219163  SOLV      3620            0.0000000000
     10979      3631  TIP3      H1            -12.0807210782      -29.7257637279       12.6850814764  SOLV      3620            0.0000000000
     10980      3631  TIP3      H2            -11.8869322053      -31.0576442226       13.3691006298  SOLV      3620            0.0000000000
     10981      3632  TIP3      OH2           -11.5603564264      -27.3474418479       18.9675362592  SOLV      3621            0.0000000000
     10982      3632  TIP3      H1            -11.5377356909      -28.3155827703       18.8433378197  SOLV      3621            0.0000000000
     10983      3632  TIP3      H2            -11.6851243785      -27.2585495386       19.9372594128  SOLV      3621            0.0000000000
     10984      3633  TIP3      OH2            -8.6501197082      -23.7048026168       26.9258691987  SOLV      3622            0.0000000000
     10985      3633  TIP3      H1             -8.0555707890      -23.8282178621       27.6694314069  SOLV      3622            0.0000000000
     10986      3633  TIP3      H2             -8.7257956311      -22.7475687841       26.8812732942  SOLV      3622            0.0000000000
     10987      3634  TIP3      OH2           -12.3481611688      -32.7233303230       13.9364672941  SOLV      3623            0.0000000000
     10988      3634  TIP3      H1            -12.2463196444      -32.6991964904       14.8991835839  SOLV      3623            0.0000000000
     10989      3634  TIP3      H2            -13.2426512938      -33.0853953777       13.8553628976  SOLV      3623            0.0000000000
     10990      3635  TIP3      OH2           -11.5782124594      -30.0047690122       17.8741621405  SOLV      3624            0.0000000000
     10991      3635  TIP3      H1            -11.4327857284      -30.9657927951       17.8631321127  SOLV      3624            0.0000000000
     10992      3635  TIP3      H2            -10.9747164788      -29.7245008516       17.1582472727  SOLV      3624            0.0000000000
     10993      3636  TIP3      OH2           -10.0450270172      -28.5585609008       22.8503980052  SOLV      3625            0.0000000000
     10994      3636  TIP3      H1             -9.1758174699      -28.3224739838       22.4528525912  SOLV      3625            0.0000000000
     10995      3636  TIP3      H2             -9.9511083700      -28.1433563213       23.7273213546  SOLV      3625            0.0000000000
     10996      3637  TIP3      OH2            -9.6102604931      -26.9096040345       25.1628109956  SOLV      3626            0.0000000000
     10997      3637  TIP3      H1            -10.3509415416      -26.4116517194       25.5294747965  SOLV      3626            0.0000000000
     10998      3637  TIP3      H2             -9.1240605708      -26.1913422253       24.6942526508  SOLV      3626            0.0000000000
     10999      3638  TIP3      OH2           -13.9490252844      -18.1044652104       17.3995113183  SOLV      3627            0.0000000000
     11000      3638  TIP3      H1            -13.5590019077      -18.2881771412       16.5217876599  SOLV      3627            0.0000000000
     11001      3638  TIP3      H2            -13.3596300206      -17.4139449798       17.7261663066  SOLV      3627            0.0000000000
     11002      3639  TIP3      OH2           -14.8321125245      -15.7276422134       26.1031638690  SOLV      3628            0.0000000000
     11003      3639  TIP3      H1            -14.1677829798      -16.3294342770       25.7345609369  SOLV      3628            0.0000000000
     11004      3639  TIP3      H2            -14.3193516143      -15.2928847746       26.8155635667  SOLV      3628            0.0000000000
     11005      3640  TIP3      OH2           -21.9246470913      -17.1099707263       25.4348732559  SOLV      3629            0.0000000000
     11006      3640  TIP3      H1            -22.7521903828      -17.2667871080       25.8985889123  SOLV      3629            0.0000000000
     11007      3640  TIP3      H2            -22.2014431000      -17.0002354979       24.5083364314  SOLV      3629            0.0000000000
     11008      3641  TIP3      OH2           -17.8114692068      -17.0288105082       23.3721347423  SOLV      3630            0.0000000000
     11009      3641  TIP3      H1            -18.5452121110      -16.9678695367       22.7316781443  SOLV      3630            0.0000000000
     11010      3641  TIP3      H2            -17.7957174483      -16.1257191472       23.7421416601  SOLV      3630            0.0000000000
     11011      3642  TIP3      OH2           -15.1961308074      -17.8101456602       23.8935507671  SOLV      3631            0.0000000000
     11012      3642  TIP3      H1            -16.1412992514      -17.6196131423       23.7174132524  SOLV      3631            0.0000000000
     11013      3642  TIP3      H2            -14.7777487736      -17.0746080987       23.4199120984  SOLV      3631            0.0000000000
     11014      3643  TIP3      OH2           -13.0854260278      -15.8033344025       23.0477373793  SOLV      3632            0.0000000000
     11015      3643  TIP3      H1            -13.2747021720      -14.9658240932       22.5720661363  SOLV      3632            0.0000000000
     11016      3643  TIP3      H2            -12.8605514878      -16.4001097177       22.2978576087  SOLV      3632            0.0000000000
     11017      3644  TIP3      OH2           -23.3268985579      -20.5935389960       22.5563931285  SOLV      3633            0.0000000000
     11018      3644  TIP3      H1            -23.3800464193      -21.2966015014       23.2305930806  SOLV      3633            0.0000000000
     11019      3644  TIP3      H2            -22.4696524328      -20.1630567344       22.7675136225  SOLV      3633            0.0000000000
     11020      3645  TIP3      OH2           -20.7861963077      -19.5427336504       22.9407468412  SOLV      3634            0.0000000000
     11021      3645  TIP3      H1            -20.4702049374      -20.4752508295       22.8953206043  SOLV      3634            0.0000000000
     11022      3645  TIP3      H2            -20.3100336984      -19.2765565485       23.7586167555  SOLV      3634            0.0000000000
     11023      3646  TIP3      OH2           -12.6001340524      -18.4430016200       14.9943858075  SOLV      3635            0.0000000000
     11024      3646  TIP3      H1            -12.6517284724      -19.4194715235       14.8593733207  SOLV      3635            0.0000000000
     11025      3646  TIP3      H2            -13.0661287878      -18.1257536916       14.1935809677  SOLV      3635            0.0000000000
     11026      3647  TIP3      OH2           -25.9543985378      -20.6059296670       14.8222293625  SOLV      3636            0.0000000000
     11027      3647  TIP3      H1            -26.3228766647      -21.2154556002       15.4635936721  SOLV      3636            0.0000000000
     11028      3647  TIP3      H2            -25.2582064624      -21.1771104105       14.4153666653  SOLV      3636            0.0000000000
     11029      3648  TIP3      OH2           -10.4175045737      -17.0340501300       26.9489493659  SOLV      3637            0.0000000000
     11030      3648  TIP3      H1            -11.1126180469      -17.3500282512       26.3406400126  SOLV      3637            0.0000000000
     11031      3648  TIP3      H2            -10.6492213524      -16.0855635860       26.9949320788  SOLV      3637            0.0000000000
     11032      3649  TIP3      OH2             2.3434388218      -23.2152946710       14.4153626260  SOLV      3638            0.0000000000
     11033      3649  TIP3      H1              1.9979454252      -22.3303968406       14.1752828658  SOLV      3638            0.0000000000
     11034      3649  TIP3      H2              1.5898518088      -23.7727568286       14.1552745768  SOLV      3638            0.0000000000
     11035      3650  TIP3      OH2             2.3087916200      -23.2885348642       18.3615890775  SOLV      3639            0.0000000000
     11036      3650  TIP3      H1              2.6643052687      -23.5408078665       19.2338738308  SOLV      3639            0.0000000000
     11037      3650  TIP3      H2              1.9057587846      -24.1303372592       18.0764791752  SOLV      3639            0.0000000000
     11038      3651  TIP3      OH2            -4.7360804499      -24.3203516893       21.9409646681  SOLV      3640            0.0000000000
     11039      3651  TIP3      H1             -4.4534183267      -24.9897721435       22.5950522515  SOLV      3640            0.0000000000
     11040      3651  TIP3      H2             -3.8772757898      -24.0068715974       21.6203299740  SOLV      3640            0.0000000000
     11041      3652  TIP3      OH2             4.7931984132      -20.2293580806       15.1354497817  SOLV      3641            0.0000000000
     11042      3652  TIP3      H1              4.5798352618      -20.9189623986       15.7792904283  SOLV      3641            0.0000000000
     11043      3652  TIP3      H2              5.0739400943      -19.4931462444       15.7028083678  SOLV      3641            0.0000000000
     11044      3653  TIP3      OH2            -4.9575782823      -20.2196042582       19.1728920366  SOLV      3642            0.0000000000
     11045      3653  TIP3      H1             -5.0559521895      -21.1974665590       19.1600204050  SOLV      3642            0.0000000000
     11046      3653  TIP3      H2             -3.9893767158      -20.1474830731       19.0931698114  SOLV      3642            0.0000000000
     11047      3654  TIP3      OH2            -8.0492399023      -28.1151238332       16.9746544749  SOLV      3643            0.0000000000
     11048      3654  TIP3      H1             -8.5860558848      -27.3229601856       17.1561550595  SOLV      3643            0.0000000000
     11049      3654  TIP3      H2             -8.7241489369      -28.7150409774       16.6161284501  SOLV      3643            0.0000000000
     11050      3655  TIP3      OH2            -7.3395134389      -25.3530754919       18.8443315413  SOLV      3644            0.0000000000
     11051      3655  TIP3      H1             -6.8328045925      -26.1308356822       19.1679704738  SOLV      3644            0.0000000000
     11052      3655  TIP3      H2             -6.7555698641      -25.0158159592       18.1535021791  SOLV      3644            0.0000000000
     11053      3656  TIP3      OH2             1.3098694638      -15.6393071575       15.3051505904  SOLV      3645            0.0000000000
     11054      3656  TIP3      H1              1.7104129394      -16.3560384535       14.7693620965  SOLV      3645            0.0000000000
     11055      3656  TIP3      H2              1.1602795713      -16.0830173251       16.1452007131  SOLV      3645            0.0000000000
     11056      3657  TIP3      OH2             0.2698256287      -21.0139566024       18.7610124627  SOLV      3646            0.0000000000
     11057      3657  TIP3      H1              0.6668426914      -21.7985065844       18.3440275790  SOLV      3646            0.0000000000
     11058      3657  TIP3      H2              1.0958306380      -20.5460795130       19.0072838733  SOLV      3646            0.0000000000
     11059      3658  TIP3      OH2            10.4105946563      -27.6506673524       18.6193717894  SOLV      3647            0.0000000000
     11060      3658  TIP3      H1             10.5926767111      -26.7702002652       19.0162478702  SOLV      3647            0.0000000000
     11061      3658  TIP3      H2             10.7008663174      -27.5065357079       17.7019802861  SOLV      3647            0.0000000000
     11062      3659  TIP3      OH2             4.4325227583      -26.0309771456       19.1092923599  SOLV      3648            0.0000000000
     11063      3659  TIP3      H1              4.5119888411      -26.9368943202       19.4234874378  SOLV      3648            0.0000000000
     11064      3659  TIP3      H2              4.0804524936      -26.1630471183       18.2044938672  SOLV      3648            0.0000000000
     11065      3660  TIP3      OH2            -3.0463482899      -29.6209220351       18.7037063119  SOLV      3649            0.0000000000
     11066      3660  TIP3      H1             -2.7126242652      -28.9398555765       18.0889797373  SOLV      3649            0.0000000000
     11067      3660  TIP3      H2             -2.5156236775      -30.4020193156       18.4460275950  SOLV      3649            0.0000000000
     11068      3661  TIP3      OH2             4.7415974142      -28.6130885668       15.0431432197  SOLV      3650            0.0000000000
     11069      3661  TIP3      H1              5.4684750350      -28.7285725602       15.7008633894  SOLV      3650            0.0000000000
     11070      3661  TIP3      H2              5.2086280361      -28.1145488580       14.3554901348  SOLV      3650            0.0000000000
     11071      3662  TIP3      OH2            -5.7985435092      -27.3913811619       19.8408118619  SOLV      3651            0.0000000000
     11072      3662  TIP3      H1             -4.9501249351      -27.5807290160       20.2871006070  SOLV      3651            0.0000000000
     11073      3662  TIP3      H2             -5.6543695129      -27.8480292938       18.9849334602  SOLV      3651            0.0000000000
     11074      3663  TIP3      OH2            -1.5177567217      -25.4037636591       17.8666594707  SOLV      3652            0.0000000000
     11075      3663  TIP3      H1             -0.5630704892      -25.6156566651       17.9533560457  SOLV      3652            0.0000000000
     11076      3663  TIP3      H2             -1.8693668697      -26.2537524045       17.5183563536  SOLV      3652            0.0000000000
     11077      3664  TIP3      OH2            10.9186873038      -25.5230151361       20.3349771793  SOLV      3653            0.0000000000
     11078      3664  TIP3      H1             10.0854936870      -25.0072436297       20.3504077270  SOLV      3653            0.0000000000
     11079      3664  TIP3      H2             11.3625895965      -25.2501776510       21.1547456740  SOLV      3653            0.0000000000
     11080      3665  TIP3      OH2            -2.1650652400      -29.6810346458       23.2717243379  SOLV      3654            0.0000000000
     11081      3665  TIP3      H1             -2.4854655176      -29.5153091630       22.3644346234  SOLV      3654            0.0000000000
     11082      3665  TIP3      H2             -2.9108113705      -29.3282908091       23.7877579850  SOLV      3654            0.0000000000
     11083      3666  TIP3      OH2             1.2256303493      -21.0443811707       13.1038123841  SOLV      3655            0.0000000000
     11084      3666  TIP3      H1              0.7681545823      -21.2319012900       12.2724802298  SOLV      3655            0.0000000000
     11085      3666  TIP3      H2              0.7453753875      -20.2425615884       13.4036682519  SOLV      3655            0.0000000000
     11086      3667  TIP3      OH2            -1.1638125564      -21.8245404008       20.9834053033  SOLV      3656            0.0000000000
     11087      3667  TIP3      H1             -1.7646145197      -21.1291791074       21.3322068965  SOLV      3656            0.0000000000
     11088      3667  TIP3      H2             -0.7221677811      -21.3601684710       20.2439307995  SOLV      3656            0.0000000000
     11089      3668  TIP3      OH2             6.7636785498      -28.5168299798       16.8561355136  SOLV      3657            0.0000000000
     11090      3668  TIP3      H1              6.8543231385      -29.1133767235       17.6215350094  SOLV      3657            0.0000000000
     11091      3668  TIP3      H2              7.2673325709      -27.7309862954       17.1419244162  SOLV      3657            0.0000000000
     11092      3669  TIP3      OH2            -3.4894606118      -28.4153146045       21.0707259657  SOLV      3658            0.0000000000
     11093      3669  TIP3      H1             -2.7537642685      -27.7729697672       21.1703315520  SOLV      3658            0.0000000000
     11094      3669  TIP3      H2             -3.2046272172      -28.8878347192       20.2509916604  SOLV      3658            0.0000000000
     11095      3670  TIP3      OH2            -2.8539543327      -19.8372756847       22.0007451009  SOLV      3659            0.0000000000
     11096      3670  TIP3      H1             -3.1184655329      -18.9647819509       21.6446194286  SOLV      3659            0.0000000000
     11097      3670  TIP3      H2             -3.6469494214      -20.0311779834       22.5436981991  SOLV      3659            0.0000000000
     11098      3671  TIP3      OH2            -8.9923188398      -22.9519693155       14.3608888310  SOLV      3660            0.0000000000
     11099      3671  TIP3      H1             -9.4025622301      -22.7005783179       13.5147537196  SOLV      3660            0.0000000000
     11100      3671  TIP3      H2             -8.6878922750      -22.0861465767       14.7012743326  SOLV      3660            0.0000000000
     11101      3672  TIP3      OH2             5.4408113256      -17.7886031368       16.7693630878  SOLV      3661            0.0000000000
     11102      3672  TIP3      H1              4.5427512337      -17.8835074691       17.1641501573  SOLV      3661            0.0000000000
     11103      3672  TIP3      H2              5.3488044134      -16.9292054532       16.3132042050  SOLV      3661            0.0000000000
     11104      3673  TIP3      OH2             2.4211334882      -17.3645698959       13.4553337670  SOLV      3662            0.0000000000
     11105      3673  TIP3      H1              2.9375316822      -18.1853043031       13.2785944294  SOLV      3662            0.0000000000
     11106      3673  TIP3      H2              3.0342582114      -16.7046141310       13.0611354891  SOLV      3662            0.0000000000
     11107      3674  TIP3      OH2             3.8709637690      -19.5338801453       12.6233386305  SOLV      3663            0.0000000000
     11108      3674  TIP3      H1              3.3578867528      -20.3163646139       12.3789506783  SOLV      3663            0.0000000000
     11109      3674  TIP3      H2              4.2924774527      -19.8348729296       13.4589932441  SOLV      3663            0.0000000000
     11110      3675  TIP3      OH2             7.7043484855      -18.7160986435       20.2036352442  SOLV      3664            0.0000000000
     11111      3675  TIP3      H1              7.5545339686      -19.4919401578       19.6194332499  SOLV      3664            0.0000000000
     11112      3675  TIP3      H2              7.5065536746      -17.9725786658       19.5957268064  SOLV      3664            0.0000000000
     11113      3676  TIP3      OH2             0.6294192273      -24.7582685859       12.8298842245  SOLV      3665            0.0000000000
     11114      3676  TIP3      H1             -0.1959295456      -24.2662398390       12.6457504583  SOLV      3665            0.0000000000
     11115      3676  TIP3      H2              1.0466387339      -24.7842245044       11.9531848140  SOLV      3665            0.0000000000
     11116      3677  TIP3      OH2             0.1669306843      -26.8345952803        9.8924515554  SOLV      3666            0.0000000000
     11117      3677  TIP3      H1              0.8616272195      -26.3981450425       10.4155566473  SOLV      3666            0.0000000000
     11118      3677  TIP3      H2              0.7016064901      -27.4655120183        9.3755426273  SOLV      3666            0.0000000000
     11119      3678  TIP3      OH2             9.6340959495      -22.2627052275       18.7056464929  SOLV      3667            0.0000000000
     11120      3678  TIP3      H1              8.7942036961      -21.7535713862       18.7151506605  SOLV      3667            0.0000000000
     11121      3678  TIP3      H2              9.9362931922      -22.0785180357       17.7903384795  SOLV      3667            0.0000000000
     11122      3679  TIP3      OH2             4.1015436630      -23.9155417920       12.4701609169  SOLV      3668            0.0000000000
     11123      3679  TIP3      H1              3.5419130181      -23.6627125926       13.2441418894  SOLV      3668            0.0000000000
     11124      3679  TIP3      H2              4.9388720551      -24.1351514476       12.9278855160  SOLV      3668            0.0000000000
     11125      3680  TIP3      OH2             6.2867010448      -23.3947733956       21.5876868365  SOLV      3669            0.0000000000
     11126      3680  TIP3      H1              6.2575778679      -22.5541904474       22.0769239961  SOLV      3669            0.0000000000
     11127      3680  TIP3      H2              5.3936702589      -23.4034453270       21.1795205758  SOLV      3669            0.0000000000
     11128      3681  TIP3      OH2            -3.5662389775      -23.9675350508       16.6630530757  SOLV      3670            0.0000000000
     11129      3681  TIP3      H1             -3.9841645045      -24.5651091592       16.0045454654  SOLV      3670            0.0000000000
     11130      3681  TIP3      H2             -2.8246361527      -24.5176533442       16.9956036766  SOLV      3670            0.0000000000
     11131      3682  TIP3      OH2            -2.2896577802      -19.8265194828       18.1173204064  SOLV      3671            0.0000000000
     11132      3682  TIP3      H1             -2.4861124994      -20.1830092644       17.2383873198  SOLV      3671            0.0000000000
     11133      3682  TIP3      H2             -1.4046443608      -20.2056655600       18.2991647168  SOLV      3671            0.0000000000
     11134      3683  TIP3      OH2            -2.3644779081      -24.2044920846       20.2393172028  SOLV      3672            0.0000000000
     11135      3683  TIP3      H1             -2.0046500267      -24.5270332292       19.3833882360  SOLV      3672            0.0000000000
     11136      3683  TIP3      H2             -1.8477783017      -23.3840242075       20.3877869072  SOLV      3672            0.0000000000
     11137      3684  TIP3      OH2             3.0477638451      -17.8574681435       18.0036025571  SOLV      3673            0.0000000000
     11138      3684  TIP3      H1              2.9019153535      -17.0819850920       18.5714751656  SOLV      3673            0.0000000000
     11139      3684  TIP3      H2              2.8871904918      -18.6106752223       18.6089332998  SOLV      3673            0.0000000000
     11140      3685  TIP3      OH2            -0.8371763106      -18.7013666582       23.4833775162  SOLV      3674            0.0000000000
     11141      3685  TIP3      H1             -1.4484960194      -18.0853032159       23.9423781140  SOLV      3674            0.0000000000
     11142      3685  TIP3      H2             -1.4854785436      -19.2272557375       22.9678697536  SOLV      3674            0.0000000000
     11143      3686  TIP3      OH2             2.5231705768      -25.4303027225       10.7993838711  SOLV      3675            0.0000000000
     11144      3686  TIP3      H1              3.0931700046      -24.8032794062       11.3026700843  SOLV      3675            0.0000000000
     11145      3686  TIP3      H2              2.7736405212      -25.2035743502        9.8721218846  SOLV      3675            0.0000000000
     11146      3687  TIP3      OH2            -3.2746393826      -23.2092949586       24.6345500739  SOLV      3676            0.0000000000
     11147      3687  TIP3      H1             -3.2462877876      -22.2736212455       24.9287518599  SOLV      3676            0.0000000000
     11148      3687  TIP3      H2             -4.2426424546      -23.3326548022       24.5349654847  SOLV      3676            0.0000000000
     11149      3688  TIP3      OH2            -0.0377086787      -18.6023009067       13.5136477447  SOLV      3677            0.0000000000
     11150      3688  TIP3      H1              0.7745115000      -18.0726448408       13.5844471816  SOLV      3677            0.0000000000
     11151      3688  TIP3      H2             -0.6514965804      -17.9941457788       13.0800011524  SOLV      3677            0.0000000000
     11152      3689  TIP3      OH2            -2.8999995755      -17.0468201709       24.3575470417  SOLV      3678            0.0000000000
     11153      3689  TIP3      H1             -3.2727246487      -17.0348325310       23.4582123641  SOLV      3678            0.0000000000
     11154      3689  TIP3      H2             -3.6899144560      -17.2562271587       24.9111966977  SOLV      3678            0.0000000000
     11155      3690  TIP3      OH2            -4.9081936513      -25.5138293403       14.7212504411  SOLV      3679            0.0000000000
     11156      3690  TIP3      H1             -5.6374623953      -25.1274289102       14.1932381522  SOLV      3679            0.0000000000
     11157      3690  TIP3      H2             -5.2055808420      -26.4230414409       14.8383276347  SOLV      3679            0.0000000000
     11158      3691  TIP3      OH2             5.6570987145      -19.3002280831        6.7421496643  SOLV      3680            0.0000000000
     11159      3691  TIP3      H1              5.7311857838      -18.3302934064        6.6114726260  SOLV      3680            0.0000000000
     11160      3691  TIP3      H2              6.5884149069      -19.5804293711        6.6138580438  SOLV      3680            0.0000000000
     11161      3692  TIP3      OH2            -7.1309182484      -21.6309729876       23.8701476835  SOLV      3681            0.0000000000
     11162      3692  TIP3      H1             -7.7897989928      -21.8545644404       23.1813599281  SOLV      3681            0.0000000000
     11163      3692  TIP3      H2             -6.7520690499      -22.5108081080       24.0902867931  SOLV      3681            0.0000000000
     11164      3693  TIP3      OH2            -8.5458745847      -19.7730241813       20.0966707626  SOLV      3682            0.0000000000
     11165      3693  TIP3      H1             -7.5911160281      -19.8672404709       19.9780311637  SOLV      3682            0.0000000000
     11166      3693  TIP3      H2             -8.5954588872      -19.0051800205       20.6845228232  SOLV      3682            0.0000000000
     11167      3694  TIP3      OH2            10.0652316001      -15.1832297296       20.6882637068  SOLV      3683            0.0000000000
     11168      3694  TIP3      H1             10.0737212511      -16.1528484807       20.8165165983  SOLV      3683            0.0000000000
     11169      3694  TIP3      H2              9.2255223630      -14.9602987841       21.1521865448  SOLV      3683            0.0000000000
     11170      3695  TIP3      OH2             1.1203042741      -17.4034009447       22.0448083872  SOLV      3684            0.0000000000
     11171      3695  TIP3      H1              1.0697212905      -16.4732117258       22.3532236936  SOLV      3684            0.0000000000
     11172      3695  TIP3      H2              0.4028054298      -17.8126730199       22.5783741635  SOLV      3684            0.0000000000
     11173      3696  TIP3      OH2            -1.2053677607      -16.1275110160       11.5604337277  SOLV      3685            0.0000000000
     11174      3696  TIP3      H1             -1.7099228447      -16.3113894165       10.7481858562  SOLV      3685            0.0000000000
     11175      3696  TIP3      H2             -1.5575888524      -15.2619000786       11.8344354812  SOLV      3685            0.0000000000
     11176      3697  TIP3      OH2            -6.8654021689      -17.6552172804       15.4026461158  SOLV      3686            0.0000000000
     11177      3697  TIP3      H1             -6.4184722952      -17.7503908427       16.2741707654  SOLV      3686            0.0000000000
     11178      3697  TIP3      H2             -7.3568160589      -18.4906651792       15.3496016330  SOLV      3686            0.0000000000
     11179      3698  TIP3      OH2             0.7628556652      -17.0826732850        7.9207013984  SOLV      3687            0.0000000000
     11180      3698  TIP3      H1              1.3387911291      -17.7998203930        7.5757879942  SOLV      3687            0.0000000000
     11181      3698  TIP3      H2              1.1067927719      -16.9787447225        8.8334783169  SOLV      3687            0.0000000000
     11182      3699  TIP3      OH2             1.2941869649      -16.5986018504       10.6049443066  SOLV      3688            0.0000000000
     11183      3699  TIP3      H1              0.4070830016      -16.5052342925       11.0214638698  SOLV      3688            0.0000000000
     11184      3699  TIP3      H2              1.8011614771      -16.9873271410       11.3343897810  SOLV      3688            0.0000000000
     11185      3700  TIP3      OH2             9.0087834402      -23.9239005803       23.5243543495  SOLV      3689            0.0000000000
     11186      3700  TIP3      H1              8.1440848088      -23.8686916172       23.0902130481  SOLV      3689            0.0000000000
     11187      3700  TIP3      H2              9.1877349407      -24.8790006418       23.4647907938  SOLV      3689            0.0000000000
     11188      3701  TIP3      OH2            -5.0751110726      -19.8291195917       23.6144903022  SOLV      3690            0.0000000000
     11189      3701  TIP3      H1             -4.5572022511      -20.0128022563       24.4261809670  SOLV      3690            0.0000000000
     11190      3701  TIP3      H2             -5.8115281272      -20.4698846934       23.7041350528  SOLV      3690            0.0000000000
     11191      3702  TIP3      OH2             6.7795235220      -25.8295730317       22.8322729086  SOLV      3691            0.0000000000
     11192      3702  TIP3      H1              6.1759536223      -25.9312199788       23.6004613864  SOLV      3691            0.0000000000
     11193      3702  TIP3      H2              6.3909760074      -25.0659463810       22.3594185610  SOLV      3691            0.0000000000
     11194      3703  TIP3      OH2             3.2847079630      -25.0307755278        8.2252511967  SOLV      3692            0.0000000000
     11195      3703  TIP3      H1              2.8986169048      -25.1930900652        7.3431828785  SOLV      3692            0.0000000000
     11196      3703  TIP3      H2              4.0871755192      -24.5275961783        7.9887874059  SOLV      3692            0.0000000000
     11197      3704  TIP3      OH2            -1.7074948233      -26.4195894595       21.7173301741  SOLV      3693            0.0000000000
     11198      3704  TIP3      H1             -2.2620131261      -26.2524077221       22.5065195753  SOLV      3693            0.0000000000
     11199      3704  TIP3      H2             -1.9084472645      -25.6320506119       21.1740942607  SOLV      3693            0.0000000000
     11200      3705  TIP3      OH2            -2.8805091586      -27.5679896818       16.8215367567  SOLV      3694            0.0000000000
     11201      3705  TIP3      H1             -3.8282437622      -27.7775813159       16.9749968437  SOLV      3694            0.0000000000
     11202      3705  TIP3      H2             -2.7468951267      -27.9984796280       15.9505832055  SOLV      3694            0.0000000000
     11203      3706  TIP3      OH2             2.0837566971      -26.7222972719       14.1449092954  SOLV      3695            0.0000000000
     11204      3706  TIP3      H1              1.5447046784      -26.0186336499       13.7235229997  SOLV      3695            0.0000000000
     11205      3706  TIP3      H2              2.5459579231      -27.1143083788       13.3844597557  SOLV      3695            0.0000000000
     11206      3707  TIP3      OH2             3.8755304759      -23.8287044702       24.9315488239  SOLV      3696            0.0000000000
     11207      3707  TIP3      H1              3.5909947827      -24.4796382758       25.6086320136  SOLV      3696            0.0000000000
     11208      3707  TIP3      H2              4.8177091369      -23.7184642509       25.1796052751  SOLV      3696            0.0000000000
     11209      3708  TIP3      OH2             3.6715142218      -26.4875293858       16.4932022971  SOLV      3697            0.0000000000
     11210      3708  TIP3      H1              2.9650558291      -26.2328512133       15.8657973466  SOLV      3697            0.0000000000
     11211      3708  TIP3      H2              3.9328047035      -27.3347547678       16.0818426790  SOLV      3697            0.0000000000
     11212      3709  TIP3      OH2            -3.4715293831      -26.0035289715       23.7655204405  SOLV      3698            0.0000000000
     11213      3709  TIP3      H1             -3.2352216379      -25.3017502743       24.3902720638  SOLV      3698            0.0000000000
     11214      3709  TIP3      H2             -3.5928085707      -26.7722285158       24.3642472038  SOLV      3698            0.0000000000
     11215      3710  TIP3      OH2            -2.5611780685      -30.3971339699       11.0446234370  SOLV      3699            0.0000000000
     11216      3710  TIP3      H1             -2.7529086467      -30.6376329846       11.9649266135  SOLV      3699            0.0000000000
     11217      3710  TIP3      H2             -3.4636406829      -30.2197951283       10.7154222371  SOLV      3699            0.0000000000
     11218      3711  TIP3      OH2            -7.4522026233      -30.8683131333       19.2877438936  SOLV      3700            0.0000000000
     11219      3711  TIP3      H1             -7.0402732928      -30.4563200388       20.0683388439  SOLV      3700            0.0000000000
     11220      3711  TIP3      H2             -7.0031930539      -31.7118136173       19.2632895888  SOLV      3700            0.0000000000
     11221      3712  TIP3      OH2            -7.6346339471      -30.9627906615       15.0911046618  SOLV      3701            0.0000000000
     11222      3712  TIP3      H1             -7.4736022225      -30.5297329093       14.2222971886  SOLV      3701            0.0000000000
     11223      3712  TIP3      H2             -8.4077002340      -30.4437273564       15.3679178364  SOLV      3701            0.0000000000
     11224      3713  TIP3      OH2             3.6630090175      -24.0053921729       20.7150542842  SOLV      3702            0.0000000000
     11225      3713  TIP3      H1              3.9778031566      -24.7284889361       20.1237296990  SOLV      3702            0.0000000000
     11226      3713  TIP3      H2              3.3535105213      -24.5380691526       21.4806507542  SOLV      3702            0.0000000000
     11227      3714  TIP3      OH2             0.4739843586      -29.2729431184       17.1870763732  SOLV      3703            0.0000000000
     11228      3714  TIP3      H1             -0.3890646819      -29.5494130703       17.5195962458  SOLV      3703            0.0000000000
     11229      3714  TIP3      H2              0.9398060000      -29.3957165024       18.0327977012  SOLV      3703            0.0000000000
     11230      3715  TIP3      OH2            -5.4138552417      -28.5126160603       17.3281348434  SOLV      3704            0.0000000000
     11231      3715  TIP3      H1             -6.3828015542      -28.4565737084       17.1276608113  SOLV      3704            0.0000000000
     11232      3715  TIP3      H2             -5.3054631234      -29.4536374728       17.5039288989  SOLV      3704            0.0000000000
     11233      3716  TIP3      OH2            -2.5913756454      -28.9033257189       14.4477075929  SOLV      3705            0.0000000000
     11234      3716  TIP3      H1             -1.6459917046      -28.6922023324       14.2743530223  SOLV      3705            0.0000000000
     11235      3716  TIP3      H2             -3.0567049866      -28.5254014809       13.6668445364  SOLV      3705            0.0000000000
     11236      3717  TIP3      OH2            -4.1613101381      -28.1598276433       12.3249202265  SOLV      3706            0.0000000000
     11237      3717  TIP3      H1             -4.8263289137      -28.6703755381       11.8261806690  SOLV      3706            0.0000000000
     11238      3717  TIP3      H2             -3.5669773000      -27.9225516145       11.5811655701  SOLV      3706            0.0000000000
     11239      3718  TIP3      OH2             7.0297449117      -11.7484704707       21.7069695197  SOLV      3707            0.0000000000
     11240      3718  TIP3      H1              6.9851522873      -11.5084318720       20.7634050804  SOLV      3707            0.0000000000
     11241      3718  TIP3      H2              7.8090089782      -11.2437903424       22.0042222867  SOLV      3707            0.0000000000
     11242      3719  TIP3      OH2            -3.4284744000      -20.6861270997       25.7617229733  SOLV      3708            0.0000000000
     11243      3719  TIP3      H1             -2.6665121697      -20.3477904589       26.2734385157  SOLV      3708            0.0000000000
     11244      3719  TIP3      H2             -4.1075424932      -20.7144373999       26.4812935350  SOLV      3708            0.0000000000
     11245      3720  TIP3      OH2             1.1645471660      -25.9748557993       18.3888046001  SOLV      3709            0.0000000000
     11246      3720  TIP3      H1              1.5506880257      -26.7888358556       18.0424082557  SOLV      3709            0.0000000000
     11247      3720  TIP3      H2              1.1091206413      -26.1908678535       19.3519053519  SOLV      3709            0.0000000000
     11248      3721  TIP3      OH2             1.0319876974      -26.3551941198       21.0735709967  SOLV      3710            0.0000000000
     11249      3721  TIP3      H1              0.1309408974      -26.5362890788       21.3970297449  SOLV      3710            0.0000000000
     11250      3721  TIP3      H2              1.5138930085      -26.0995116401       21.8869315163  SOLV      3710            0.0000000000
     11251      3722  TIP3      OH2            -1.6829846918      -23.2608721972       12.2817633584  SOLV      3711            0.0000000000
     11252      3722  TIP3      H1             -2.4192825109      -23.9000272167       12.1567929237  SOLV      3711            0.0000000000
     11253      3722  TIP3      H2             -1.8921824820      -22.9146439312       13.1841868590  SOLV      3711            0.0000000000
     11254      3723  TIP3      OH2             7.2674458487      -20.8709284250       18.5351293777  SOLV      3712            0.0000000000
     11255      3723  TIP3      H1              7.5016094729      -20.3747761469       17.7233487566  SOLV      3712            0.0000000000
     11256      3723  TIP3      H2              6.4227641545      -21.3030111513       18.2783963706  SOLV      3712            0.0000000000
     11257      3724  TIP3      OH2             2.7731725061      -29.7441208287       10.2249682553  SOLV      3713            0.0000000000
     11258      3724  TIP3      H1              2.2155994440      -30.3324821396       10.7485732786  SOLV      3713            0.0000000000
     11259      3724  TIP3      H2              3.0463260410      -29.0838359955       10.8987717107  SOLV      3713            0.0000000000
     11260      3725  TIP3      OH2             2.3587238979      -19.9998286343       22.2377175681  SOLV      3714            0.0000000000
     11261      3725  TIP3      H1              2.5292881069      -20.2574781877       23.1511386167  SOLV      3714            0.0000000000
     11262      3725  TIP3      H2              1.9211223874      -19.1369420854       22.3286840902  SOLV      3714            0.0000000000
     11263      3726  TIP3      OH2             3.6379469442      -27.7225324842       11.9002717923  SOLV      3715            0.0000000000
     11264      3726  TIP3      H1              4.5714229985      -27.5457560270       12.1282142055  SOLV      3715            0.0000000000
     11265      3726  TIP3      H2              3.3678458061      -26.8932934158       11.4563862763  SOLV      3715            0.0000000000
     11266      3727  TIP3      OH2            -4.7427134179      -22.9651395765       18.9691680189  SOLV      3716            0.0000000000
     11267      3727  TIP3      H1             -4.3683490182      -23.2619915048       18.1140672449  SOLV      3716            0.0000000000
     11268      3727  TIP3      H2             -4.2735185081      -23.5419748061       19.5906798741  SOLV      3716            0.0000000000
     11269      3728  TIP3      OH2            -0.2359647215      -21.7454887006       10.5272862658  SOLV      3717            0.0000000000
     11270      3728  TIP3      H1             -0.7258352309      -20.8908847920       10.5708157418  SOLV      3717            0.0000000000
     11271      3728  TIP3      H2             -0.7822037403      -22.3074060130       11.1205722252  SOLV      3717            0.0000000000
     11272      3729  TIP3      OH2            -5.9611847466      -23.8296391684       25.0273692801  SOLV      3718            0.0000000000
     11273      3729  TIP3      H1             -5.6607512701      -23.9869073483       25.9440309726  SOLV      3718            0.0000000000
     11274      3729  TIP3      H2             -6.7257549154      -24.4289337497       24.9447711456  SOLV      3718            0.0000000000
     11275      3730  TIP3      OH2             1.3601830381      -22.5998120833       25.3200952640  SOLV      3719            0.0000000000
     11276      3730  TIP3      H1              0.7197454007      -23.1560824828       24.8397051013  SOLV      3719            0.0000000000
     11277      3730  TIP3      H2              2.2066085810      -22.9501740962       24.9786447437  SOLV      3719            0.0000000000
     11278      3731  TIP3      OH2             3.8968257114      -17.3777435484       21.2115326505  SOLV      3720            0.0000000000
     11279      3731  TIP3      H1              2.9364750487      -17.4587607512       21.3424772613  SOLV      3720            0.0000000000
     11280      3731  TIP3      H2              4.1488357399      -16.8779804758       22.0152856943  SOLV      3720            0.0000000000
     11281      3732  TIP3      OH2             7.9849043492      -26.7653653737       10.3451254709  SOLV      3721            0.0000000000
     11282      3732  TIP3      H1              7.4537150786      -27.2007272692        9.6416420890  SOLV      3721            0.0000000000
     11283      3732  TIP3      H2              7.9806584610      -25.8622846571        9.9627349815  SOLV      3721            0.0000000000
     11284      3733  TIP3      OH2            10.2002408145      -18.0455778975       21.0587451135  SOLV      3722            0.0000000000
     11285      3733  TIP3      H1              9.2255878958      -18.1538732129       20.9850895824  SOLV      3722            0.0000000000
     11286      3733  TIP3      H2             10.4699040628      -18.3902561487       20.1769953166  SOLV      3722            0.0000000000
     11287      3734  TIP3      OH2             5.0443165233      -18.5318383313        9.4214452773  SOLV      3723            0.0000000000
     11288      3734  TIP3      H1              4.7321172015      -19.1993860321       10.0486312107  SOLV      3723            0.0000000000
     11289      3734  TIP3      H2              5.1378038070      -19.0309247409        8.5912288050  SOLV      3723            0.0000000000
     11290      3735  TIP3      OH2             4.9399353535      -22.2446885173       17.6978342673  SOLV      3724            0.0000000000
     11291      3735  TIP3      H1              4.0117758766      -22.5158152963       17.8427278972  SOLV      3724            0.0000000000
     11292      3735  TIP3      H2              5.2878349849      -23.0514561379       17.2647727766  SOLV      3724            0.0000000000
     11293      3736  TIP3      OH2            -3.7340969953      -19.9433941689       15.3265486371  SOLV      3725            0.0000000000
     11294      3736  TIP3      H1             -3.7773242153      -19.1416062498       14.7714378346  SOLV      3725            0.0000000000
     11295      3736  TIP3      H2             -4.6672451242      -20.1624541693       15.4173652985  SOLV      3725            0.0000000000
     11296      3737  TIP3      OH2            -8.0909094420      -26.9251871617       12.3582411589  SOLV      3726            0.0000000000
     11297      3737  TIP3      H1             -7.6421951886      -26.0813955766       12.5800278755  SOLV      3726            0.0000000000
     11298      3737  TIP3      H2             -8.8691660537      -26.8812548586       12.9570906076  SOLV      3726            0.0000000000
     11299      3738  TIP3      OH2            -2.4414314994      -22.3190309208       14.7016284310  SOLV      3727            0.0000000000
     11300      3738  TIP3      H1             -2.7709233776      -21.4259157939       14.9227502633  SOLV      3727            0.0000000000
     11301      3738  TIP3      H2             -2.7853644581      -22.8428426257       15.4502911113  SOLV      3727            0.0000000000
     11302      3739  TIP3      OH2            -1.0240805082      -16.5594794496       19.9773146027  SOLV      3728            0.0000000000
     11303      3739  TIP3      H1             -0.6159839307      -15.8313481124       19.4658509483  SOLV      3728            0.0000000000
     11304      3739  TIP3      H2             -0.2496499993      -16.9284907029       20.4307705216  SOLV      3728            0.0000000000
     11305      3740  TIP3      OH2            -4.5687338315      -17.5877531248       13.8221029423  SOLV      3729            0.0000000000
     11306      3740  TIP3      H1             -5.4305542538      -17.4941246427       14.2746025987  SOLV      3729            0.0000000000
     11307      3740  TIP3      H2             -4.2411724609      -16.6605001400       13.8547384381  SOLV      3729            0.0000000000
     11308      3741  TIP3      OH2             2.8039373477      -20.1673688875       19.5583679503  SOLV      3730            0.0000000000
     11309      3741  TIP3      H1              2.7103583043      -20.1778284130       20.5388360237  SOLV      3730            0.0000000000
     11310      3741  TIP3      H2              3.5337095343      -20.7881796640       19.4295661235  SOLV      3730            0.0000000000
     11311      3742  TIP3      OH2             2.5971209709      -21.2265927740        8.4068535862  SOLV      3731            0.0000000000
     11312      3742  TIP3      H1              3.1355945153      -21.4856932721        9.1924836880  SOLV      3731            0.0000000000
     11313      3742  TIP3      H2              1.7200669577      -21.5328145946        8.6862693521  SOLV      3731            0.0000000000
     11314      3743  TIP3      OH2             5.3135651634      -14.8869049608       20.0884290172  SOLV      3732            0.0000000000
     11315      3743  TIP3      H1              4.5282520627      -15.4678728291       20.0598619221  SOLV      3732            0.0000000000
     11316      3743  TIP3      H2              5.1179350807      -14.2653831005       19.3530144087  SOLV      3732            0.0000000000
     11317      3744  TIP3      OH2             5.9560254516      -16.5317234665        6.5909213620  SOLV      3733            0.0000000000
     11318      3744  TIP3      H1              6.3334748105      -15.7733568843        6.1137984190  SOLV      3733            0.0000000000
     11319      3744  TIP3      H2              5.1467979289      -16.1039746552        6.9411322340  SOLV      3733            0.0000000000
     11320      3745  TIP3      OH2            -3.6810477317      -28.1577053319       25.4438635168  SOLV      3734            0.0000000000
     11321      3745  TIP3      H1             -4.5544838804      -28.5494417912       25.2343542886  SOLV      3734            0.0000000000
     11322      3745  TIP3      H2             -3.3285474969      -28.8926038679       25.9473540763  SOLV      3734            0.0000000000
     11323      3746  TIP3      OH2             4.2169500898      -21.9792608045       10.4824336257  SOLV      3735            0.0000000000
     11324      3746  TIP3      H1              4.1018891933      -22.6013702004       11.2287220036  SOLV      3735            0.0000000000
     11325      3746  TIP3      H2              5.1928184914      -21.9810115253       10.4054121707  SOLV      3735            0.0000000000
     11326      3747  TIP3      OH2            -6.6759324108      -17.9291736175       21.5692328210  SOLV      3736            0.0000000000
     11327      3747  TIP3      H1             -6.1502738881      -18.6699589805       21.9133739663  SOLV      3736            0.0000000000
     11328      3747  TIP3      H2             -6.3577747868      -17.2054889493       22.1224518709  SOLV      3736            0.0000000000
     11329      3748  TIP3      OH2            -3.7740978999      -21.4750985148        8.4081159139  SOLV      3737            0.0000000000
     11330      3748  TIP3      H1             -3.6722236067      -22.4121504764        8.1562217882  SOLV      3737            0.0000000000
     11331      3748  TIP3      H2             -3.9977308734      -21.5567887079        9.3575833154  SOLV      3737            0.0000000000
     11332      3749  TIP3      OH2            -4.3569974461      -21.4084497333       11.1109956050  SOLV      3738            0.0000000000
     11333      3749  TIP3      H1             -3.6354045593      -21.6987260391       11.6834736989  SOLV      3738            0.0000000000
     11334      3749  TIP3      H2             -4.3192014009      -20.4303852264       11.2170900191  SOLV      3738            0.0000000000
     11335      3750  TIP3      OH2            -7.0275868878      -24.5036693193       13.1811428965  SOLV      3739            0.0000000000
     11336      3750  TIP3      H1             -7.6926922463      -24.0477430400       13.7398776548  SOLV      3739            0.0000000000
     11337      3750  TIP3      H2             -6.8809274396      -23.8196348550       12.5001574713  SOLV      3739            0.0000000000
     11338      3751  TIP3      OH2            -8.1264848246       34.6750899928        9.7998435156  SOLV      3740            0.0000000000
     11339      3751  TIP3      H1             -7.2312448726       34.3726471985        9.6166236261  SOLV      3740            0.0000000000
     11340      3751  TIP3      H2             -8.6359374243       33.8632362619        9.7227992632  SOLV      3740            0.0000000000
     11341      3752  TIP3      OH2             3.3056073449      -30.4222394033       13.3268349900  SOLV      3741            0.0000000000
     11342      3752  TIP3      H1              3.7858394530      -30.0378760469       12.5869364002  SOLV      3741            0.0000000000
     11343      3752  TIP3      H2              3.5478741459      -29.8069049295       14.0384734774  SOLV      3741            0.0000000000
     11344      3753  TIP3      OH2            -1.6450826863      -19.4345166126       10.6047119479  SOLV      3742            0.0000000000
     11345      3753  TIP3      H1             -2.5234421080      -19.2105099998       10.9712078375  SOLV      3742            0.0000000000
     11346      3753  TIP3      H2             -1.5069609892      -18.6723849964       10.0235367953  SOLV      3742            0.0000000000
     11347      3754  TIP3      OH2             0.1178173724      -28.6739685916       14.5507399268  SOLV      3743            0.0000000000
     11348      3754  TIP3      H1              0.8222952680      -28.0104388011       14.4218055564  SOLV      3743            0.0000000000
     11349      3754  TIP3      H2              0.2781457926      -28.9058378378       15.4951823889  SOLV      3743            0.0000000000
     11350      3755  TIP3      OH2             3.0159757565      -25.5379289691       22.8816341003  SOLV      3744            0.0000000000
     11351      3755  TIP3      H1              3.3732727624      -25.0530298135       23.6480568487  SOLV      3744            0.0000000000
     11352      3755  TIP3      H2              3.5468446581      -26.3641005269       22.8578880928  SOLV      3744            0.0000000000
     11353      3756  TIP3      OH2            -4.1862741891      -18.6887629992       11.3194145329  SOLV      3745            0.0000000000
     11354      3756  TIP3      H1             -4.4811734841      -17.9861452657       10.6972456093  SOLV      3745            0.0000000000
     11355      3756  TIP3      H2             -4.3574411249      -18.2596741744       12.1865975882  SOLV      3745            0.0000000000
     11356      3757  TIP3      OH2            -3.4326527171      -31.3486703033       13.5519082693  SOLV      3746            0.0000000000
     11357      3757  TIP3      H1             -3.1527814726      -30.5528807104       14.0597509114  SOLV      3746            0.0000000000
     11358      3757  TIP3      H2             -2.7692799456      -32.0196799873       13.8167119741  SOLV      3746            0.0000000000
     11359      3758  TIP3      OH2             9.3154268157      -26.7378391587       22.4835370946  SOLV      3747            0.0000000000
     11360      3758  TIP3      H1              8.3835597910      -26.4245697663       22.4814370053  SOLV      3747            0.0000000000
     11361      3758  TIP3      H2              9.5034434213      -26.8146766934       21.5365016992  SOLV      3747            0.0000000000
     11362      3759  TIP3      OH2             5.7993278491      -24.6620202666       16.5115836660  SOLV      3748            0.0000000000
     11363      3759  TIP3      H1              5.0320474249      -25.2627196065       16.6044101122  SOLV      3748            0.0000000000
     11364      3759  TIP3      H2              6.4936115950      -25.1542832958       17.0013343193  SOLV      3748            0.0000000000
     11365      3760  TIP3      OH2            -7.0223360069      -22.4623050737       11.2086471479  SOLV      3749            0.0000000000
     11366      3760  TIP3      H1             -6.3054465896      -21.8043588974       11.2779996061  SOLV      3749            0.0000000000
     11367      3760  TIP3      H2             -6.6129973040      -23.0601500032       10.5453351570  SOLV      3749            0.0000000000
     11368      3761  TIP3      OH2            -7.6456052721      -29.6149639411       12.7230199909  SOLV      3750            0.0000000000
     11369      3761  TIP3      H1             -7.5689261996      -28.6380087989       12.7232981155  SOLV      3750            0.0000000000
     11370      3761  TIP3      H2             -8.3265286229      -29.7371099741       12.0600754526  SOLV      3750            0.0000000000
     11371      3762  TIP3      OH2             5.5196714405      -15.0809638471       15.9836277744  SOLV      3751            0.0000000000
     11372      3762  TIP3      H1              5.0887087813      -14.6112790138       15.2338668965  SOLV      3751            0.0000000000
     11373      3762  TIP3      H2              6.4644897606      -14.9103805780       15.7722919377  SOLV      3751            0.0000000000
     11374      3763  TIP3      OH2            -8.3811354948      -20.2231095261       15.0455500913  SOLV      3752            0.0000000000
     11375      3763  TIP3      H1             -9.0134304603      -19.9436909984       15.7182500921  SOLV      3752            0.0000000000
     11376      3763  TIP3      H2             -8.7335403125      -19.7809003726       14.2433281065  SOLV      3752            0.0000000000
     11377      3764  TIP3      OH2            -6.7169191039      -14.7590720135       25.8032743692  SOLV      3753            0.0000000000
     11378      3764  TIP3      H1             -5.8493328848      -14.7480412535       26.2647375471  SOLV      3753            0.0000000000
     11379      3764  TIP3      H2             -6.8812836948      -15.7175576468       25.7623235422  SOLV      3753            0.0000000000
     11380      3765  TIP3      OH2            -1.9173959588      -15.2052132073       26.1632047085  SOLV      3754            0.0000000000
     11381      3765  TIP3      H1             -0.9977727940      -15.4989778157       26.1954368215  SOLV      3754            0.0000000000
     11382      3765  TIP3      H2             -2.2717674781      -15.8316755783       25.4977261592  SOLV      3754            0.0000000000
     11383      3766  TIP3      OH2            -2.1653434537      -19.4607917997        7.4806102672  SOLV      3755            0.0000000000
     11384      3766  TIP3      H1             -2.7236874675      -20.1652446492        7.8877938044  SOLV      3755            0.0000000000
     11385      3766  TIP3      H2             -1.4043732818      -19.9872999660        7.1838036476  SOLV      3755            0.0000000000
     11386      3767  TIP3      OH2             4.3854022629      -16.0786871717       23.6039591250  SOLV      3756            0.0000000000
     11387      3767  TIP3      H1              4.3629595463      -16.8022176485       24.2729172344  SOLV      3756            0.0000000000
     11388      3767  TIP3      H2              5.1799908227      -15.5794683185       23.8735301186  SOLV      3756            0.0000000000
     11389      3768  TIP3      OH2             2.2057214762      -19.0736337035        6.6696305860  SOLV      3757            0.0000000000
     11390      3768  TIP3      H1              2.5630624680      -19.7443972017        7.2870918423  SOLV      3757            0.0000000000
     11391      3768  TIP3      H2              2.8130252170      -19.1327907167        5.9107220254  SOLV      3757            0.0000000000
     11392      3769  TIP3      OH2            -5.4582015255      -20.8402987790       27.5424807951  SOLV      3758            0.0000000000
     11393      3769  TIP3      H1             -5.7538002943      -21.4263074582       28.2379239632  SOLV      3758            0.0000000000
     11394      3769  TIP3      H2             -6.3107026256      -20.5622283455       27.1530841062  SOLV      3758            0.0000000000
     11395      3770  TIP3      OH2            -5.6613320566      -24.3340535839        9.7672337117  SOLV      3759            0.0000000000
     11396      3770  TIP3      H1             -5.0992998585      -24.6289743588       10.5079458093  SOLV      3759            0.0000000000
     11397      3770  TIP3      H2             -4.9857727206      -24.2680765647        9.0574726421  SOLV      3759            0.0000000000
     11398      3771  TIP3      OH2             0.6574033537      -19.8741247545       25.4983320918  SOLV      3760            0.0000000000
     11399      3771  TIP3      H1              0.1883728823      -19.6944645784       24.6584645861  SOLV      3760            0.0000000000
     11400      3771  TIP3      H2              0.9445185632      -20.8076955663       25.3910425749  SOLV      3760            0.0000000000
     11401      3772  TIP3      OH2            -0.4552372101      -22.2548027312        7.8303479011  SOLV      3761            0.0000000000
     11402      3772  TIP3      H1             -0.4970143288      -22.1326235053        8.8008091689  SOLV      3761            0.0000000000
     11403      3772  TIP3      H2             -0.4810142398      -23.2362728677        7.7731397166  SOLV      3761            0.0000000000
     11404      3773  TIP3      OH2             5.5417465125      -19.7605798661       21.6355809328  SOLV      3762            0.0000000000
     11405      3773  TIP3      H1              6.2716333024      -19.3117392082       21.1703436255  SOLV      3762            0.0000000000
     11406      3773  TIP3      H2              4.8065893178      -19.1434532858       21.4709624685  SOLV      3762            0.0000000000
     11407      3774  TIP3      OH2            -4.3660103736      -24.0249149500       27.3415890067  SOLV      3763            0.0000000000
     11408      3774  TIP3      H1             -3.5445542304      -24.0505777757       26.8286522462  SOLV      3763            0.0000000000
     11409      3774  TIP3      H2             -4.1536595095      -23.3033868727       27.9674815174  SOLV      3763            0.0000000000
     11410      3775  TIP3      OH2            -3.6705941905      -25.1477092441       11.9255036464  SOLV      3764            0.0000000000
     11411      3775  TIP3      H1             -3.9472015809      -25.5811295739       12.7510524395  SOLV      3764            0.0000000000
     11412      3775  TIP3      H2             -3.2808853188      -25.9003923628       11.4309539958  SOLV      3764            0.0000000000
     11413      3776  TIP3      OH2            -0.8291135951      -24.4011371530       24.4251133237  SOLV      3765            0.0000000000
     11414      3776  TIP3      H1             -1.6703434906      -23.8974615435       24.3807580217  SOLV      3765            0.0000000000
     11415      3776  TIP3      H2             -0.4255744701      -24.1871046212       23.5474948345  SOLV      3765            0.0000000000
     11416      3777  TIP3      OH2            -2.5814351344      -27.1450382196       10.3414295638  SOLV      3766            0.0000000000
     11417      3777  TIP3      H1             -2.8376135024      -27.1387580768        9.3977350622  SOLV      3766            0.0000000000
     11418      3777  TIP3      H2             -1.6056915216      -27.1669577642       10.2697118588  SOLV      3766            0.0000000000
     11419      3778  TIP3      OH2             4.3141986689      -20.5382051072       25.5581356879  SOLV      3767            0.0000000000
     11420      3778  TIP3      H1              4.9938475894      -20.9473151124       25.0134228321  SOLV      3767            0.0000000000
     11421      3778  TIP3      H2              4.1738687119      -21.2087170424       26.2489493080  SOLV      3767            0.0000000000
     11422      3779  TIP3      OH2             5.6012698167      -24.0049998192        7.0272385642  SOLV      3768            0.0000000000
     11423      3779  TIP3      H1              5.3658319930      -24.4196296299        6.1753746024  SOLV      3768            0.0000000000
     11424      3779  TIP3      H2              5.2841035774      -23.0896774817        6.8422817846  SOLV      3768            0.0000000000
     11425      3780  TIP3      OH2             0.3926148273      -26.3177654724       25.8296212908  SOLV      3769            0.0000000000
     11426      3780  TIP3      H1              0.3175600545      -27.0090814898       25.0814463404  SOLV      3769            0.0000000000
     11427      3780  TIP3      H2             -0.0487562296      -25.5920633889       25.3429891507  SOLV      3769            0.0000000000
     11428      3781  TIP3      OH2             0.0661187164      -27.9058317896       23.6780017596  SOLV      3770            0.0000000000
     11429      3781  TIP3      H1              0.5274003268      -28.1423518495       22.8403128009  SOLV      3770            0.0000000000
     11430      3781  TIP3      H2             -0.8365374806      -28.2578436017       23.4597541548  SOLV      3770            0.0000000000
     11431      3782  TIP3      OH2             0.5881199244      -23.3983572308       22.3799677141  SOLV      3771            0.0000000000
     11432      3782  TIP3      H1              1.3706719393      -23.4855632068       21.8260087745  SOLV      3771            0.0000000000
     11433      3782  TIP3      H2              0.0238368165      -22.7923391802       21.8535060687  SOLV      3771            0.0000000000
     11434      3783  TIP3      OH2             6.4118202258      -23.7317366632       26.0331868942  SOLV      3772            0.0000000000
     11435      3783  TIP3      H1              6.7609031143      -24.4807565770       26.5561905971  SOLV      3772            0.0000000000
     11436      3783  TIP3      H2              7.2225685499      -23.3679154175       25.6476771203  SOLV      3772            0.0000000000
     11437      3784  TIP3      OH2             6.8079098386      -21.2129673313       23.5012403059  SOLV      3773            0.0000000000
     11438      3784  TIP3      H1              6.2373395272      -20.6532579186       22.9209822536  SOLV      3773            0.0000000000
     11439      3784  TIP3      H2              7.6823051759      -21.0276067197       23.0920595405  SOLV      3773            0.0000000000
     11440      3785  TIP3      OH2            -1.5776045774      -25.4011153374       27.6882446239  SOLV      3774            0.0000000000
     11441      3785  TIP3      H1             -1.9271641305      -26.2714433785       27.5162120670  SOLV      3774            0.0000000000
     11442      3785  TIP3      H2             -0.7548167917      -25.4148008344       27.2097666318  SOLV      3774            0.0000000000
     11443      3786  TIP3      OH2             3.0320431580      -25.9413517028       26.4014199558  SOLV      3775            0.0000000000
     11444      3786  TIP3      H1              3.0220293526      -26.5034856221       27.1863704566  SOLV      3775            0.0000000000
     11445      3786  TIP3      H2              2.0934208180      -25.9717534373       26.1525251937  SOLV      3775            0.0000000000
     11446      3787  TIP3      OH2             5.4495971262      -26.7062230124       25.1398972326  SOLV      3776            0.0000000000
     11447      3787  TIP3      H1              4.5655276629      -26.4654567323       25.4778330234  SOLV      3776            0.0000000000
     11448      3787  TIP3      H2              5.7370676698      -27.3157978104       25.8468586992  SOLV      3776            0.0000000000
     11449      3788  TIP3      OH2            -4.4799671221      -16.6594338541        9.4469737231  SOLV      3777            0.0000000000
     11450      3788  TIP3      H1             -3.5363866905      -16.7471887813        9.2199532733  SOLV      3777            0.0000000000
     11451      3788  TIP3      H2             -4.7851409218      -16.1384856066        8.6803136014  SOLV      3777            0.0000000000
     11452      3789  TIP3      OH2            -9.7235874749      -22.8330691292       11.5417872187  SOLV      3778            0.0000000000
     11453      3789  TIP3      H1             -8.7694855465      -22.6301299546       11.4165933616  SOLV      3778            0.0000000000
     11454      3789  TIP3      H2             -9.7868907030      -23.7167970947       11.1204902336  SOLV      3778            0.0000000000
     11455      3790  TIP3      OH2           -10.5680207136      -16.7372193484       15.7699852223  SOLV      3779            0.0000000000
     11456      3790  TIP3      H1            -11.2196915245      -17.3469686204       15.3594495283  SOLV      3779            0.0000000000
     11457      3790  TIP3      H2            -10.1149490077      -17.3479054079       16.3898775425  SOLV      3779            0.0000000000
     11458      3791  TIP3      OH2            -9.2212761883      -18.2968088058       17.6049167421  SOLV      3780            0.0000000000
     11459      3791  TIP3      H1             -9.3429757215      -18.9867158181       18.2789746883  SOLV      3780            0.0000000000
     11460      3791  TIP3      H2             -8.6862385866      -17.6580148098       18.1084092404  SOLV      3780            0.0000000000
     11461      3792  TIP3      OH2             8.1071753606      -14.2799703069       15.6213748308  SOLV      3781            0.0000000000
     11462      3792  TIP3      H1              8.3499970072      -13.9348418021       16.4987287773  SOLV      3781            0.0000000000
     11463      3792  TIP3      H2              8.7188645224      -13.8097288477       15.0352281669  SOLV      3781            0.0000000000
     11464      3793  TIP3      OH2             8.3687277391      -14.0353724494       18.4513735999  SOLV      3782            0.0000000000
     11465      3793  TIP3      H1              7.8762204083      -14.8811651184       18.3731121965  SOLV      3782            0.0000000000
     11466      3793  TIP3      H2              9.0704604274      -14.3198108343       19.0587032875  SOLV      3782            0.0000000000
     11467      3794  TIP3      OH2             8.8424813744      -17.2426447840       24.1683308384  SOLV      3783            0.0000000000
     11468      3794  TIP3      H1              8.1117585084      -17.1484384997       24.8110124808  SOLV      3783            0.0000000000
     11469      3794  TIP3      H2              9.2570422513      -16.3580261643       24.2105688942  SOLV      3783            0.0000000000
     11470      3795  TIP3      OH2             7.0154564025      -22.1425274997       10.3111937579  SOLV      3784            0.0000000000
     11471      3795  TIP3      H1              7.6691219871      -21.4702832145       10.0349881613  SOLV      3784            0.0000000000
     11472      3795  TIP3      H2              7.4470734483      -22.5075365680       11.1156819726  SOLV      3784            0.0000000000
     11473      3796  TIP3      OH2             8.2687126356      -23.4179546184       12.3841494876  SOLV      3785            0.0000000000
     11474      3796  TIP3      H1              7.5926964729      -23.8200399379       12.9751701690  SOLV      3785            0.0000000000
     11475      3796  TIP3      H2              8.9239242885      -23.0684667160       13.0237525474  SOLV      3785            0.0000000000
     11476      3797  TIP3      OH2             8.8503260487      -19.4851808982       16.7063630026  SOLV      3786            0.0000000000
     11477      3797  TIP3      H1              9.3720743302      -20.1774132667       16.2548057888  SOLV      3786            0.0000000000
     11478      3797  TIP3      H2              8.7894705025      -18.7898901238       16.0234078735  SOLV      3786            0.0000000000
     11479      3798  TIP3      OH2             7.0847608781      -16.5119740894       18.6229494066  SOLV      3787            0.0000000000
     11480      3798  TIP3      H1              6.3620775615      -16.1072019052       19.1395501555  SOLV      3787            0.0000000000
     11481      3798  TIP3      H2              6.5914011875      -16.9778071327       17.9125943548  SOLV      3787            0.0000000000
     11482      3799  TIP3      OH2             7.6331291751      -24.3826656870        8.8299168750  SOLV      3788            0.0000000000
     11483      3799  TIP3      H1              6.9044036275      -24.3459096850        8.1693232853  SOLV      3788            0.0000000000
     11484      3799  TIP3      H2              7.3783599777      -23.6196283585        9.3899582103  SOLV      3788            0.0000000000
     11485      3800  TIP3      OH2             6.4901903815      -27.6015272876        8.1992386766  SOLV      3789            0.0000000000
     11486      3800  TIP3      H1              5.8901354289      -27.1282640841        7.6119303238  SOLV      3789            0.0000000000
     11487      3800  TIP3      H2              6.0948284972      -28.4967359984        8.2167437267  SOLV      3789            0.0000000000
     11488      3801  TIP3      OH2             6.3724165989      -24.7784208331       13.8190251791  SOLV      3790            0.0000000000
     11489      3801  TIP3      H1              6.3893468035      -25.7470466033       13.7186763812  SOLV      3790            0.0000000000
     11490      3801  TIP3      H2              6.2100261497      -24.6722895011       14.7832007443  SOLV      3790            0.0000000000
     11491      3802  TIP3      OH2            -7.3847917875      -24.1164579237       21.3167898587  SOLV      3791            0.0000000000
     11492      3802  TIP3      H1             -7.4031598079      -24.4935252445       20.4108002412  SOLV      3791            0.0000000000
     11493      3802  TIP3      H2             -6.4110903251      -24.1012846632       21.4824928764  SOLV      3791            0.0000000000
     11494      3803  TIP3      OH2             9.2300890081      -20.5443029679       22.4115122424  SOLV      3792            0.0000000000
     11495      3803  TIP3      H1              9.9379565820      -21.2165218114       22.2793814792  SOLV      3792            0.0000000000
     11496      3803  TIP3      H2              9.4268766487      -19.9037331622       21.7137259597  SOLV      3792            0.0000000000
     11497      3804  TIP3      OH2            11.0409757209      -22.4908138187       22.4545183987  SOLV      3793            0.0000000000
     11498      3804  TIP3      H1             10.2984366077      -22.9765425055       22.8750384142  SOLV      3793            0.0000000000
     11499      3804  TIP3      H2             11.7277055455      -23.1838610904       22.5314113039  SOLV      3793            0.0000000000
     11500      3805  TIP3      OH2             5.5632022282      -30.1476594377        8.8435839847  SOLV      3794            0.0000000000
     11501      3805  TIP3      H1              5.7406402409      -30.0584861077        9.7906089747  SOLV      3794            0.0000000000
     11502      3805  TIP3      H2              4.6461194715      -30.4673202454        8.8779890624  SOLV      3794            0.0000000000
     11503      3806  TIP3      OH2             6.3208541946      -27.4865637006       12.7806772473  SOLV      3795            0.0000000000
     11504      3806  TIP3      H1              6.4449955989      -28.4506126455       12.7108095292  SOLV      3795            0.0000000000
     11505      3806  TIP3      H2              6.9478308847      -27.1778607547       12.0982001317  SOLV      3795            0.0000000000
     11506      3807  TIP3      OH2             7.9034467625      -25.9890160812       17.7158889405  SOLV      3796            0.0000000000
     11507      3807  TIP3      H1              8.7711339463      -25.7486393063       17.3194882247  SOLV      3796            0.0000000000
     11508      3807  TIP3      H2              8.0057135237      -25.5873972830       18.5988543093  SOLV      3796            0.0000000000
     11509      3808  TIP3      OH2             8.4423571355      -24.3907306284       20.0322354317  SOLV      3797            0.0000000000
     11510      3808  TIP3      H1              7.6588533045      -24.0121580121       20.4799259754  SOLV      3797            0.0000000000
     11511      3808  TIP3      H2              8.8073737850      -23.6091652193       19.5661816756  SOLV      3797            0.0000000000
     11512      3809  TIP3      OH2            -5.6101413363      -30.3000357461       21.3505124856  SOLV      3798            0.0000000000
     11513      3809  TIP3      H1             -4.8663403670      -30.8919799761       21.1137939492  SOLV      3798            0.0000000000
     11514      3809  TIP3      H2             -5.1218441211      -29.4582488912       21.3873980888  SOLV      3798            0.0000000000
     11515      3810  TIP3      OH2            -7.5703652813      -27.6519378724       22.0204011443  SOLV      3799            0.0000000000
     11516      3810  TIP3      H1             -7.0568381509      -27.6367062392       21.1887896583  SOLV      3799            0.0000000000
     11517      3810  TIP3      H2             -7.2640972930      -26.8463883932       22.4514934989  SOLV      3799            0.0000000000
     11518      3811  TIP3      OH2             3.9013453886      -15.5360050096       12.1534133820  SOLV      3800            0.0000000000
     11519      3811  TIP3      H1              4.4301845063      -15.6415034426       11.3370629910  SOLV      3800            0.0000000000
     11520      3811  TIP3      H2              4.4062785414      -14.8601562365       12.6338273376  SOLV      3800            0.0000000000
     11521      3812  TIP3      OH2            -5.0947132427      -17.3996534727       26.0156590559  SOLV      3801            0.0000000000
     11522      3812  TIP3      H1             -5.9787200586      -17.7363651315       25.8095655762  SOLV      3801            0.0000000000
     11523      3812  TIP3      H2             -5.1296346434      -17.4203016892       26.9977121437  SOLV      3801            0.0000000000
     11524      3813  TIP3      OH2            -3.2870184245      -17.1290480228       21.4858405555  SOLV      3802            0.0000000000
     11525      3813  TIP3      H1             -3.7672440712      -16.3670735278       21.1027175750  SOLV      3802            0.0000000000
     11526      3813  TIP3      H2             -2.4339369040      -17.0038951588       21.0203825159  SOLV      3802            0.0000000000
     11527      3814  TIP3      OH2             1.0715560558      -14.7415742625       22.8365606247  SOLV      3803            0.0000000000
     11528      3814  TIP3      H1              1.4995565710      -14.7549004175       23.7184873853  SOLV      3803            0.0000000000
     11529      3814  TIP3      H2              1.7271198468      -14.2223856052       22.3234972181  SOLV      3803            0.0000000000
     11530      3815  TIP3      OH2             2.8704748222      -13.1824002182       21.4807374225  SOLV      3804            0.0000000000
     11531      3815  TIP3      H1              3.5513037386      -13.6977483685       21.0249560175  SOLV      3804            0.0000000000
     11532      3815  TIP3      H2              3.4208512181      -12.6226471923       22.0711372571  SOLV      3804            0.0000000000
     11533      3816  TIP3      OH2            -6.5523537524      -14.5901976536       21.7200010435  SOLV      3805            0.0000000000
     11534      3816  TIP3      H1             -7.4612309284      -14.2859010178       21.4993749228  SOLV      3805            0.0000000000
     11535      3816  TIP3      H2             -6.4213754194      -14.1427878090       22.5627285766  SOLV      3805            0.0000000000
     11536      3817  TIP3      OH2            -4.1906660280      -14.7905782178       20.3168108026  SOLV      3806            0.0000000000
     11537      3817  TIP3      H1             -5.0683361518      -14.6840828645       20.7484440928  SOLV      3806            0.0000000000
     11538      3817  TIP3      H2             -4.3880267300      -14.4916430514       19.4071591860  SOLV      3806            0.0000000000
     11539      3818  TIP3      OH2             0.0523283448      -14.5652491172       18.2926296693  SOLV      3807            0.0000000000
     11540      3818  TIP3      H1             -0.6501581557      -14.4000605024       17.6359698723  SOLV      3807            0.0000000000
     11541      3818  TIP3      H2              0.1644656846      -13.6764139669       18.6870137534  SOLV      3807            0.0000000000
     11542      3819  TIP3      OH2             2.7444713204      -15.1415136249       18.8373787474  SOLV      3808            0.0000000000
     11543      3819  TIP3      H1              1.8018928545      -14.9958331299       18.6226082150  SOLV      3808            0.0000000000
     11544      3819  TIP3      H2              3.1720775335      -14.4354843113       18.3288102307  SOLV      3808            0.0000000000
     11545      3820  TIP3      OH2             4.8129545660      -13.2521552677       17.9207321763  SOLV      3809            0.0000000000
     11546      3820  TIP3      H1              4.6630050328      -12.4098339523       17.4404962612  SOLV      3809            0.0000000000
     11547      3820  TIP3      H2              5.0636440351      -13.8548525676       17.1860222541  SOLV      3809            0.0000000000
     11548      3821  TIP3      OH2            -7.4676586342      -16.6937007262       19.1704424871  SOLV      3810            0.0000000000
     11549      3821  TIP3      H1             -7.1804140247      -16.9844934652       20.0634331694  SOLV      3810            0.0000000000
     11550      3821  TIP3      H2             -6.7368516825      -17.0883832230       18.6412083003  SOLV      3810            0.0000000000
     11551      3822  TIP3      OH2            -5.4909593771      -17.9247867048       17.7739735987  SOLV      3811            0.0000000000
     11552      3822  TIP3      H1             -5.3484312977      -18.7763226179       18.2507990585  SOLV      3811            0.0000000000
     11553      3822  TIP3      H2             -4.5736665577      -17.5813299594       17.7361797707  SOLV      3811            0.0000000000
     11554      3823  TIP3      OH2            -2.8002689658      -17.0396018019       17.8135845936  SOLV      3812            0.0000000000
     11555      3823  TIP3      H1             -2.5345014986      -17.9762352199       17.7172635058  SOLV      3812            0.0000000000
     11556      3823  TIP3      H2             -2.3097281941      -16.8178757610       18.6268720663  SOLV      3812            0.0000000000
     11557      3824  TIP3      OH2            -9.5910720484      -18.8831569367       13.0130562436  SOLV      3813            0.0000000000
     11558      3824  TIP3      H1            -10.4527132563      -19.2107165979       12.6910032715  SOLV      3813            0.0000000000
     11559      3824  TIP3      H2             -9.6571397070      -17.9580322142       12.7036375907  SOLV      3813            0.0000000000
     11560      3825  TIP3      OH2            -1.8266489204      -17.1457063441        8.8988604849  SOLV      3814            0.0000000000
     11561      3825  TIP3      H1             -0.9603916274      -16.8966398355        8.5145972169  SOLV      3814            0.0000000000
     11562      3825  TIP3      H2             -2.0585605222      -17.8876355258        8.2946938121  SOLV      3814            0.0000000000
     11563      3826  TIP3      OH2             5.3818958343      -15.8580982518        9.8281823101  SOLV      3815            0.0000000000
     11564      3826  TIP3      H1              5.3013950661      -16.8354374996        9.7134631103  SOLV      3815            0.0000000000
     11565      3826  TIP3      H2              4.9071714848      -15.5420676126        9.0331972266  SOLV      3815            0.0000000000
     11566      3827  TIP3      OH2            -8.8209704291      -18.7476149302        9.4216715394  SOLV      3816            0.0000000000
     11567      3827  TIP3      H1             -8.7855448236      -18.5338769243       10.3639200337  SOLV      3816            0.0000000000
     11568      3827  TIP3      H2             -7.9489595507      -19.1839456114        9.2739703324  SOLV      3816            0.0000000000
     11569      3828  TIP3      OH2             7.5835942801      -14.4582711692       21.6889647988  SOLV      3817            0.0000000000
     11570      3828  TIP3      H1              6.7987674582      -14.7644038763       21.1875577757  SOLV      3817            0.0000000000
     11571      3828  TIP3      H2              7.3804700556      -13.5034806622       21.7574875495  SOLV      3817            0.0000000000
     11572      3829  TIP3      OH2            20.2912169470      -20.6819657140        9.2980226928  SOLV      3818            0.0000000000
     11573      3829  TIP3      H1             19.9578487304      -19.7889245296        9.0699278328  SOLV      3818            0.0000000000
     11574      3829  TIP3      H2             19.5400407905      -21.2262324718        9.0046902764  SOLV      3818            0.0000000000
     11575      3830  TIP3      OH2            20.2354210799      -20.6886477067       13.2187523999  SOLV      3819            0.0000000000
     11576      3830  TIP3      H1             20.6287952921      -20.9132867618       14.0836130585  SOLV      3819            0.0000000000
     11577      3830  TIP3      H2             19.8552978859      -21.5438867742       12.9567284151  SOLV      3819            0.0000000000
     11578      3831  TIP3      OH2            13.2128059928      -21.7809847948       16.7929529962  SOLV      3820            0.0000000000
     11579      3831  TIP3      H1             13.5072002401      -22.4466181293       17.4462603490  SOLV      3820            0.0000000000
     11580      3831  TIP3      H2             14.0359476085      -21.2936413201       16.6546867350  SOLV      3820            0.0000000000
     11581      3832  TIP3      OH2            22.7435445390      -17.6544840277       10.0125855839  SOLV      3821            0.0000000000
     11582      3832  TIP3      H1             22.5755876591      -18.3355221111       10.6784207291  SOLV      3821            0.0000000000
     11583      3832  TIP3      H2             23.0409414753      -16.9032697706       10.5545808965  SOLV      3821            0.0000000000
     11584      3833  TIP3      OH2            13.0340106277      -17.6468522969       14.0545069336  SOLV      3822            0.0000000000
     11585      3833  TIP3      H1             12.9232517620      -18.6229466036       14.0490123422  SOLV      3822            0.0000000000
     11586      3833  TIP3      H2             13.9996090338      -17.5849242007       13.9344888211  SOLV      3822            0.0000000000
     11587      3834  TIP3      OH2            10.0392702471      -25.4822811788       11.8112308653  SOLV      3823            0.0000000000
     11588      3834  TIP3      H1              9.4690562189      -24.7118146375       11.9909821038  SOLV      3823            0.0000000000
     11589      3834  TIP3      H2              9.3756893918      -26.1345196849       11.5334123527  SOLV      3823            0.0000000000
     11590      3835  TIP3      OH2            10.6213687050      -22.7627216305       13.7019704607  SOLV      3824            0.0000000000
     11591      3835  TIP3      H1             11.1287246632      -23.5436692720       14.0177749774  SOLV      3824            0.0000000000
     11592      3835  TIP3      H2             11.2113799723      -22.4061315039       13.0263470577  SOLV      3824            0.0000000000
     11593      3836  TIP3      OH2            19.2743033955      -13.0707248778       10.1711991815  SOLV      3825            0.0000000000
     11594      3836  TIP3      H1             19.6612304609      -13.7895749301        9.6285994835  SOLV      3825            0.0000000000
     11595      3836  TIP3      H2             19.1590087042      -13.5089774281       11.0196193062  SOLV      3825            0.0000000000
     11596      3837  TIP3      OH2            18.2363397911      -18.4500383951       13.6367321312  SOLV      3826            0.0000000000
     11597      3837  TIP3      H1             18.6518601326      -19.2264683912       13.2208337785  SOLV      3826            0.0000000000
     11598      3837  TIP3      H2             19.0541692038      -17.9716580247       13.8913946166  SOLV      3826            0.0000000000
     11599      3838  TIP3      OH2            28.2972027400      -25.2620145114       13.3305799531  SOLV      3827            0.0000000000
     11600      3838  TIP3      H1             28.7321982065      -24.5206449580       13.7910813944  SOLV      3827            0.0000000000
     11601      3838  TIP3      H2             28.5780387749      -25.0926457069       12.4174139346  SOLV      3827            0.0000000000
     11602      3839  TIP3      OH2            22.3445580142      -23.4916400675       13.9927068385  SOLV      3828            0.0000000000
     11603      3839  TIP3      H1             22.7025730149      -24.3334843164       14.2984687173  SOLV      3828            0.0000000000
     11604      3839  TIP3      H2             22.0409408896      -23.7057503445       13.0875747874  SOLV      3828            0.0000000000
     11605      3840  TIP3      OH2            15.8301094922      -26.7913103143       13.6843998876  SOLV      3829            0.0000000000
     11606      3840  TIP3      H1             15.5177945730      -26.2555067130       12.9244393628  SOLV      3829            0.0000000000
     11607      3840  TIP3      H2             15.7501680895      -27.7102691555       13.3547753336  SOLV      3829            0.0000000000
     11608      3841  TIP3      OH2            22.7105075796      -26.0106799612        9.9181816133  SOLV      3830            0.0000000000
     11609      3841  TIP3      H1             23.4341594585      -26.1429089589       10.5767468195  SOLV      3830            0.0000000000
     11610      3841  TIP3      H2             23.2012138377      -25.5607475202        9.2116039611  SOLV      3830            0.0000000000
     11611      3842  TIP3      OH2            12.1192143082      -24.8370415761       14.6804664423  SOLV      3831            0.0000000000
     11612      3842  TIP3      H1             12.9677500142      -24.9920626182       15.1395755169  SOLV      3831            0.0000000000
     11613      3842  TIP3      H2             12.2401716808      -25.4154427508       13.8992381740  SOLV      3831            0.0000000000
     11614      3843  TIP3      OH2            16.4604049286      -22.8662924568       12.6796062195  SOLV      3832            0.0000000000
     11615      3843  TIP3      H1             17.4077333270      -23.0892288214       12.7925691295  SOLV      3832            0.0000000000
     11616      3843  TIP3      H2             16.0921238580      -23.7173994637       12.3583205794  SOLV      3832            0.0000000000
     11617      3844  TIP3      OH2            28.9860295836      -23.2242623634       15.1181677280  SOLV      3833            0.0000000000
     11618      3844  TIP3      H1             28.1194891379      -22.8213325630       14.8899729535  SOLV      3833            0.0000000000
     11619      3844  TIP3      H2             28.7293198072      -23.7051544535       15.9198442304  SOLV      3833            0.0000000000
     11620      3845  TIP3      OH2            15.7636579459      -27.0402357190       18.0136143485  SOLV      3834            0.0000000000
     11621      3845  TIP3      H1             15.2164296759      -26.9242983318       17.2164552500  SOLV      3834            0.0000000000
     11622      3845  TIP3      H2             15.1370499443      -26.7575405228       18.7063708714  SOLV      3834            0.0000000000
     11623      3846  TIP3      OH2            19.1414000985      -18.5122147587        8.0056139649  SOLV      3835            0.0000000000
     11624      3846  TIP3      H1             18.7365941108      -18.6498361826        7.1395412211  SOLV      3835            0.0000000000
     11625      3846  TIP3      H2             18.6862551068      -17.6940325404        8.2969853141  SOLV      3835            0.0000000000
     11626      3847  TIP3      OH2            16.7853660666      -19.2471216446       15.8514298261  SOLV      3836            0.0000000000
     11627      3847  TIP3      H1             16.1863797428      -18.5532014447       16.2033658533  SOLV      3836            0.0000000000
     11628      3847  TIP3      H2             17.2365606539      -18.7799580333       15.1192198176  SOLV      3836            0.0000000000
     11629      3848  TIP3      OH2            24.7045236702      -25.9555937089       11.7552794493  SOLV      3837            0.0000000000
     11630      3848  TIP3      H1             24.8356356846      -26.5521356113       12.5144014688  SOLV      3837            0.0000000000
     11631      3848  TIP3      H2             25.2500792172      -25.1837148694       12.0013306525  SOLV      3837            0.0000000000
     11632      3849  TIP3      OH2            14.4448850537      -25.8123725765       15.8243874904  SOLV      3838            0.0000000000
     11633      3849  TIP3      H1             15.0901123936      -25.1217986375       16.0844629260  SOLV      3838            0.0000000000
     11634      3849  TIP3      H2             14.9358426355      -26.2295595728       15.0780824945  SOLV      3838            0.0000000000
     11635      3850  TIP3      OH2            15.1034845078      -17.2736964905       16.8797021717  SOLV      3839            0.0000000000
     11636      3850  TIP3      H1             14.8281613971      -16.4164236201       16.4986873034  SOLV      3839            0.0000000000
     11637      3850  TIP3      H2             14.3143901369      -17.4662996426       17.4290967110  SOLV      3839            0.0000000000
     11638      3851  TIP3      OH2             8.9847793866      -20.3888292960        9.2294508694  SOLV      3840            0.0000000000
     11639      3851  TIP3      H1              8.5635414309      -20.1240533568        8.3934172177  SOLV      3840            0.0000000000
     11640      3851  TIP3      H2              9.2835713315      -19.5251648476        9.5834516571  SOLV      3840            0.0000000000
     11641      3852  TIP3      OH2            23.3520031552      -15.2500170805       11.5888287586  SOLV      3841            0.0000000000
     11642      3852  TIP3      H1             22.4560758238      -15.3218815311       11.9912003376  SOLV      3841            0.0000000000
     11643      3852  TIP3      H2             23.2938875613      -14.3746271157       11.1569432726  SOLV      3841            0.0000000000
     11644      3853  TIP3      OH2            20.3634484778      -14.8016571937        8.3119774573  SOLV      3842            0.0000000000
     11645      3853  TIP3      H1             20.8791689235      -15.6247561845        8.1379745417  SOLV      3842            0.0000000000
     11646      3853  TIP3      H2             20.9782988962      -14.1448862834        7.9156436708  SOLV      3842            0.0000000000
     11647      3854  TIP3      OH2            21.8237368916      -16.9593586835        7.5013581395  SOLV      3843            0.0000000000
     11648      3854  TIP3      H1             21.4277833863      -17.7790959512        7.1775912312  SOLV      3843            0.0000000000
     11649      3854  TIP3      H2             22.2326459035      -17.2624559571        8.3428856878  SOLV      3843            0.0000000000
     11650      3855  TIP3      OH2            25.5162309969      -16.1682606924       15.0349517092  SOLV      3844            0.0000000000
     11651      3855  TIP3      H1             25.4474591266      -16.9312820098       14.4208195448  SOLV      3844            0.0000000000
     11652      3855  TIP3      H2             25.3883291257      -15.4082025123       14.4263867112  SOLV      3844            0.0000000000
     11653      3856  TIP3      OH2            18.5861424613      -22.2121856869        7.6975523192  SOLV      3845            0.0000000000
     11654      3856  TIP3      H1             17.7798807427      -21.6969302337        7.4950373459  SOLV      3845            0.0000000000
     11655      3856  TIP3      H2             19.0392748012      -22.2254377137        6.8366534924  SOLV      3845            0.0000000000
     11656      3857  TIP3      OH2            18.1372966256      -24.2664311553        4.7447865687  SOLV      3846            0.0000000000
     11657      3857  TIP3      H1             18.8225768632      -23.8277678452        5.2802321180  SOLV      3846            0.0000000000
     11658      3857  TIP3      H2             18.6872992241      -24.8913967593        4.2350092870  SOLV      3846            0.0000000000
     11659      3858  TIP3      OH2            27.6139908998      -19.7477816676       13.5491234330  SOLV      3847            0.0000000000
     11660      3858  TIP3      H1             26.7817818742      -19.2257211294       13.5966693484  SOLV      3847            0.0000000000
     11661      3858  TIP3      H2             27.9126264102      -19.5039716778       12.6461875815  SOLV      3847            0.0000000000
     11662      3859  TIP3      OH2            22.0538907850      -21.3534018087        7.3377587041  SOLV      3848            0.0000000000
     11663      3859  TIP3      H1             21.5040633232      -21.1071480071        8.1196844441  SOLV      3848            0.0000000000
     11664      3859  TIP3      H2             22.8965194601      -21.5808246569        7.7844506047  SOLV      3848            0.0000000000
     11665      3860  TIP3      OH2            24.3154936705      -20.8396631414       16.2867572412  SOLV      3849            0.0000000000
     11666      3860  TIP3      H1             24.2195344748      -20.0500647694       16.8503196223  SOLV      3849            0.0000000000
     11667      3860  TIP3      H2             23.4396353396      -20.8502816718       15.8483939237  SOLV      3849            0.0000000000
     11668      3861  TIP3      OH2            14.3864797567      -21.4112777327       11.5436126449  SOLV      3850            0.0000000000
     11669      3861  TIP3      H1             13.9683787671      -22.0043904118       10.8818599153  SOLV      3850            0.0000000000
     11670      3861  TIP3      H2             15.1379612000      -21.9565702900       11.8597302422  SOLV      3850            0.0000000000
     11671      3862  TIP3      OH2            15.6730634354      -17.2777194216       12.9920351609  SOLV      3851            0.0000000000
     11672      3862  TIP3      H1             15.4872578235      -17.6195433855       12.1048679674  SOLV      3851            0.0000000000
     11673      3862  TIP3      H2             16.5584649183      -17.6552176436       13.1753041325  SOLV      3851            0.0000000000
     11674      3863  TIP3      OH2            15.6738534204      -21.6570069673       15.0810775822  SOLV      3852            0.0000000000
     11675      3863  TIP3      H1             16.0190954856      -21.9371295437       14.2070490529  SOLV      3852            0.0000000000
     11676      3863  TIP3      H2             16.1490297489      -20.8146774407       15.2411360765  SOLV      3852            0.0000000000
     11677      3864  TIP3      OH2            20.9765197040      -15.2898655556       12.8695406992  SOLV      3853            0.0000000000
     11678      3864  TIP3      H1             20.8501532692      -14.5052885471       13.4307382801  SOLV      3853            0.0000000000
     11679      3864  TIP3      H2             20.8306228399      -16.0333349482       13.4889674621  SOLV      3853            0.0000000000
     11680      3865  TIP3      OH2            17.1125163305      -16.0836024590       18.3212985487  SOLV      3854            0.0000000000
     11681      3865  TIP3      H1             16.4729172489      -15.5101221398       18.7871292452  SOLV      3854            0.0000000000
     11682      3865  TIP3      H2             16.4957366372      -16.6465128846       17.8061884189  SOLV      3854            0.0000000000
     11683      3866  TIP3      OH2            20.4597094955      -22.8302867032        5.6526395379  SOLV      3855            0.0000000000
     11684      3866  TIP3      H1             21.0522859513      -22.2240360073        6.1552408105  SOLV      3855            0.0000000000
     11685      3866  TIP3      H2             20.7150189192      -22.6131608934        4.7243896786  SOLV      3855            0.0000000000
     11686      3867  TIP3      OH2            14.6632700571      -20.5653381258       19.4013496116  SOLV      3856            0.0000000000
     11687      3867  TIP3      H1             14.7093056696      -19.6865861666       19.8243205129  SOLV      3856            0.0000000000
     11688      3867  TIP3      H2             13.7104466128      -20.7651814080       19.5158998396  SOLV      3856            0.0000000000
     11689      3868  TIP3      OH2            17.9140011451      -16.0365022698        8.3788154056  SOLV      3857            0.0000000000
     11690      3868  TIP3      H1             18.7387615167      -15.5255928912        8.4461621964  SOLV      3857            0.0000000000
     11691      3868  TIP3      H2             17.3107582027      -15.4083926206        7.9584639573  SOLV      3857            0.0000000000
     11692      3869  TIP3      OH2            15.0083666812      -14.4135595932       19.2100536954  SOLV      3858            0.0000000000
     11693      3869  TIP3      H1             14.6958778169      -14.4854378942       18.2879445112  SOLV      3858            0.0000000000
     11694      3869  TIP3      H2             14.2064529553      -14.6660279543       19.7234079858  SOLV      3858            0.0000000000
     11695      3870  TIP3      OH2            13.0407973195      -22.9582500045        9.5880664760  SOLV      3859            0.0000000000
     11696      3870  TIP3      H1             12.3317399437      -22.5344334459        9.0607639021  SOLV      3859            0.0000000000
     11697      3870  TIP3      H2             12.7142415583      -23.8608036696        9.6650677279  SOLV      3859            0.0000000000
     11698      3871  TIP3      OH2            23.6270230746      -16.7402667987        1.6284925070  SOLV      3860            0.0000000000
     11699      3871  TIP3      H1             23.6925920705      -15.7725806256        1.4770504085  SOLV      3860            0.0000000000
     11700      3871  TIP3      H2             24.5526749214      -17.0197287030        1.4662718743  SOLV      3860            0.0000000000
     11701      3872  TIP3      OH2            10.8631860329      -19.0983894555       18.6543696807  SOLV      3861            0.0000000000
     11702      3872  TIP3      H1             10.1706457043      -19.3004605675       17.9893608841  SOLV      3861            0.0000000000
     11703      3872  TIP3      H2             11.2275383521      -19.9840216808       18.8571529379  SOLV      3861            0.0000000000
     11704      3873  TIP3      OH2             9.3801680352      -17.2002097320       14.9564063720  SOLV      3862            0.0000000000
     11705      3873  TIP3      H1             10.3437818333      -17.2261292689       14.8909133086  SOLV      3862            0.0000000000
     11706      3873  TIP3      H2              9.2380601165      -16.4127679183       15.5035945758  SOLV      3862            0.0000000000
     11707      3874  TIP3      OH2            27.8125978000      -12.4158078521       15.3326034797  SOLV      3863            0.0000000000
     11708      3874  TIP3      H1             28.1720803491      -13.2774107585       15.5951635039  SOLV      3863            0.0000000000
     11709      3874  TIP3      H2             27.0291032850      -12.3501012165       15.9156153218  SOLV      3863            0.0000000000
     11710      3875  TIP3      OH2            19.0880054229      -14.7937657175       16.9116010628  SOLV      3864            0.0000000000
     11711      3875  TIP3      H1             18.9957705921      -13.8828610050       17.2488759668  SOLV      3864            0.0000000000
     11712      3875  TIP3      H2             18.3804817988      -15.2526325196       17.4181766979  SOLV      3864            0.0000000000
     11713      3876  TIP3      OH2            16.7527925220      -13.5726248843        6.4351389002  SOLV      3865            0.0000000000
     11714      3876  TIP3      H1             16.2593816962      -13.7452928033        5.6136532810  SOLV      3865            0.0000000000
     11715      3876  TIP3      H2             16.4029945228      -12.7064444202        6.7108827185  SOLV      3865            0.0000000000
     11716      3877  TIP3      OH2            11.0994536344      -15.0876131105       10.2722861734  SOLV      3866            0.0000000000
     11717      3877  TIP3      H1             11.5523258027      -15.1751490328       11.1415657720  SOLV      3866            0.0000000000
     11718      3877  TIP3      H2             10.5904274042      -15.9125638252       10.2420404443  SOLV      3866            0.0000000000
     11719      3878  TIP3      OH2            18.7222953982      -14.5209040132        2.7887672154  SOLV      3867            0.0000000000
     11720      3878  TIP3      H1             19.2950077888      -15.2386339143        2.4386031811  SOLV      3867            0.0000000000
     11721      3878  TIP3      H2             19.0754555082      -14.4162907577        3.6977929892  SOLV      3867            0.0000000000
     11722      3879  TIP3      OH2            19.2557910026      -14.0244407805        5.4723990385  SOLV      3868            0.0000000000
     11723      3879  TIP3      H1             18.3725393825      -13.9441548109        5.8989132651  SOLV      3868            0.0000000000
     11724      3879  TIP3      H2             19.7788088120      -14.4000239312        6.1976740667  SOLV      3868            0.0000000000
     11725      3880  TIP3      OH2            26.5486220235      -21.2828558415       18.3086108739  SOLV      3869            0.0000000000
     11726      3880  TIP3      H1             25.8921888830      -20.8592082942       17.7399273290  SOLV      3869            0.0000000000
     11727      3880  TIP3      H2             27.2526684710      -21.5066283930       17.6820250800  SOLV      3869            0.0000000000
     11728      3881  TIP3      OH2            12.9079158866      -17.2648758966       18.5286099668  SOLV      3870            0.0000000000
     11729      3881  TIP3      H1             13.3987131994      -17.4767291766       19.3482207074  SOLV      3870            0.0000000000
     11730      3881  TIP3      H2             12.1617012643      -17.9003894203       18.5766380911  SOLV      3870            0.0000000000
     11731      3882  TIP3      OH2            24.6396134341      -23.4782339415       17.0990471957  SOLV      3871            0.0000000000
     11732      3882  TIP3      H1             24.0744685390      -23.5416348842       17.8996314340  SOLV      3871            0.0000000000
     11733      3882  TIP3      H2             24.4959353070      -22.5533548834       16.8288242637  SOLV      3871            0.0000000000
     11734      3883  TIP3      OH2            21.1889800728      -22.4283962719        3.0631650025  SOLV      3872            0.0000000000
     11735      3883  TIP3      H1             20.8667570212      -22.6384460526        2.1674467946  SOLV      3872            0.0000000000
     11736      3883  TIP3      H2             22.0331045240      -21.9816348647        2.8538739233  SOLV      3872            0.0000000000
     11737      3884  TIP3      OH2            16.2203928309      -23.8423977999       16.6050929640  SOLV      3873            0.0000000000
     11738      3884  TIP3      H1             15.6745973701      -23.6642490417       17.4012895355  SOLV      3873            0.0000000000
     11739      3884  TIP3      H2             16.0166910138      -23.0485825014       16.0604232519  SOLV      3873            0.0000000000
     11740      3885  TIP3      OH2            14.9978355101      -25.0599964508       11.7197063120  SOLV      3874            0.0000000000
     11741      3885  TIP3      H1             14.0668308295      -25.3290916995       11.8756577379  SOLV      3874            0.0000000000
     11742      3885  TIP3      H2             15.1497374906      -25.4576369432       10.8349937547  SOLV      3874            0.0000000000
     11743      3886  TIP3      OH2            19.9835605010      -24.2283236451        9.0396816036  SOLV      3875            0.0000000000
     11744      3886  TIP3      H1             19.4596173686      -23.5238750479        8.6025363062  SOLV      3875            0.0000000000
     11745      3886  TIP3      H2             20.4745449754      -24.6097596005        8.2890066463  SOLV      3875            0.0000000000
     11746      3887  TIP3      OH2            21.6373636623      -21.2120140570       19.6903127670  SOLV      3876            0.0000000000
     11747      3887  TIP3      H1             21.4579414382      -21.9335281726       20.3312589364  SOLV      3876            0.0000000000
     11748      3887  TIP3      H2             22.5466322383      -20.9885564078       19.9080317048  SOLV      3876            0.0000000000
     11749      3888  TIP3      OH2            21.5430940593      -23.9611277703       11.3869662861  SOLV      3877            0.0000000000
     11750      3888  TIP3      H1             20.9093519307      -23.6954740634       10.6896540280  SOLV      3877            0.0000000000
     11751      3888  TIP3      H2             21.8780672665      -24.7797629401       10.9652052244  SOLV      3877            0.0000000000
     11752      3889  TIP3      OH2            14.4372624915      -23.4386450335       18.6371947873  SOLV      3878            0.0000000000
     11753      3889  TIP3      H1             14.6798078929      -22.7669364475       19.2914502277  SOLV      3878            0.0000000000
     11754      3889  TIP3      H2             14.3588129217      -24.2428886559       19.2044857642  SOLV      3878            0.0000000000
     11755      3890  TIP3      OH2            15.3905676434      -27.8422363204        5.9239563069  SOLV      3879            0.0000000000
     11756      3890  TIP3      H1             15.2349680776      -28.0866953020        6.8501768564  SOLV      3879            0.0000000000
     11757      3890  TIP3      H2             14.4757974834      -27.6806228636        5.6257213168  SOLV      3879            0.0000000000
     11758      3891  TIP3      OH2            10.6041709490      -28.2906682558       14.0255138334  SOLV      3880            0.0000000000
     11759      3891  TIP3      H1             10.9636199702      -27.8572673508       14.8231506586  SOLV      3880            0.0000000000
     11760      3891  TIP3      H2             10.8134699217      -29.2038874355       14.2033535415  SOLV      3880            0.0000000000
     11761      3892  TIP3      OH2            10.3745821263      -28.3578705399        9.9582765314  SOLV      3881            0.0000000000
     11762      3892  TIP3      H1             10.5185661771      -27.9265655611        9.0867030891  SOLV      3881            0.0000000000
     11763      3892  TIP3      H2              9.5702945367      -27.8817433500       10.2262747246  SOLV      3881            0.0000000000
     11764      3893  TIP3      OH2            21.6001177571      -21.4102155959       15.5178081224  SOLV      3882            0.0000000000
     11765      3893  TIP3      H1             21.9169475869      -22.1492093648       14.9446815122  SOLV      3882            0.0000000000
     11766      3893  TIP3      H2             21.2664306252      -21.9312783256       16.2783112392  SOLV      3882            0.0000000000
     11767      3894  TIP3      OH2            18.3874474848      -26.5702593023       12.5210297894  SOLV      3883            0.0000000000
     11768      3894  TIP3      H1             17.5507015695      -26.6462140153       13.0150205441  SOLV      3883            0.0000000000
     11769      3894  TIP3      H2             19.0286596440      -26.7358067032       13.2411769770  SOLV      3883            0.0000000000
     11770      3895  TIP3      OH2            12.5782740823      -26.2391464550       12.3003558500  SOLV      3884            0.0000000000
     11771      3895  TIP3      H1             11.6611246546      -25.9466257467       12.0719132305  SOLV      3884            0.0000000000
     11772      3895  TIP3      H2             12.4615152861      -27.1947992640       12.2508203678  SOLV      3884            0.0000000000
     11773      3896  TIP3      OH2            15.3720487252      -26.3477061223        9.3417189467  SOLV      3885            0.0000000000
     11774      3896  TIP3      H1             16.3308352074      -26.1523013636        9.2473695486  SOLV      3885            0.0000000000
     11775      3896  TIP3      H2             14.9652875348      -25.9485001113        8.5404621361  SOLV      3885            0.0000000000
     11776      3897  TIP3      OH2            13.8032237034      -25.5982157011        7.1931850097  SOLV      3886            0.0000000000
     11777      3897  TIP3      H1             13.1309805347      -26.0971359020        6.6938851651  SOLV      3886            0.0000000000
     11778      3897  TIP3      H2             14.3995182319      -25.3624328574        6.4506185206  SOLV      3886            0.0000000000
     11779      3898  TIP3      OH2            24.9829130758       -9.1575181657       16.6084727774  SOLV      3887            0.0000000000
     11780      3898  TIP3      H1             24.9836161005       -8.9308874996       15.6586455775  SOLV      3887            0.0000000000
     11781      3898  TIP3      H2             25.8103627799       -8.7252894273       16.8973261992  SOLV      3887            0.0000000000
     11782      3899  TIP3      OH2            14.5162986294      -18.0633060047       20.7490327652  SOLV      3888            0.0000000000
     11783      3899  TIP3      H1             15.3204449918      -17.8200497195       21.2475467356  SOLV      3888            0.0000000000
     11784      3899  TIP3      H2             13.8676700249      -18.1243485741       21.4781693660  SOLV      3888            0.0000000000
     11785      3900  TIP3      OH2            19.1282664145      -23.4804240061       13.3435544037  SOLV      3889            0.0000000000
     11786      3900  TIP3      H1             19.7067645836      -24.0225752294       12.7860705876  SOLV      3889            0.0000000000
     11787      3900  TIP3      H2             19.1201638588      -23.9891890281       14.1718279374  SOLV      3889            0.0000000000
     11788      3901  TIP3      OH2            18.8750363086      -24.4980751812       16.3222742421  SOLV      3890            0.0000000000
     11789      3901  TIP3      H1             17.9860925240      -24.0898475585       16.3779188109  SOLV      3890            0.0000000000
     11790      3901  TIP3      H2             19.4556527682      -23.8292966269       16.7412770835  SOLV      3890            0.0000000000
     11791      3902  TIP3      OH2            16.2769082349      -20.6942534935        7.1430905567  SOLV      3891            0.0000000000
     11792      3902  TIP3      H1             15.5391059373      -21.3311822670        7.0227602313  SOLV      3891            0.0000000000
     11793      3902  TIP3      H2             16.0730360138      -20.3465316922        8.0461849370  SOLV      3891            0.0000000000
     11794      3903  TIP3      OH2            25.2602745344      -18.3488398876       13.3797904410  SOLV      3892            0.0000000000
     11795      3903  TIP3      H1             25.5172050289      -17.8442237515       12.5780953507  SOLV      3892            0.0000000000
     11796      3903  TIP3      H2             24.4115018268      -18.7605919364       13.1090125789  SOLV      3892            0.0000000000
     11797      3904  TIP3      OH2            20.6601995005      -27.1524450976        5.1369192100  SOLV      3893            0.0000000000
     11798      3904  TIP3      H1             20.1522122860      -27.7425166778        5.7055898872  SOLV      3893            0.0000000000
     11799      3904  TIP3      H2             21.0052509322      -26.5089402565        5.7929338995  SOLV      3893            0.0000000000
     11800      3905  TIP3      OH2            20.2055232455      -17.5290021206       17.1579047957  SOLV      3894            0.0000000000
     11801      3905  TIP3      H1             20.6553607738      -17.6599923417       17.9995620038  SOLV      3894            0.0000000000
     11802      3905  TIP3      H2             19.8963467939      -16.6099824040       17.2146522892  SOLV      3894            0.0000000000
     11803      3906  TIP3      OH2            21.5934311376      -25.1178399797        6.7875024640  SOLV      3895            0.0000000000
     11804      3906  TIP3      H1             22.5391845071      -24.9757532305        6.9853267196  SOLV      3895            0.0000000000
     11805      3906  TIP3      H2             21.3472245321      -24.2972017383        6.3190065484  SOLV      3895            0.0000000000
     11806      3907  TIP3      OH2            13.2231545796      -20.4020429461       13.8678468402  SOLV      3896            0.0000000000
     11807      3907  TIP3      H1             13.6068903354      -20.7049213551       13.0192193627  SOLV      3896            0.0000000000
     11808      3907  TIP3      H2             13.6556151551      -20.9968190313       14.4986382543  SOLV      3896            0.0000000000
     11809      3908  TIP3      OH2            17.7197169614      -19.1848467127        5.3727424940  SOLV      3897            0.0000000000
     11810      3908  TIP3      H1             17.2329687780      -18.3289882411        5.4248573684  SOLV      3897            0.0000000000
     11811      3908  TIP3      H2             17.1868950769      -19.7416454984        5.9824800281  SOLV      3897            0.0000000000
     11812      3909  TIP3      OH2            12.0381850631      -21.2450542112       20.0269826444  SOLV      3898            0.0000000000
     11813      3909  TIP3      H1             12.1797657924      -21.4031708926       20.9797249973  SOLV      3898            0.0000000000
     11814      3909  TIP3      H2             11.3378059771      -21.8925776171       19.8268878770  SOLV      3898            0.0000000000
     11815      3910  TIP3      OH2            19.1981855689      -20.0096048010       20.2325815377  SOLV      3899            0.0000000000
     11816      3910  TIP3      H1             18.5810311352      -20.6304775014       19.8078852489  SOLV      3899            0.0000000000
     11817      3910  TIP3      H2             20.0631303590      -20.3312763340       19.8970482548  SOLV      3899            0.0000000000
     11818      3911  TIP3      OH2            21.8126085493      -14.8622668888       16.1495290346  SOLV      3900            0.0000000000
     11819      3911  TIP3      H1             20.8451483255      -14.8575735282       16.2637973915  SOLV      3900            0.0000000000
     11820      3911  TIP3      H2             22.0913393798      -14.3103872026       16.9091718856  SOLV      3900            0.0000000000
     11821      3912  TIP3      OH2            25.9402987752      -24.1511197350        5.1989377367  SOLV      3901            0.0000000000
     11822      3912  TIP3      H1             25.3877990945      -24.6003650376        4.5192078172  SOLV      3901            0.0000000000
     11823      3912  TIP3      H2             25.9156681224      -23.2531306917        4.8019603039  SOLV      3901            0.0000000000
     11824      3913  TIP3      OH2            28.0176294228      -15.6320765278       15.9412438020  SOLV      3902            0.0000000000
     11825      3913  TIP3      H1             27.0376381865      -15.6490732578       15.8357149197  SOLV      3902            0.0000000000
     11826      3913  TIP3      H2             28.2975577919      -15.8158291788       15.0144790512  SOLV      3902            0.0000000000
     11827      3914  TIP3      OH2            22.9841150429      -15.9638193634        4.2828968893  SOLV      3903            0.0000000000
     11828      3914  TIP3      H1             22.7100694220      -16.6538616572        4.9030607244  SOLV      3903            0.0000000000
     11829      3914  TIP3      H2             23.1076626641      -16.4510665785        3.4486375224  SOLV      3903            0.0000000000
     11830      3915  TIP3      OH2            22.8974382921      -19.6670686862       12.5518835269  SOLV      3904            0.0000000000
     11831      3915  TIP3      H1             21.9650946919      -19.9212351110       12.6908883759  SOLV      3904            0.0000000000
     11832      3915  TIP3      H2             23.2398297767      -20.4813402148       12.1278626470  SOLV      3904            0.0000000000
     11833      3916  TIP3      OH2            14.2367942973      -17.3744132133       10.1948210007  SOLV      3905            0.0000000000
     11834      3916  TIP3      H1             14.1995530193      -16.5716782769        9.6401958258  SOLV      3905            0.0000000000
     11835      3916  TIP3      H2             13.3011035090      -17.5769285118       10.2966256704  SOLV      3905            0.0000000000
     11836      3917  TIP3      OH2             9.8592025685      -24.3475223171        7.2130042283  SOLV      3906            0.0000000000
     11837      3917  TIP3      H1             10.3143869041      -23.5085922997        7.4419126794  SOLV      3906            0.0000000000
     11838      3917  TIP3      H2              9.0882331547      -24.3078115350        7.8221190811  SOLV      3906            0.0000000000
     11839      3918  TIP3      OH2            15.5014862961      -19.7623834853        9.5642264699  SOLV      3907            0.0000000000
     11840      3918  TIP3      H1             15.1875537238      -18.8626144568        9.7822349738  SOLV      3907            0.0000000000
     11841      3918  TIP3      H2             15.1629567529      -20.2742568445       10.3224585340  SOLV      3907            0.0000000000
     11842      3919  TIP3      OH2            16.9428717162      -13.9948228765       14.8471795671  SOLV      3908            0.0000000000
     11843      3919  TIP3      H1             17.3421620547      -13.2677776650       14.3253365087  SOLV      3908            0.0000000000
     11844      3919  TIP3      H2             17.7286048562      -14.3728157671       15.2720654770  SOLV      3908            0.0000000000
     11845      3920  TIP3      OH2            13.3949324757      -15.0250426888        8.6892430983  SOLV      3909            0.0000000000
     11846      3920  TIP3      H1             12.5338140130      -14.9301307215        9.1430567659  SOLV      3909            0.0000000000
     11847      3920  TIP3      H2             13.7241318650      -14.0980636547        8.7236485125  SOLV      3909            0.0000000000
     11848      3921  TIP3      OH2            20.7468882881      -17.5914417753       14.4653828020  SOLV      3910            0.0000000000
     11849      3921  TIP3      H1             20.6377359506      -17.6483784571       15.4413174971  SOLV      3910            0.0000000000
     11850      3921  TIP3      H2             21.5364534109      -18.1328692192       14.3317699536  SOLV      3910            0.0000000000
     11851      3922  TIP3      OH2            20.5637530336      -18.6639709039        3.2946022097  SOLV      3911            0.0000000000
     11852      3922  TIP3      H1             21.1129352488      -18.9198538357        4.0732947455  SOLV      3911            0.0000000000
     11853      3922  TIP3      H2             19.6900460295      -18.9575801306        3.5942760150  SOLV      3911            0.0000000000
     11854      3923  TIP3      OH2            23.2496327494      -12.3087685264       14.9206524025  SOLV      3912            0.0000000000
     11855      3923  TIP3      H1             22.4385450335      -12.8442131178       14.8359782794  SOLV      3912            0.0000000000
     11856      3923  TIP3      H2             23.1139959573      -11.6536997396       14.2003055028  SOLV      3912            0.0000000000
     11857      3924  TIP3      OH2            23.9164156630      -13.9731553203        1.4493303138  SOLV      3913            0.0000000000
     11858      3924  TIP3      H1             24.2707088143      -13.2358703627        0.9257166518  SOLV      3913            0.0000000000
     11859      3924  TIP3      H2             23.1182378571      -13.5377860861        1.8152537843  SOLV      3913            0.0000000000
     11860      3925  TIP3      OH2            14.4713031525      -25.6936701463       20.1920102662  SOLV      3914            0.0000000000
     11861      3925  TIP3      H1             13.7190744674      -26.3195911536       20.0794367694  SOLV      3914            0.0000000000
     11862      3925  TIP3      H2             14.9712499545      -26.1200032461       20.8957305560  SOLV      3914            0.0000000000
     11863      3926  TIP3      OH2            22.1736242253      -19.3846408432        5.3904605556  SOLV      3915            0.0000000000
     11864      3926  TIP3      H1             22.0738414302      -20.0396709302        6.1110918456  SOLV      3915            0.0000000000
     11865      3926  TIP3      H2             23.1477685667      -19.3983691476        5.2806430865  SOLV      3915            0.0000000000
     11866      3927  TIP3      OH2            11.3137300689      -15.3753454133       16.3991023162  SOLV      3916            0.0000000000
     11867      3927  TIP3      H1             11.8274615447      -16.1298624660       16.7257141648  SOLV      3916            0.0000000000
     11868      3927  TIP3      H2             11.5692601036      -14.6900017899       17.0260711495  SOLV      3916            0.0000000000
     11869      3928  TIP3      OH2            14.1815760285      -18.9073071324        3.2741068175  SOLV      3917            0.0000000000
     11870      3928  TIP3      H1             14.3026559284      -19.8450938493        3.0354631889  SOLV      3917            0.0000000000
     11871      3928  TIP3      H2             13.9668179906      -18.9801129317        4.2262520109  SOLV      3917            0.0000000000
     11872      3929  TIP3      OH2            13.6076203609      -18.8441748275        5.9794003093  SOLV      3918            0.0000000000
     11873      3929  TIP3      H1             14.3376138167      -19.1274992623        6.5450135082  SOLV      3918            0.0000000000
     11874      3929  TIP3      H2             13.6397520620      -17.8654969869        6.0855594873  SOLV      3918            0.0000000000
     11875      3930  TIP3      OH2            10.9408278817      -21.9353149014        8.0471454341  SOLV      3919            0.0000000000
     11876      3930  TIP3      H1             10.2785081415      -21.4785891770        8.6096030010  SOLV      3919            0.0000000000
     11877      3930  TIP3      H2             11.0861835060      -21.2489698875        7.3679187274  SOLV      3919            0.0000000000
     11878      3931  TIP3      OH2             9.7841216992       36.7665503544        4.0866702591  SOLV      3920            0.0000000000
     11879      3931  TIP3      H1             10.5992168810       37.2514402525        4.2853906561  SOLV      3920            0.0000000000
     11880      3931  TIP3      H2              9.9156057943       35.9750430478        4.6171509194  SOLV      3920            0.0000000000
     11881      3932  TIP3      OH2            21.2283979505      -27.7783171782        8.2030458381  SOLV      3921            0.0000000000
     11882      3932  TIP3      H1             21.8434674519      -27.5701518659        7.4918495907  SOLV      3921            0.0000000000
     11883      3932  TIP3      H2             21.5057307067      -27.1361695676        8.8778879103  SOLV      3921            0.0000000000
     11884      3933  TIP3      OH2            16.3070595741      -16.8767008586        5.4668135824  SOLV      3922            0.0000000000
     11885      3933  TIP3      H1             15.4315576635      -16.6450120329        5.8348653417  SOLV      3922            0.0000000000
     11886      3933  TIP3      H2             16.4658943974      -16.1013468884        4.9090854427  SOLV      3922            0.0000000000
     11887      3934  TIP3      OH2            18.0814415723      -26.2168649044        9.7765301062  SOLV      3923            0.0000000000
     11888      3934  TIP3      H1             18.7937495786      -25.5815442039        9.5680043557  SOLV      3923            0.0000000000
     11889      3934  TIP3      H2             18.2360558993      -26.3623044581       10.7372980220  SOLV      3923            0.0000000000
     11890      3935  TIP3      OH2            20.8258063872      -22.9740030208       17.5986110421  SOLV      3924            0.0000000000
     11891      3935  TIP3      H1             21.0392171065      -22.3652278848       18.3320161093  SOLV      3924            0.0000000000
     11892      3935  TIP3      H2             21.4391235599      -23.7073170345       17.7890403314  SOLV      3924            0.0000000000
     11893      3936  TIP3      OH2            13.7646048388      -16.1265338348        6.1855077128  SOLV      3925            0.0000000000
     11894      3936  TIP3      H1             13.4756890238      -15.4196867870        5.5651112686  SOLV      3925            0.0000000000
     11895      3936  TIP3      H2             13.6019653770      -15.6965992192        7.0541210273  SOLV      3925            0.0000000000
     11896      3937  TIP3      OH2            14.5356976654      -28.7866318906        8.4316595851  SOLV      3926            0.0000000000
     11897      3937  TIP3      H1             14.8175224084      -27.9861533013        8.9308833719  SOLV      3926            0.0000000000
     11898      3937  TIP3      H2             15.2009755660      -29.4558502808        8.6974557601  SOLV      3926            0.0000000000
     11899      3938  TIP3      OH2            27.3633742936      -24.1315327020       17.0981391298  SOLV      3927            0.0000000000
     11900      3938  TIP3      H1             26.4553595514      -23.7775402326       17.2325317868  SOLV      3927            0.0000000000
     11901      3938  TIP3      H2             27.1668058125      -24.9321710858       16.5904203542  SOLV      3927            0.0000000000
     11902      3939  TIP3      OH2            23.7393603108      -22.1066680274       11.3970510245  SOLV      3928            0.0000000000
     11903      3939  TIP3      H1             22.9849692857      -22.7139859315       11.5098712066  SOLV      3928            0.0000000000
     11904      3939  TIP3      H2             24.4599695774      -22.5908944073       11.8579219413  SOLV      3928            0.0000000000
     11905      3940  TIP3      OH2            10.9399904854      -19.8932892025        6.0760894229  SOLV      3929            0.0000000000
     11906      3940  TIP3      H1             11.6544125129      -19.2337683731        6.1548253564  SOLV      3929            0.0000000000
     11907      3940  TIP3      H2             11.3558114691      -20.4882601105        5.4142713542  SOLV      3929            0.0000000000
     11908      3941  TIP3      OH2            10.3145203238      -27.0419830182        7.5687368601  SOLV      3930            0.0000000000
     11909      3941  TIP3      H1             10.4123370749      -26.0676269987        7.5763080505  SOLV      3930            0.0000000000
     11910      3941  TIP3      H2              9.5524762048      -27.1345000752        6.9936408259  SOLV      3930            0.0000000000
     11911      3942  TIP3      OH2            23.4791867360      -12.5367175283       10.8497828734  SOLV      3931            0.0000000000
     11912      3942  TIP3      H1             23.0624333313      -12.0679348271       10.0932709065  SOLV      3931            0.0000000000
     11913      3942  TIP3      H2             24.4272857480      -12.3437337421       10.6632623456  SOLV      3931            0.0000000000
     11914      3943  TIP3      OH2             9.5703763795      -17.6911873527        9.9212895778  SOLV      3932            0.0000000000
     11915      3943  TIP3      H1              8.9589176644      -17.3890771566       10.6032367206  SOLV      3932            0.0000000000
     11916      3943  TIP3      H2              9.2244027286      -17.2362166403        9.1235423599  SOLV      3932            0.0000000000
     11917      3944  TIP3      OH2            11.2398363049      -12.1937270865       20.5767969661  SOLV      3933            0.0000000000
     11918      3944  TIP3      H1             12.0981533500      -12.2142891967       21.0506320572  SOLV      3933            0.0000000000
     11919      3944  TIP3      H2             10.9849661225      -13.1324141724       20.6104848060  SOLV      3933            0.0000000000
     11920      3945  TIP3      OH2            16.5210783466      -12.4828555983       20.4023533158  SOLV      3934            0.0000000000
     11921      3945  TIP3      H1             17.1593508159      -13.0512394855       20.8846283153  SOLV      3934            0.0000000000
     11922      3945  TIP3      H2             15.9215387906      -13.1896298103       20.0588811672  SOLV      3934            0.0000000000
     11923      3946  TIP3      OH2            15.7912791917      -16.8882585870        2.3406064710  SOLV      3935            0.0000000000
     11924      3946  TIP3      H1             15.2477283336      -17.6002822587        2.7535450938  SOLV      3935            0.0000000000
     11925      3946  TIP3      H2             16.5605556335      -17.4007798308        2.0391194413  SOLV      3935            0.0000000000
     11926      3947  TIP3      OH2            22.3107512568      -13.4683525840       18.4888151927  SOLV      3936            0.0000000000
     11927      3947  TIP3      H1             22.2728946887      -14.2109189593       19.1343127040  SOLV      3936            0.0000000000
     11928      3947  TIP3      H2             23.1319413149      -13.0061894530       18.7521511924  SOLV      3936            0.0000000000
     11929      3948  TIP3      OH2            20.1544654506      -16.5087510563        1.5248368902  SOLV      3937            0.0000000000
     11930      3948  TIP3      H1             20.5515505244      -17.1631839302        2.1334944277  SOLV      3937            0.0000000000
     11931      3948  TIP3      H2             20.7440629780      -16.5481067110        0.7484601263  SOLV      3937            0.0000000000
     11932      3949  TIP3      OH2            12.4946711603      -18.1668109584       22.6542396522  SOLV      3938            0.0000000000
     11933      3949  TIP3      H1             12.6349351455      -19.1241886224       22.7677688148  SOLV      3938            0.0000000000
     11934      3949  TIP3      H2             11.6237180187      -18.1477459359       22.1987911135  SOLV      3938            0.0000000000
     11935      3950  TIP3      OH2            12.2982500928      -21.7719174240        4.6356720966  SOLV      3939            0.0000000000
     11936      3950  TIP3      H1             12.8613903596      -22.0534901242        5.3812609712  SOLV      3939            0.0000000000
     11937      3950  TIP3      H2             12.9768085766      -21.6998676419        3.9290574092  SOLV      3939            0.0000000000
     11938      3951  TIP3      OH2            18.5557775657      -17.2815306237       20.4064759996  SOLV      3940            0.0000000000
     11939      3951  TIP3      H1             18.1597593860      -17.1179588711       19.5300551623  SOLV      3940            0.0000000000
     11940      3951  TIP3      H2             18.8672792543      -18.2110105064       20.3224680974  SOLV      3940            0.0000000000
     11941      3952  TIP3      OH2            17.4715049560      -19.7153045827        2.6861896755  SOLV      3941            0.0000000000
     11942      3952  TIP3      H1             17.4593049002      -19.5797522504        3.6561724112  SOLV      3941            0.0000000000
     11943      3952  TIP3      H2             17.4496992151      -20.6960214463        2.6407226714  SOLV      3941            0.0000000000
     11944      3953  TIP3      OH2            23.3813593529      -17.1474568255       16.4204432738  SOLV      3942            0.0000000000
     11945      3953  TIP3      H1             24.1514197726      -16.7590005739       15.9574686827  SOLV      3942            0.0000000000
     11946      3953  TIP3      H2             22.7250080292      -16.4348785015       16.2889724490  SOLV      3942            0.0000000000
     11947      3954  TIP3      OH2            13.7689130151      -20.8288856753       22.4838861059  SOLV      3943            0.0000000000
     11948      3954  TIP3      H1             14.5736848185      -21.2719699304       22.1892306258  SOLV      3943            0.0000000000
     11949      3954  TIP3      H2             14.0298613562      -20.5294373963       23.3807457192  SOLV      3943            0.0000000000
     11950      3955  TIP3      OH2            14.2788421991      -22.5851643464        6.7844954681  SOLV      3944            0.0000000000
     11951      3955  TIP3      H1             14.0124926549      -23.0192552601        7.6125758775  SOLV      3944            0.0000000000
     11952      3955  TIP3      H2             14.6833842362      -23.3323863848        6.2939850863  SOLV      3944            0.0000000000
     11953      3956  TIP3      OH2            17.1011085743      -21.8012847824       19.1655025093  SOLV      3945            0.0000000000
     11954      3956  TIP3      H1             16.2658849630      -21.2898446117       19.1388586856  SOLV      3945            0.0000000000
     11955      3956  TIP3      H2             17.5191136931      -21.5677387881       18.3061502477  SOLV      3945            0.0000000000
     11956      3957  TIP3      OH2            15.3950625919      -24.5835666613        5.2176269341  SOLV      3946            0.0000000000
     11957      3957  TIP3      H1             15.1407679324      -24.5611192782        4.2746155121  SOLV      3946            0.0000000000
     11958      3957  TIP3      H2             16.3716780803      -24.6005267033        5.1464381919  SOLV      3946            0.0000000000
     11959      3958  TIP3      OH2            22.1856002064      -17.9118871315       20.3413531781  SOLV      3947            0.0000000000
     11960      3958  TIP3      H1             23.0295773766      -18.1862342543       19.9730219806  SOLV      3947            0.0000000000
     11961      3958  TIP3      H2             22.1102121653      -18.4850712452       21.1340848514  SOLV      3947            0.0000000000
     11962      3959  TIP3      OH2            23.5227802540      -21.4474876115        1.9083338323  SOLV      3948            0.0000000000
     11963      3959  TIP3      H1             23.3476457858      -21.8553788580        1.0407614496  SOLV      3948            0.0000000000
     11964      3959  TIP3      H2             23.2205676950      -20.5303614152        1.7107564696  SOLV      3948            0.0000000000
     11965      3960  TIP3      OH2            18.2145057978      -23.7577144439       20.5919584822  SOLV      3949            0.0000000000
     11966      3960  TIP3      H1             18.0977063402      -24.5457646111       20.0062418612  SOLV      3949            0.0000000000
     11967      3960  TIP3      H2             17.7977593211      -23.0659962774       20.0185290416  SOLV      3949            0.0000000000
     11968      3961  TIP3      OH2            18.0150571023      -25.6546005900       18.7346167038  SOLV      3950            0.0000000000
     11969      3961  TIP3      H1             18.3396642295      -25.3277275896       17.8739802484  SOLV      3950            0.0000000000
     11970      3961  TIP3      H2             17.1409359539      -26.0324662920       18.5062218392  SOLV      3950            0.0000000000
     11971      3962  TIP3      OH2            18.5411831669      -20.9153672638       17.0901708689  SOLV      3951            0.0000000000
     11972      3962  TIP3      H1             19.4054039417      -20.7279359903       16.7190650078  SOLV      3951            0.0000000000
     11973      3962  TIP3      H2             17.9755296556      -20.2405841270       16.6514898226  SOLV      3951            0.0000000000
     11974      3963  TIP3      OH2            24.7105854417      -18.7209167057       18.1285941349  SOLV      3952            0.0000000000
     11975      3963  TIP3      H1             24.1389174946      -18.1292684866       17.5796140069  SOLV      3952            0.0000000000
     11976      3963  TIP3      H2             25.5845193833      -18.5760834980       17.6982198215  SOLV      3952            0.0000000000
     11977      3964  TIP3      OH2            16.9817901519      -22.4630930539       22.6695418156  SOLV      3953            0.0000000000
     11978      3964  TIP3      H1             16.2432190968      -23.0906424047       22.7871245313  SOLV      3953            0.0000000000
     11979      3964  TIP3      H2             17.4347258757      -22.8670373229       21.8987671378  SOLV      3953            0.0000000000
     11980      3965  TIP3      OH2            20.8711626444      -23.4585073198       20.9572726147  SOLV      3954            0.0000000000
     11981      3965  TIP3      H1             20.7107507666      -23.3939669058       21.9341133387  SOLV      3954            0.0000000000
     11982      3965  TIP3      H2             19.9297859872      -23.5853232150       20.7075306691  SOLV      3954            0.0000000000
     11983      3966  TIP3      OH2            22.8945470356      -23.9950564503       19.1770339273  SOLV      3955            0.0000000000
     11984      3966  TIP3      H1             22.1744097991      -23.8338491516       19.8220113286  SOLV      3955            0.0000000000
     11985      3966  TIP3      H2             23.5018700619      -24.5175667024       19.7307522258  SOLV      3955            0.0000000000
     11986      3967  TIP3      OH2            15.0754160976      -24.3775301106       22.9884276664  SOLV      3956            0.0000000000
     11987      3967  TIP3      H1             15.5040142113      -25.1860978221       22.6381069703  SOLV      3956            0.0000000000
     11988      3967  TIP3      H2             15.1614903695      -24.5214897073       23.9433517175  SOLV      3956            0.0000000000
     11989      3968  TIP3      OH2            13.4795458172      -14.1108342187        4.3018349634  SOLV      3957            0.0000000000
     11990      3968  TIP3      H1             14.4268659128      -14.1926330798        4.0877667115  SOLV      3957            0.0000000000
     11991      3968  TIP3      H2             13.1844415973      -13.5734051191        3.5430051054  SOLV      3957            0.0000000000
     11992      3969  TIP3      OH2             8.2418257011      -20.2549716917        6.3972394339  SOLV      3958            0.0000000000
     11993      3969  TIP3      H1              9.1976322198      -20.0534955689        6.2870953615  SOLV      3958            0.0000000000
     11994      3969  TIP3      H2              8.1867566709      -21.1434991403        5.9851779503  SOLV      3958            0.0000000000
     11995      3970  TIP3      OH2             7.4214858467      -14.1811075363       10.6209614765  SOLV      3959            0.0000000000
     11996      3970  TIP3      H1              6.7528015013      -14.7799514078       10.2215780786  SOLV      3959            0.0000000000
     11997      3970  TIP3      H2              7.8558375810      -14.7903720278       11.2549724809  SOLV      3959            0.0000000000
     11998      3971  TIP3      OH2             8.7540711385      -15.7381766782       12.4666653075  SOLV      3960            0.0000000000
     11999      3971  TIP3      H1              8.6187762202      -16.4183511349       13.1483454697  SOLV      3960            0.0000000000
     12000      3971  TIP3      H2              9.2691467467      -15.0868340541       12.9757635603  SOLV      3960            0.0000000000
     12001      3972  TIP3      OH2            26.0237992167      -11.6766379712       10.4512797592  SOLV      3961            0.0000000000
     12002      3972  TIP3      H1             26.2741057423      -11.4475752935       11.3692671925  SOLV      3961            0.0000000000
     12003      3972  TIP3      H2             26.6818022953      -11.1914745124        9.9318366288  SOLV      3961            0.0000000000
     12004      3973  TIP3      OH2            26.2642586749      -11.5295992635       13.2045119588  SOLV      3962            0.0000000000
     12005      3973  TIP3      H1             25.8614499335      -12.4231500859       13.2062735116  SOLV      3962            0.0000000000
     12006      3973  TIP3      H2             26.9605015063      -11.6785922601       13.8774278815  SOLV      3962            0.0000000000
     12007      3974  TIP3      OH2            26.7976390999      -14.7096531554       19.0731178974  SOLV      3963            0.0000000000
     12008      3974  TIP3      H1             26.0115724077      -14.5723508119       19.6342598154  SOLV      3963            0.0000000000
     12009      3974  TIP3      H2             27.1543108027      -13.8005393714       19.0006118255  SOLV      3963            0.0000000000
     12010      3975  TIP3      OH2            24.9534857882      -19.5472813092        5.1698298831  SOLV      3964            0.0000000000
     12011      3975  TIP3      H1             25.6347303081      -18.9047430210        4.8870420003  SOLV      3964            0.0000000000
     12012      3975  TIP3      H2             25.3898795330      -19.9446608392        5.9574122826  SOLV      3964            0.0000000000
     12013      3976  TIP3      OH2            26.2084783338      -20.8724326525        7.2037158863  SOLV      3965            0.0000000000
     12014      3976  TIP3      H1             25.5580949409      -21.2638962491        7.8264696944  SOLV      3965            0.0000000000
     12015      3976  TIP3      H2             26.9067877056      -20.5339273541        7.8064780602  SOLV      3965            0.0000000000
     12016      3977  TIP3      OH2            26.8148892653      -16.9276634167       11.5737973178  SOLV      3966            0.0000000000
     12017      3977  TIP3      H1             27.3230507383      -17.6071676064       11.0941125251  SOLV      3966            0.0000000000
     12018      3977  TIP3      H2             26.7853368224      -16.1925937495       10.9305513591  SOLV      3966            0.0000000000
     12019      3978  TIP3      OH2            24.9963790000      -13.9845470899       13.4587246735  SOLV      3967            0.0000000000
     12020      3978  TIP3      H1             24.3012294159      -13.5329680994       13.9729815557  SOLV      3967            0.0000000000
     12021      3978  TIP3      H2             24.4846979562      -14.4309618605       12.7512405550  SOLV      3967            0.0000000000
     12022      3979  TIP3      OH2            25.5717947091      -21.8088917745        3.7080675862  SOLV      3968            0.0000000000
     12023      3979  TIP3      H1             24.8482658146      -21.7794259544        3.0427183595  SOLV      3968            0.0000000000
     12024      3979  TIP3      H2             25.3224624121      -21.0363670401        4.2554131460  SOLV      3968            0.0000000000
     12025      3980  TIP3      OH2            24.3878143059      -25.0033096073        3.1215118903  SOLV      3969            0.0000000000
     12026      3980  TIP3      H1             23.8860971111      -24.5851313988        2.4136680729  SOLV      3969            0.0000000000
     12027      3980  TIP3      H2             24.0041793668      -25.9058670924        3.1262507843  SOLV      3969            0.0000000000
     12028      3981  TIP3      OH2            24.3134785574      -22.2126363446        8.6948270132  SOLV      3970            0.0000000000
     12029      3981  TIP3      H1             24.3616263156      -23.1800268471        8.5912260336  SOLV      3970            0.0000000000
     12030      3981  TIP3      H2             24.1619995813      -22.1113590632        9.6598659182  SOLV      3970            0.0000000000
     12031      3982  TIP3      OH2            10.5737688976      -21.5741696529       16.1909272254  SOLV      3971            0.0000000000
     12032      3982  TIP3      H1             10.5383518780      -21.9336874518       15.2782288311  SOLV      3971            0.0000000000
     12033      3982  TIP3      H2             11.5501914185      -21.5657952768       16.3376266673  SOLV      3971            0.0000000000
     12034      3983  TIP3      OH2            27.2066018906      -18.3249587327       17.0451899215  SOLV      3972            0.0000000000
     12035      3983  TIP3      H1             27.9607774880      -18.9380778858       17.0448998464  SOLV      3972            0.0000000000
     12036      3983  TIP3      H2             27.5056467742      -17.6329897720       16.4314966324  SOLV      3972            0.0000000000
     12037      3984  TIP3      OH2            23.4181914048      -27.5196118593        3.6319624510  SOLV      3973            0.0000000000
     12038      3984  TIP3      H1             23.7794711678      -27.6228561762        4.5209538942  SOLV      3973            0.0000000000
     12039      3984  TIP3      H2             22.5323479218      -27.8899806473        3.7580957220  SOLV      3973            0.0000000000
     12040      3985  TIP3      OH2            24.2933804379      -24.9211611410        7.6583403575  SOLV      3974            0.0000000000
     12041      3985  TIP3      H1             24.4036961259      -25.8853560533        7.5571192817  SOLV      3974            0.0000000000
     12042      3985  TIP3      H2             24.9287983463      -24.6000842251        6.9890980281  SOLV      3974            0.0000000000
     12043      3986  TIP3      OH2            25.8701085849      -23.4376935241       12.5273085214  SOLV      3975            0.0000000000
     12044      3986  TIP3      H1             26.7389351409      -23.2234181028       12.1195147437  SOLV      3975            0.0000000000
     12045      3986  TIP3      H2             26.0195591207      -23.0772496576       13.4230715334  SOLV      3975            0.0000000000
     12046      3987  TIP3      OH2            26.5668651093      -21.9275483351       14.7882808807  SOLV      3976            0.0000000000
     12047      3987  TIP3      H1             25.7768057532      -21.5730870539       15.2383630886  SOLV      3976            0.0000000000
     12048      3987  TIP3      H2             26.9384236937      -21.1160989535       14.3781931126  SOLV      3976            0.0000000000
     12049      3988  TIP3      OH2            12.3867025638      -24.7984314370       22.7691877022  SOLV      3977            0.0000000000
     12050      3988  TIP3      H1             13.3505167473      -24.6784774567       22.6191137408  SOLV      3977            0.0000000000
     12051      3988  TIP3      H2             12.3892262238      -25.1359388747       23.6709137482  SOLV      3977            0.0000000000
     12052      3989  TIP3      OH2            12.3151631518      -27.7079619334       16.1870926437  SOLV      3978            0.0000000000
     12053      3989  TIP3      H1             13.0577503500      -28.3074452876       15.9694859391  SOLV      3978            0.0000000000
     12054      3989  TIP3      H2             12.8075348413      -26.8719451551       16.2446373373  SOLV      3978            0.0000000000
     12055      3990  TIP3      OH2            10.3754203355      -25.0639047364       16.8842800919  SOLV      3979            0.0000000000
     12056      3990  TIP3      H1             10.8856997832      -25.0389378569       16.0514317341  SOLV      3979            0.0000000000
     12057      3990  TIP3      H2             10.7028799400      -24.2816503101       17.3387833948  SOLV      3979            0.0000000000
     12058      3991  TIP3      OH2            21.8264624103      -12.9662744091        7.0064156946  SOLV      3980            0.0000000000
     12059      3991  TIP3      H1             22.3794893650      -13.0769271882        6.2058687556  SOLV      3980            0.0000000000
     12060      3991  TIP3      H2             22.3549093421      -12.3475287573        7.5355141829  SOLV      3980            0.0000000000
     12061      3992  TIP3      OH2            12.8378415046      -14.8752829887       20.9089259942  SOLV      3981            0.0000000000
     12062      3992  TIP3      H1             11.9102483979      -15.1154099824       20.7160371383  SOLV      3981            0.0000000000
     12063      3992  TIP3      H2             12.9424532824      -15.2236912188       21.8013543264  SOLV      3981            0.0000000000
     12064      3993  TIP3      OH2            14.6954452996      -14.5461979671       16.3854965197  SOLV      3982            0.0000000000
     12065      3993  TIP3      H1             14.1979945569      -13.8037433970       15.9830103781  SOLV      3982            0.0000000000
     12066      3993  TIP3      H2             15.5396936376      -14.4239860568       15.9014860315  SOLV      3982            0.0000000000
     12067      3994  TIP3      OH2            18.9414562234      -12.0579621438       17.8760580578  SOLV      3983            0.0000000000
     12068      3994  TIP3      H1             19.5304291014      -12.2111672966       18.6418704063  SOLV      3983            0.0000000000
     12069      3994  TIP3      H2             19.5676157505      -11.6290270120       17.2524240599  SOLV      3983            0.0000000000
     12070      3995  TIP3      OH2            20.7862088795      -10.6443841653       16.3875692503  SOLV      3984            0.0000000000
     12071      3995  TIP3      H1             21.4605435594      -11.1259545322       15.8857664937  SOLV      3984            0.0000000000
     12072      3995  TIP3      H2             21.3538016699      -10.0525799485       16.9279801281  SOLV      3984            0.0000000000
     12073      3996  TIP3      OH2            11.4103247955      -11.9914167943       16.6187323050  SOLV      3985            0.0000000000
     12074      3996  TIP3      H1             10.5444937761      -11.6609207543       16.2916858227  SOLV      3985            0.0000000000
     12075      3996  TIP3      H2             11.2870348265      -11.8474557875       17.5607234404  SOLV      3985            0.0000000000
     12076      3997  TIP3      OH2            13.7772573998      -12.2126156267       15.2245194642  SOLV      3986            0.0000000000
     12077      3997  TIP3      H1             12.8973889367      -12.0849656241       15.6455305822  SOLV      3986            0.0000000000
     12078      3997  TIP3      H2             13.5963400197      -11.9101653717       14.3119643053  SOLV      3986            0.0000000000
     12079      3998  TIP3      OH2            18.0055779342      -12.0068074406       13.1638839440  SOLV      3987            0.0000000000
     12080      3998  TIP3      H1             17.3167088799      -11.8234316610       12.4980851479  SOLV      3987            0.0000000000
     12081      3998  TIP3      H2             18.1172625897      -11.1254550992       13.5796521526  SOLV      3987            0.0000000000
     12082      3999  TIP3      OH2            20.7001169322      -12.5958312117       13.7181228701  SOLV      3988            0.0000000000
     12083      3999  TIP3      H1             19.7665831361      -12.4195349672       13.4882580855  SOLV      3988            0.0000000000
     12084      3999  TIP3      H2             21.1608124295      -11.8989354244       13.2198648777  SOLV      3988            0.0000000000
     12085      4000  TIP3      OH2            22.6746538717      -10.7242683605       12.7668493713  SOLV      3989            0.0000000000
     12086      4000  TIP3      H1             22.5633533112       -9.8685127779       12.3317691640  SOLV      3989            0.0000000000
     12087      4000  TIP3      H2             23.0013637811      -11.2920661609       12.0342825070  SOLV      3989            0.0000000000
     12088      4001  TIP3      OH2            10.5181166117      -14.1148695134       14.0155953545  SOLV      3990            0.0000000000
     12089      4001  TIP3      H1             10.7781107912      -14.4276586548       14.9091872510  SOLV      3990            0.0000000000
     12090      4001  TIP3      H2             11.2477542354      -14.5196305753       13.4935118924  SOLV      3990            0.0000000000
     12091      4002  TIP3      OH2            12.4850518652      -15.3696699895       12.6306425544  SOLV      3991            0.0000000000
     12092      4002  TIP3      H1             12.6273861578      -16.2139677405       13.1191957266  SOLV      3991            0.0000000000
     12093      4002  TIP3      H2             13.3999373846      -15.0181186505       12.6010171826  SOLV      3991            0.0000000000
     12094      4003  TIP3      OH2            15.1647871083      -14.4772595743       12.6820809626  SOLV      3992            0.0000000000
     12095      4003  TIP3      H1             15.4374771315      -15.4107633867       12.5828943294  SOLV      3992            0.0000000000
     12096      4003  TIP3      H2             15.6582238590      -14.2497618716       13.4916365863  SOLV      3992            0.0000000000
     12097      4004  TIP3      OH2             8.3827699678      -16.3235801657        7.8943218538  SOLV      3993            0.0000000000
     12098      4004  TIP3      H1              7.5212865865      -16.6486346834        7.5690891717  SOLV      3993            0.0000000000
     12099      4004  TIP3      H2              8.3023578479      -15.3866635774        7.6354306291  SOLV      3993            0.0000000000
     12100      4005  TIP3      OH2            16.1380815012      -14.5779208751        3.7695012589  SOLV      3994            0.0000000000
     12101      4005  TIP3      H1             17.0066940060      -14.3326160170        3.3870518785  SOLV      3994            0.0000000000
     12102      4005  TIP3      H2             15.9079388607      -15.3221667760        3.1675347139  SOLV      3994            0.0000000000
     12103      4006  TIP3      OH2            23.3383998737      -13.2982018287        4.7092751352  SOLV      3995            0.0000000000
     12104      4006  TIP3      H1             23.2549507948      -14.2750952486        4.5921176744  SOLV      3995            0.0000000000
     12105      4006  TIP3      H2             22.8690854268      -12.9825048134        3.9101197297  SOLV      3995            0.0000000000
     12106      4007  TIP3      OH2             9.1393908489      -16.1868699750        4.2904712061  SOLV      3996            0.0000000000
     12107      4007  TIP3      H1              9.1852000971      -15.9708223250        5.2317965410  SOLV      3996            0.0000000000
     12108      4007  TIP3      H2             10.0147427514      -16.6140160271        4.1335361360  SOLV      3996            0.0000000000
     12109      4008  TIP3      OH2            25.4168788835      -11.8959000069       16.6190253458  SOLV      3997            0.0000000000
     12110      4008  TIP3      H1             24.6563385908      -12.1617743745       16.0601015418  SOLV      3997            0.0000000000
     12111      4008  TIP3      H2             25.2912088327      -10.9260291965       16.6420809531  SOLV      3997            0.0000000000
     12112      4009  TIP3      OH2            31.2041496941      -18.8384686061       11.4998379302  SOLV      3998            0.0000000000
     12113      4009  TIP3      H1             31.4238991340      -19.3985569778       12.2548469386  SOLV      3998            0.0000000000
     12114      4009  TIP3      H2             31.9825704245      -18.2576475803       11.4766723621  SOLV      3998            0.0000000000
     12115      4010  TIP3      OH2            30.6474137357      -15.0166011436        8.9952049927  SOLV      3999            0.0000000000
     12116      4010  TIP3      H1             30.6828716857      -15.9763791223        8.9066734424  SOLV      3999            0.0000000000
     12117      4010  TIP3      H2             31.5862231541      -14.7798113301        8.8169388099  SOLV      3999            0.0000000000
     12118      4011  TIP3      OH2            27.9922445556      -22.9784829889        6.7129066393  SOLV      4000            0.0000000000
     12119      4011  TIP3      H1             27.4649266034      -22.1729039884        6.8612250319  SOLV      4000            0.0000000000
     12120      4011  TIP3      H2             27.3153383221      -23.5667512726        6.3403155066  SOLV      4000            0.0000000000
     12121      4012  TIP3      OH2            28.5505275272      -20.2467298784        8.5586650059  SOLV      4001            0.0000000000
     12122      4012  TIP3      H1             29.0525699845      -21.0589029130        8.7863112536  SOLV      4001            0.0000000000
     12123      4012  TIP3      H2             29.2749695251      -19.6654891351        8.2652223305  SOLV      4001            0.0000000000
     12124      4013  TIP3      OH2            30.2417872902      -22.2489656479        9.5696451328  SOLV      4002            0.0000000000
     12125      4013  TIP3      H1             31.1449813660      -21.9297024915        9.6519836508  SOLV      4002            0.0000000000
     12126      4013  TIP3      H2             30.3380083421      -22.8905850438        8.8289615940  SOLV      4002            0.0000000000
     12127      4014  TIP3      OH2            32.1175652378      -14.7703572465       12.8238733785  SOLV      4003            0.0000000000
     12128      4014  TIP3      H1             32.3422031987      -14.1092193568       12.1319223923  SOLV      4003            0.0000000000
     12129      4014  TIP3      H2             31.3901127819      -15.2315790365       12.4176470250  SOLV      4003            0.0000000000
     12130      4015  TIP3      OH2            26.9552646280      -17.8386444171        4.0975006676  SOLV      4004            0.0000000000
     12131      4015  TIP3      H1             26.5420456376      -17.5504224606        3.2689055109  SOLV      4004            0.0000000000
     12132      4015  TIP3      H2             27.2674540814      -16.9892915164        4.4710876585  SOLV      4004            0.0000000000
     12133      4016  TIP3      OH2            32.2287208197      -11.0026781546       13.8463809166  SOLV      4005            0.0000000000
     12134      4016  TIP3      H1             32.2102247708      -11.6465378856       13.1231760343  SOLV      4005            0.0000000000
     12135      4016  TIP3      H2             31.8364269421      -11.4983710360       14.5926089101  SOLV      4005            0.0000000000
     12136      4017  TIP3      OH2            28.9156040309      -16.4718809717       13.5325874863  SOLV      4006            0.0000000000
     12137      4017  TIP3      H1             28.2431241063      -16.7491638441       12.8838224555  SOLV      4006            0.0000000000
     12138      4017  TIP3      H2             29.2856921199      -17.3152934687       13.8601376246  SOLV      4006            0.0000000000
     12139      4018  TIP3      OH2            27.3618597388      -14.6263242018        9.8427378289  SOLV      4007            0.0000000000
     12140      4018  TIP3      H1             28.3193522143      -14.6362384309        9.6978345991  SOLV      4007            0.0000000000
     12141      4018  TIP3      H2             27.2640822199      -13.8457683251       10.4110386178  SOLV      4007            0.0000000000
     12142      4019  TIP3      OH2            28.8709287102      -12.5023471962        5.2306608981  SOLV      4008            0.0000000000
     12143      4019  TIP3      H1             29.4199353955      -12.4983468173        6.0495399017  SOLV      4008            0.0000000000
     12144      4019  TIP3      H2             28.3052869325      -13.2717874348        5.3951883264  SOLV      4008            0.0000000000
     12145      4020  TIP3      OH2            28.5935193036      -25.7137344502        8.9940058254  SOLV      4009            0.0000000000
     12146      4020  TIP3      H1             29.0110810714      -25.3357306271        9.7933583720  SOLV      4009            0.0000000000
     12147      4020  TIP3      H2             28.8569380087      -26.6318603804        9.0645788165  SOLV      4009            0.0000000000
     12148      4021  TIP3      OH2            28.2307987597      -25.8903879957        4.8151387156  SOLV      4010            0.0000000000
     12149      4021  TIP3      H1             28.5372094330      -25.5801065408        3.9413775731  SOLV      4010            0.0000000000
     12150      4021  TIP3      H2             27.5273317343      -25.2439165774        4.9817732043  SOLV      4010            0.0000000000
     12151      4022  TIP3      OH2            30.4627196011      -23.9452291734        7.3253999894  SOLV      4011            0.0000000000
     12152      4022  TIP3      H1             29.6945856065      -23.4435026739        6.9606075446  SOLV      4011            0.0000000000
     12153      4022  TIP3      H2             30.0118038987      -24.7645476936        7.5406333629  SOLV      4011            0.0000000000
     12154      4023  TIP3      OH2            30.8000302212      -18.6279826762        8.6305199179  SOLV      4012            0.0000000000
     12155      4023  TIP3      H1             31.5701161937      -18.2172271188        8.2150880284  SOLV      4012            0.0000000000
     12156      4023  TIP3      H2             31.1187490657      -18.7067405751        9.5456667319  SOLV      4012            0.0000000000
     12157      4024  TIP3      OH2            29.7499963151      -18.7119149139       15.0434488630  SOLV      4013            0.0000000000
     12158      4024  TIP3      H1             29.9846230229      -19.0021989405       15.9399182092  SOLV      4013            0.0000000000
     12159      4024  TIP3      H2             29.0999495217      -19.3758666261       14.7542832087  SOLV      4013            0.0000000000
     12160      4025  TIP3      OH2            31.5080670911      -14.9360162882        4.9844197783  SOLV      4014            0.0000000000
     12161      4025  TIP3      H1             31.4459806430      -14.0176591938        4.6665725601  SOLV      4014            0.0000000000
     12162      4025  TIP3      H2             30.5951941332      -15.1031600903        5.2482111979  SOLV      4014            0.0000000000
     12163      4026  TIP3      OH2            27.8648570237      -21.8804311892        2.1799451715  SOLV      4015            0.0000000000
     12164      4026  TIP3      H1             28.3336136270      -21.0417421895        2.3939846473  SOLV      4015            0.0000000000
     12165      4026  TIP3      H2             27.0818095934      -21.8032718004        2.7693446540  SOLV      4015            0.0000000000
     12166      4027  TIP3      OH2            30.9623641457      -12.4405510246        3.5042523706  SOLV      4016            0.0000000000
     12167      4027  TIP3      H1             30.1063179230      -12.4798794057        3.9855458605  SOLV      4016            0.0000000000
     12168      4027  TIP3      H2             30.9362358449      -11.5278583922        3.1870476465  SOLV      4016            0.0000000000
     12169      4028  TIP3      OH2            29.1078396978      -12.6429302884       11.1972864797  SOLV      4017            0.0000000000
     12170      4028  TIP3      H1             29.8960810751      -13.1857156265       11.3158505599  SOLV      4017            0.0000000000
     12171      4028  TIP3      H2             29.2599388438      -11.9232873659       11.8301479198  SOLV      4017            0.0000000000
     12172      4029  TIP3      OH2            28.9307425008      -19.4265991843        2.8290813034  SOLV      4018            0.0000000000
     12173      4029  TIP3      H1             28.3402004788      -19.0072393314        3.4853850509  SOLV      4018            0.0000000000
     12174      4029  TIP3      H2             29.0504184087      -18.6931992284        2.1990906077  SOLV      4018            0.0000000000
     12175      4030  TIP3      OH2            28.9508931869      -17.2827999576        0.9876466923  SOLV      4019            0.0000000000
     12176      4030  TIP3      H1             29.1633872204      -16.3379344550        0.9875914058  SOLV      4019            0.0000000000
     12177      4030  TIP3      H2             29.6740519594      -17.6472683258        0.4543235739  SOLV      4019            0.0000000000
     12178      4031  TIP3      OH2            28.3361800454      -24.5839350703        2.3261920730  SOLV      4020            0.0000000000
     12179      4031  TIP3      H1             28.3169782469      -23.6038903047        2.3344573368  SOLV      4020            0.0000000000
     12180      4031  TIP3      H2             27.4875189170      -24.7954243733        1.9276375894  SOLV      4020            0.0000000000
     12181      4032  TIP3      OH2            27.5244089186      -15.1566616541        4.8171911875  SOLV      4021            0.0000000000
     12182      4032  TIP3      H1             26.8891553296      -14.8890781075        5.4906463316  SOLV      4021            0.0000000000
     12183      4032  TIP3      H2             27.2003272352      -14.6753052262        4.0258201260  SOLV      4021            0.0000000000
     12184      4033  TIP3      OH2            29.1497886989       -9.7653998788       15.5396345694  SOLV      4022            0.0000000000
     12185      4033  TIP3      H1             30.0044439174       -9.8580473979       16.0046670185  SOLV      4022            0.0000000000
     12186      4033  TIP3      H2             28.8704975173      -10.7013554753       15.4785175501  SOLV      4022            0.0000000000
     12187      4034  TIP3      OH2            33.9248795770      -10.0064753044       16.2238130982  SOLV      4023            0.0000000000
     12188      4034  TIP3      H1             34.6374210145       -9.4436701831       15.9051295521  SOLV      4023            0.0000000000
     12189      4034  TIP3      H2             33.5003037431      -10.2942847669       15.3901868023  SOLV      4023            0.0000000000
     12190      4035  TIP3      OH2            30.6062170664      -15.9534845465       16.5142805471  SOLV      4024            0.0000000000
     12191      4035  TIP3      H1             30.5941970991      -16.7814459413       16.9770941372  SOLV      4024            0.0000000000
     12192      4035  TIP3      H2             29.6592398236      -15.7548833965       16.4539530405  SOLV      4024            0.0000000000
     12193      4036  TIP3      OH2            26.2166760597      -17.6778391927        1.1827544634  SOLV      4025            0.0000000000
     12194      4036  TIP3      H1             27.1887295088      -17.5507829771        1.1331223573  SOLV      4025            0.0000000000
     12195      4036  TIP3      H2             26.1306195016      -18.5983018122        0.8481494167  SOLV      4025            0.0000000000
     12196      4037  TIP3      OH2            25.3435523290      -11.6006795807        5.5283084481  SOLV      4026            0.0000000000
     12197      4037  TIP3      H1             24.7015432453      -12.2176458119        5.1141581288  SOLV      4026            0.0000000000
     12198      4037  TIP3      H2             25.8084916439      -12.2074414770        6.1425964745  SOLV      4026            0.0000000000
     12199      4038  TIP3      OH2            26.7267299873      -13.1971914236        7.3221357584  SOLV      4027            0.0000000000
     12200      4038  TIP3      H1             26.5782769621      -13.8387175824        8.0382160056  SOLV      4027            0.0000000000
     12201      4038  TIP3      H2             27.2317955736      -12.5197962617        7.8132831150  SOLV      4027            0.0000000000
     12202      4039  TIP3      OH2            28.5026821111      -19.0649779056       11.0433353175  SOLV      4028            0.0000000000
     12203      4039  TIP3      H1             28.4265485470      -19.4503666705       10.1426619875  SOLV      4028            0.0000000000
     12204      4039  TIP3      H2             29.4748609797      -18.9369568362       11.1111765160  SOLV      4028            0.0000000000
     12205      4040  TIP3      OH2            30.4704524991      -25.1679750702       10.9873002885  SOLV      4029            0.0000000000
     12206      4040  TIP3      H1             31.2227113925      -25.6670289943       10.6752484756  SOLV      4029            0.0000000000
     12207      4040  TIP3      H2             30.8998607659      -24.3088886532       11.1329177074  SOLV      4029            0.0000000000
     12208      4041  TIP3      OH2            28.3696388136      -22.5376418543       11.6986317125  SOLV      4030            0.0000000000
     12209      4041  TIP3      H1             28.9421724899      -22.5109550953       10.9061820362  SOLV      4030            0.0000000000
     12210      4041  TIP3      H2             28.5506294902      -21.6849130813       12.1027312999  SOLV      4030            0.0000000000
     12211      4042  TIP3      OH2            32.1827056039      -12.4864909690       11.1836683250  SOLV      4031            0.0000000000
     12212      4042  TIP3      H1             31.8104365965      -11.6692323308       10.7955397069  SOLV      4031            0.0000000000
     12213      4042  TIP3      H2             33.0929428114      -12.3916730657       10.8463120410  SOLV      4031            0.0000000000
     12214      4043  TIP3      OH2            29.3795803530       -9.5347096711       11.4262263860  SOLV      4032            0.0000000000
     12215      4043  TIP3      H1             28.4863357819       -9.1718283814       11.2272393825  SOLV      4032            0.0000000000
     12216      4043  TIP3      H2             29.5472603017       -9.1243672114       12.2813190185  SOLV      4032            0.0000000000
     12217      4044  TIP3      OH2            31.7684431176       -9.9215664930       10.1186106712  SOLV      4033            0.0000000000
     12218      4044  TIP3      H1             30.8904778997       -9.7276590216       10.5161582382  SOLV      4033            0.0000000000
     12219      4044  TIP3      H2             31.6376064997       -9.5552155396        9.2131631979  SOLV      4033            0.0000000000
     12220      4045  TIP3      OH2            28.4093113228      -11.4957326436        8.8044207336  SOLV      4034            0.0000000000
     12221      4045  TIP3      H1             28.6441075804      -11.7831902505        9.7154689644  SOLV      4034            0.0000000000
     12222      4045  TIP3      H2             29.1889664057      -11.8581358980        8.3234766556  SOLV      4034            0.0000000000
     12223      4046  TIP3      OH2            30.4185225657      -12.6677266918        7.4442735225  SOLV      4035            0.0000000000
     12224      4046  TIP3      H1             30.6487616264      -13.4700418448        7.9528903835  SOLV      4035            0.0000000000
     12225      4046  TIP3      H2             31.3056009925      -12.2447770609        7.3288897361  SOLV      4035            0.0000000000
     12226      4047  TIP3      OH2            26.3511604680      -13.7777923157        2.7608285592  SOLV      4036            0.0000000000
     12227      4047  TIP3      H1             25.4857991249      -14.0898687718        2.4336240796  SOLV      4036            0.0000000000
     12228      4047  TIP3      H2             26.2836781632      -12.8380037262        2.5078669820  SOLV      4036            0.0000000000
     12229      4048  TIP3      OH2            26.9393543543      -13.5386612555       -0.7427944828  SOLV      4037            0.0000000000
     12230      4048  TIP3      H1             26.9775917645      -13.3055910507        0.1942804818  SOLV      4037            0.0000000000
     12231      4048  TIP3      H2             27.7890048000      -14.0271966918       -0.8641331984  SOLV      4037            0.0000000000
     12232      4049  TIP3      OH2           -19.2763276609       -7.6861934015       15.9663480527  SOLV      4038            0.0000000000
     12233      4049  TIP3      H1            -19.6061329051       -6.7956817653       15.7168549183  SOLV      4038            0.0000000000
     12234      4049  TIP3      H2            -19.9967266830       -8.2311796882       15.5996250403  SOLV      4038            0.0000000000
     12235      4050  TIP3      OH2           -19.2799310811       -7.6486525188       19.8695454645  SOLV      4039            0.0000000000
     12236      4050  TIP3      H1            -18.9213997691       -7.9730150885       20.7157627279  SOLV      4039            0.0000000000
     12237      4050  TIP3      H2            -19.6596199540       -8.4569519232       19.4905173520  SOLV      4039            0.0000000000
     12238      4051  TIP3      OH2           -26.1451820615       -8.5265322366       23.6164508593  SOLV      4040            0.0000000000
     12239      4051  TIP3      H1            -25.8788236433       -9.3448719821       24.0795255870  SOLV      4040            0.0000000000
     12240      4051  TIP3      H2            -25.4099040003       -8.4110451480       22.9905656628  SOLV      4040            0.0000000000
     12241      4052  TIP3      OH2           -16.8156044875       -4.6346845477       16.6368082445  SOLV      4041            0.0000000000
     12242      4052  TIP3      H1            -16.9887944511       -5.3340541260       17.2805989104  SOLV      4041            0.0000000000
     12243      4052  TIP3      H2            -16.4810892936       -3.9143804505       17.1921036057  SOLV      4041            0.0000000000
     12244      4053  TIP3      OH2           -26.5591084064       -4.7243525169       21.0478428833  SOLV      4042            0.0000000000
     12245      4053  TIP3      H1            -26.5978463826       -5.7004964120       20.9254032995  SOLV      4042            0.0000000000
     12246      4053  TIP3      H2            -25.6224054773       -4.5715524955       20.8089119415  SOLV      4042            0.0000000000
     12247      4054  TIP3      OH2           -29.5311979197      -12.4712872470       18.5613972453  SOLV      4043            0.0000000000
     12248      4054  TIP3      H1            -29.9749788711      -11.6699857202       18.8843379070  SOLV      4043            0.0000000000
     12249      4054  TIP3      H2            -30.1820393020      -13.1312619675       18.8090023404  SOLV      4043            0.0000000000
     12250      4055  TIP3      OH2           -28.7850524026       -9.6731883813       20.4356317008  SOLV      4044            0.0000000000
     12251      4055  TIP3      H1            -28.3172811833      -10.4962531691       20.6818841554  SOLV      4044            0.0000000000
     12252      4055  TIP3      H2            -28.4087216845       -9.4629370193       19.5742355929  SOLV      4044            0.0000000000
     12253      4056  TIP3      OH2           -20.2510394143       -0.0233249550       16.8229703923  SOLV      4045            0.0000000000
     12254      4056  TIP3      H1            -19.8693587098       -0.7739644122       16.3190203717  SOLV      4045            0.0000000000
     12255      4056  TIP3      H2            -20.6224295513       -0.4615494066       17.5929673381  SOLV      4045            0.0000000000
     12256      4057  TIP3      OH2           -21.3210346423       -5.4613803838       20.3026633028  SOLV      4046            0.0000000000
     12257      4057  TIP3      H1            -20.9032411976       -6.2139627136       19.8493465410  SOLV      4046            0.0000000000
     12258      4057  TIP3      H2            -20.5092127707       -4.9632301934       20.5341036860  SOLV      4046            0.0000000000
     12259      4058  TIP3      OH2           -11.1311221690      -12.2777754680       20.2595454849  SOLV      4047            0.0000000000
     12260      4058  TIP3      H1            -10.8398401163      -11.4276635054       20.6426847566  SOLV      4047            0.0000000000
     12261      4058  TIP3      H2            -10.8770094070      -12.1618973392       19.3263052698  SOLV      4047            0.0000000000
     12262      4059  TIP3      OH2           -17.1895522855      -10.4656187233       20.5798877758  SOLV      4048            0.0000000000
     12263      4059  TIP3      H1            -16.7254450529      -11.3067357661       20.7558680211  SOLV      4048            0.0000000000
     12264      4059  TIP3      H2            -17.5146536731      -10.6235549234       19.6718287458  SOLV      4048            0.0000000000
     12265      4060  TIP3      OH2           -23.7628362475      -13.8187102848       20.2485896771  SOLV      4049            0.0000000000
     12266      4060  TIP3      H1            -23.9261659190      -13.0861641949       19.6183063765  SOLV      4049            0.0000000000
     12267      4060  TIP3      H2            -24.2164903568      -14.5442448471       19.7677103248  SOLV      4049            0.0000000000
     12268      4061  TIP3      OH2           -16.8269656885      -12.8794735277       16.4306981845  SOLV      4050            0.0000000000
     12269      4061  TIP3      H1            -16.1050208940      -13.0189807998       17.0872749300  SOLV      4050            0.0000000000
     12270      4061  TIP3      H2            -16.3069163742      -12.5664129134       15.6681820847  SOLV      4050            0.0000000000
     12271      4062  TIP3      OH2           -27.4415202950      -11.8987424238       21.3598649907  SOLV      4051            0.0000000000
     12272      4062  TIP3      H1            -26.6158842546      -12.1289847827       21.8246834308  SOLV      4051            0.0000000000
     12273      4062  TIP3      H2            -27.3336480123      -12.4322478581       20.5444231436  SOLV      4051            0.0000000000
     12274      4063  TIP3      OH2           -23.0994306731       -9.8599257424       19.4188742053  SOLV      4052            0.0000000000
     12275      4063  TIP3      H1            -22.1429209539      -10.0715711943       19.4679576257  SOLV      4052            0.0000000000
     12276      4063  TIP3      H2            -23.4617446448      -10.6811410137       19.0205252574  SOLV      4052            0.0000000000
     12277      4064  TIP3      OH2           -10.3844584577      -10.1599470628       21.9698290471  SOLV      4053            0.0000000000
     12278      4064  TIP3      H1            -11.2409980899       -9.7146371927       21.7958361247  SOLV      4053            0.0000000000
     12279      4064  TIP3      H2            -10.1449482017       -9.7776455018       22.8279201626  SOLV      4053            0.0000000000
     12280      4065  TIP3      OH2           -23.7775301583      -14.0448135953       24.5978808256  SOLV      4054            0.0000000000
     12281      4065  TIP3      H1            -24.4347068854      -13.6610298675       23.9801080429  SOLV      4054            0.0000000000
     12282      4065  TIP3      H2            -24.3221393997      -14.4051762919       25.3046673487  SOLV      4054            0.0000000000
     12283      4066  TIP3      OH2           -20.4494973657       -5.5482760084       14.6766757910  SOLV      4055            0.0000000000
     12284      4066  TIP3      H1            -20.7705081297       -5.6591753493       13.7708333199  SOLV      4055            0.0000000000
     12285      4066  TIP3      H2            -20.8852816122       -4.7068140830       14.9288802631  SOLV      4055            0.0000000000
     12286      4067  TIP3      OH2           -22.8052422618       -6.2577041254       22.4883748241  SOLV      4056            0.0000000000
     12287      4067  TIP3      H1            -23.3907840253       -5.5503094919       22.8321361659  SOLV      4056            0.0000000000
     12288      4067  TIP3      H2            -22.3511058072       -5.8054308409       21.7444070982  SOLV      4056            0.0000000000
     12289      4068  TIP3      OH2           -14.8167489919      -12.8174573226       18.2410839380  SOLV      4057            0.0000000000
     12290      4068  TIP3      H1            -14.7209540188      -13.4320472492       18.9769022609  SOLV      4057            0.0000000000
     12291      4068  TIP3      H2            -14.2695040580      -12.0610592770       18.5261834874  SOLV      4057            0.0000000000
     12292      4069  TIP3      OH2           -25.0788357784      -12.8996014842       22.4468565655  SOLV      4058            0.0000000000
     12293      4069  TIP3      H1            -24.4433946783      -12.1712092418       22.6218296043  SOLV      4058            0.0000000000
     12294      4069  TIP3      H2            -24.6232604328      -13.3139193606       21.6756449296  SOLV      4058            0.0000000000
     12295      4070  TIP3      OH2           -24.4465787356       -4.2989750823       23.6907082671  SOLV      4059            0.0000000000
     12296      4070  TIP3      H1            -24.6751552047       -3.4580585082       23.2407828302  SOLV      4059            0.0000000000
     12297      4070  TIP3      H2            -25.2242639397       -4.4182008896       24.2727354170  SOLV      4059            0.0000000000
     12298      4071  TIP3      OH2           -30.4892594790       -7.5100369655       15.7148610634  SOLV      4060            0.0000000000
     12299      4071  TIP3      H1            -31.4325854540       -7.4046741100       15.5420328604  SOLV      4060            0.0000000000
     12300      4071  TIP3      H2            -30.2788731441       -6.6310640140       16.1034929615  SOLV      4060            0.0000000000
     12301      4072  TIP3      OH2           -16.1241284457       -2.1908501521       18.2866683913  SOLV      4061            0.0000000000
     12302      4072  TIP3      H1            -17.0258518992       -2.3053806517       18.6725796905  SOLV      4061            0.0000000000
     12303      4072  TIP3      H2            -16.2458192188       -1.3699872623       17.7843095298  SOLV      4061            0.0000000000
     12304      4073  TIP3      OH2           -13.2183829640      -13.2580247733       21.9308130693  SOLV      4062            0.0000000000
     12305      4073  TIP3      H1            -14.0918618867      -13.0396773022       21.5658266280  SOLV      4062            0.0000000000
     12306      4073  TIP3      H2            -12.6115258536      -12.9609012766       21.2204878008  SOLV      4062            0.0000000000
     12307      4074  TIP3      OH2           -20.2841226679      -16.9301123094       21.7585715009  SOLV      4063            0.0000000000
     12308      4074  TIP3      H1            -20.4320218169      -17.8697514073       21.9947659153  SOLV      4063            0.0000000000
     12309      4074  TIP3      H2            -21.0673559479      -16.5229655859       22.1895673875  SOLV      4063            0.0000000000
     12310      4075  TIP3      OH2           -19.1686624839       -1.7872524401       14.9965191191  SOLV      4064            0.0000000000
     12311      4075  TIP3      H1            -18.6801131047       -2.6197430550       14.7918578786  SOLV      4064            0.0000000000
     12312      4075  TIP3      H2            -18.5719236405       -1.1385738879       14.5609340514  SOLV      4064            0.0000000000
     12313      4076  TIP3      OH2           -17.7423102671       -3.9398894337       14.1190454654  SOLV      4065            0.0000000000
     12314      4076  TIP3      H1            -17.9388550805       -4.7650969121       13.6511531576  SOLV      4065            0.0000000000
     12315      4076  TIP3      H2            -17.3602327664       -4.2762630846       14.9590094156  SOLV      4065            0.0000000000
     12316      4077  TIP3      OH2           -13.9179136622       -3.1602554281       21.7266030919  SOLV      4066            0.0000000000
     12317      4077  TIP3      H1            -14.0125720957       -3.9210872594       21.1108785710  SOLV      4066            0.0000000000
     12318      4077  TIP3      H2            -14.0782825279       -2.4022683216       21.1271625597  SOLV      4066            0.0000000000
     12319      4078  TIP3      OH2           -20.9583872879       -9.1705594632       14.3344488909  SOLV      4067            0.0000000000
     12320      4078  TIP3      H1            -21.7500469521       -8.6464100467       14.0973829026  SOLV      4067            0.0000000000
     12321      4078  TIP3      H2            -20.5019942574       -9.2385330366       13.4738545078  SOLV      4067            0.0000000000
     12322      4079  TIP3      OH2           -21.3511468485      -11.3288621304       11.5711762459  SOLV      4068            0.0000000000
     12323      4079  TIP3      H1            -20.6360837646      -10.7717350164       11.9329139089  SOLV      4068            0.0000000000
     12324      4079  TIP3      H2            -20.8222419633      -11.9353834147       11.0128917197  SOLV      4068            0.0000000000
     12325      4080  TIP3      OH2           -11.9534169266       -6.7117967454       20.2190311808  SOLV      4069            0.0000000000
     12326      4080  TIP3      H1            -12.7936437481       -6.2048903651       20.2193661270  SOLV      4069            0.0000000000
     12327      4080  TIP3      H2            -11.6372040857       -6.5173876567       19.3094947961  SOLV      4069            0.0000000000
     12328      4081  TIP3      OH2           -17.5004486431       -8.3262276384       13.9758534888  SOLV      4070            0.0000000000
     12329      4081  TIP3      H1            -18.0347355574       -8.0911862800       14.7695168206  SOLV      4070            0.0000000000
     12330      4081  TIP3      H2            -16.6585655039       -8.5956508915       14.3978074164  SOLV      4070            0.0000000000
     12331      4082  TIP3      OH2           -15.1569475366       -8.0289049288       23.1737116742  SOLV      4071            0.0000000000
     12332      4082  TIP3      H1            -15.1697427816       -7.2028517382       23.6972108967  SOLV      4071            0.0000000000
     12333      4082  TIP3      H2            -16.0200763194       -7.9661940087       22.7150145803  SOLV      4071            0.0000000000
     12334      4083  TIP3      OH2           -25.1818260118       -8.4288318750       18.1890763199  SOLV      4072            0.0000000000
     12335      4083  TIP3      H1            -25.5738743626       -8.9944774527       17.4884379522  SOLV      4072            0.0000000000
     12336      4083  TIP3      H2            -24.4214574570       -8.9655329426       18.4883919915  SOLV      4072            0.0000000000
     12337      4084  TIP3      OH2           -23.9719808851       -4.4465150800       19.7525234874  SOLV      4073            0.0000000000
     12338      4084  TIP3      H1            -24.1245792042       -4.6851854980       18.8277510380  SOLV      4073            0.0000000000
     12339      4084  TIP3      H2            -23.0431316284       -4.7218462970       19.8791971557  SOLV      4073            0.0000000000
     12340      4085  TIP3      OH2           -23.9805002608       -8.6483632123       21.7724218562  SOLV      4074            0.0000000000
     12341      4085  TIP3      H1            -23.6242748632       -8.9248566810       20.8961950548  SOLV      4074            0.0000000000
     12342      4085  TIP3      H2            -23.5009713985       -7.8020584834       21.9237597249  SOLV      4074            0.0000000000
     12343      4086  TIP3      OH2           -18.5198533918       -2.2874286798       19.5054901885  SOLV      4075            0.0000000000
     12344      4086  TIP3      H1            -18.7316750205       -1.4778893351       20.0050492706  SOLV      4075            0.0000000000
     12345      4086  TIP3      H2            -18.7301868418       -3.0041230038       20.1338305621  SOLV      4075            0.0000000000
     12346      4087  TIP3      OH2           -22.4592774855       -3.1878194709       25.1843780565  SOLV      4076            0.0000000000
     12347      4087  TIP3      H1            -23.1046063825       -2.5340611783       25.5257723670  SOLV      4076            0.0000000000
     12348      4087  TIP3      H2            -23.0445833968       -3.6791486613       24.5656562965  SOLV      4076            0.0000000000
     12349      4088  TIP3      OH2           -19.1467197374       -9.7612073789       12.3064870389  SOLV      4077            0.0000000000
     12350      4088  TIP3      H1            -18.5254606998       -9.1672306576       12.7845433317  SOLV      4077            0.0000000000
     12351      4088  TIP3      H2            -18.8985429967       -9.5579452573       11.3681584853  SOLV      4077            0.0000000000
     12352      4089  TIP3      OH2           -24.9898627844       -7.6439597608       26.1347343008  SOLV      4078            0.0000000000
     12353      4089  TIP3      H1            -25.4495817277       -7.0286267616       26.7338372100  SOLV      4078            0.0000000000
     12354      4089  TIP3      H2            -25.5358775630       -7.5992212834       25.3316761948  SOLV      4078            0.0000000000
     12355      4090  TIP3      OH2           -21.6174314055       -3.0374270904       15.0241124735  SOLV      4079            0.0000000000
     12356      4090  TIP3      H1            -20.8031131138       -2.5108654017       15.0888500174  SOLV      4079            0.0000000000
     12357      4090  TIP3      H2            -22.2448413238       -2.4182792544       14.6270533329  SOLV      4079            0.0000000000
     12358      4091  TIP3      OH2           -24.5484833131       -1.4475037376       25.7164038492  SOLV      4080            0.0000000000
     12359      4091  TIP3      H1            -24.6917875223       -1.4738771859       24.7430844605  SOLV      4080            0.0000000000
     12360      4091  TIP3      H2            -25.3955636509       -1.0898492012       26.0206919982  SOLV      4080            0.0000000000
     12361      4092  TIP3      OH2           -13.9010576719      -17.4054832353       12.7831177407  SOLV      4081            0.0000000000
     12362      4092  TIP3      H1            -14.7334270471      -17.2062538742       13.2620276985  SOLV      4081            0.0000000000
     12363      4092  TIP3      H2            -13.7852361703      -16.5868768667       12.2581016248  SOLV      4081            0.0000000000
     12364      4093  TIP3      OH2           -26.4667678913       -9.9526872162       16.1906357160  SOLV      4082            0.0000000000
     12365      4093  TIP3      H1            -27.1469248668       -9.4983842115       15.6477489380  SOLV      4082            0.0000000000
     12366      4093  TIP3      H2            -26.8882911130      -10.8011248058       16.3562195175  SOLV      4082            0.0000000000
     12367      4094  TIP3      OH2           -15.7817487902       -3.7634308776        8.2643950504  SOLV      4083            0.0000000000
     12368      4094  TIP3      H1            -15.7252588734       -2.7918039449        8.1305570369  SOLV      4083            0.0000000000
     12369      4094  TIP3      H2            -14.8578569705       -4.0383187351        8.0910147537  SOLV      4083            0.0000000000
     12370      4095  TIP3      OH2           -28.5441848864       -6.3203023049       25.1026675936  SOLV      4084            0.0000000000
     12371      4095  TIP3      H1            -28.5488555954       -7.0297127439       24.4487337235  SOLV      4084            0.0000000000
     12372      4095  TIP3      H2            -28.7659324281       -6.7992853697       25.9334230994  SOLV      4084            0.0000000000
     12373      4096  TIP3      OH2           -29.5131796930       -4.4630136721       22.0983383641  SOLV      4085            0.0000000000
     12374      4096  TIP3      H1            -28.6602239621       -4.5624330392       21.6452402714  SOLV      4085            0.0000000000
     12375      4096  TIP3      H2            -29.4085820736       -3.5807368288       22.4813453035  SOLV      4085            0.0000000000
     12376      4097  TIP3      OH2           -11.5139575252        0.3497652955       22.2219161035  SOLV      4086            0.0000000000
     12377      4097  TIP3      H1            -11.5218796585       -0.6142522474       22.3695500708  SOLV      4086            0.0000000000
     12378      4097  TIP3      H2            -12.3617417696        0.6009998309       22.6538404161  SOLV      4086            0.0000000000
     12379      4098  TIP3      OH2           -20.3905877827       -1.8820966709       23.6757052272  SOLV      4087            0.0000000000
     12380      4098  TIP3      H1            -20.4881097207       -0.9245927367       23.8724845215  SOLV      4087            0.0000000000
     12381      4098  TIP3      H2            -21.1732374637       -2.2438147853       24.1365837848  SOLV      4087            0.0000000000
     12382      4099  TIP3      OH2           -22.8120920549       -0.5405501978       13.0527576311  SOLV      4088            0.0000000000
     12383      4099  TIP3      H1            -23.3127568083       -0.7166024558       12.2366899487  SOLV      4088            0.0000000000
     12384      4099  TIP3      H2            -23.1647888385        0.3217327692       13.3365854414  SOLV      4088            0.0000000000
     12385      4100  TIP3      OH2           -28.3574320221       -2.1520743614       16.7241498546  SOLV      4089            0.0000000000
     12386      4100  TIP3      H1            -27.7841136253       -2.5111480865       17.4326082608  SOLV      4089            0.0000000000
     12387      4100  TIP3      H2            -29.2397325583       -2.3476059081       17.0943889485  SOLV      4089            0.0000000000
     12388      4101  TIP3      OH2           -20.8813732419       -1.4145443992        9.4310871987  SOLV      4090            0.0000000000
     12389      4101  TIP3      H1            -20.3350748127       -2.1202740258        9.0263474149  SOLV      4090            0.0000000000
     12390      4101  TIP3      H2            -20.4889482739       -1.3468496887       10.3238856435  SOLV      4090            0.0000000000
     12391      4102  TIP3      OH2           -20.2989069363       -0.9885778034       12.1124862672  SOLV      4091            0.0000000000
     12392      4102  TIP3      H1            -21.1848077439       -0.9264975841       12.5367928080  SOLV      4091            0.0000000000
     12393      4102  TIP3      H2            -19.7861086184       -1.4260455359       12.8082726644  SOLV      4091            0.0000000000
     12394      4103  TIP3      OH2           -12.7059035349       -8.4011585138       24.9723828248  SOLV      4092            0.0000000000
     12395      4103  TIP3      H1            -13.4451934064       -8.3223311140       24.3498735542  SOLV      4092            0.0000000000
     12396      4103  TIP3      H2            -12.4738597833       -9.3487095479       24.8804855709  SOLV      4092            0.0000000000
     12397      4104  TIP3      OH2           -26.6014101758       -4.4513833969       25.6172651513  SOLV      4093            0.0000000000
     12398      4104  TIP3      H1            -26.4522171651       -4.8789985778       26.4702351668  SOLV      4093            0.0000000000
     12399      4104  TIP3      H2            -27.3891997450       -4.9537908953       25.3058672102  SOLV      4093            0.0000000000
     12400      4105  TIP3      OH2           -22.6493792803      -16.0460869696       22.9620970740  SOLV      4094            0.0000000000
     12401      4105  TIP3      H1            -23.5446317023      -16.3796046255       22.7582768577  SOLV      4094            0.0000000000
     12402      4105  TIP3      H2            -22.8750873004      -15.2203488399       23.4271188108  SOLV      4094            0.0000000000
     12403      4106  TIP3      OH2           -17.3311076272      -14.7670145665       24.9675866945  SOLV      4095            0.0000000000
     12404      4106  TIP3      H1            -16.5867557214      -15.1787198030       25.4441078409  SOLV      4095            0.0000000000
     12405      4106  TIP3      H2            -18.1217116454      -15.0819546799       25.4674148247  SOLV      4095            0.0000000000
     12406      4107  TIP3      OH2           -14.9589675852      -10.6122640232       24.1582764546  SOLV      4096            0.0000000000
     12407      4107  TIP3      H1            -15.4817976789      -10.5929340137       24.9873245156  SOLV      4096            0.0000000000
     12408      4107  TIP3      H2            -15.1739182512       -9.7483766823       23.7503915212  SOLV      4096            0.0000000000
     12409      4108  TIP3      OH2           -18.3517381758       -9.3239742564        9.7930315804  SOLV      4097            0.0000000000
     12410      4108  TIP3      H1            -18.7231970483       -9.5856180457        8.9267236746  SOLV      4097            0.0000000000
     12411      4108  TIP3      H2            -17.5004696074       -8.9346435686        9.5055102349  SOLV      4097            0.0000000000
     12412      4109  TIP3      OH2           -21.2842915241      -15.5885768408       12.7270809683  SOLV      4098            0.0000000000
     12413      4109  TIP3      H1            -21.5734455885      -15.6321414150       13.6581009670  SOLV      4098            0.0000000000
     12414      4109  TIP3      H2            -21.5432992877      -16.4860141207       12.4364488480  SOLV      4098            0.0000000000
     12415      4110  TIP3      OH2           -23.2541276256      -10.9183300137       23.0878756508  SOLV      4099            0.0000000000
     12416      4110  TIP3      H1            -23.7778951182      -10.7376343691       23.8930687985  SOLV      4099            0.0000000000
     12417      4110  TIP3      H2            -23.4202639141      -10.0973692687       22.5770477560  SOLV      4099            0.0000000000
     12418      4111  TIP3      OH2           -24.4998075867      -12.0101450137       18.3646889557  SOLV      4100            0.0000000000
     12419      4111  TIP3      H1            -25.4212207702      -12.2918072468       18.5504937207  SOLV      4100            0.0000000000
     12420      4111  TIP3      H2            -24.3712890715      -12.4327605146       17.4855876183  SOLV      4100            0.0000000000
     12421      4112  TIP3      OH2           -19.6165273123      -11.1970068927       15.6728836195  SOLV      4101            0.0000000000
     12422      4112  TIP3      H1            -20.1068532613      -10.4820410523       15.2112398191  SOLV      4101            0.0000000000
     12423      4112  TIP3      H2            -19.0463009646      -11.5367514826       14.9530528756  SOLV      4101            0.0000000000
     12424      4113  TIP3      OH2           -17.8214490540       -8.5251059139       26.4925727092  SOLV      4102            0.0000000000
     12425      4113  TIP3      H1            -18.2346510334       -8.7125019276       27.3340699902  SOLV      4102            0.0000000000
     12426      4113  TIP3      H2            -16.8655717564       -8.5242832864       26.7082956122  SOLV      4102            0.0000000000
     12427      4114  TIP3      OH2           -18.0601475079      -10.9323357392       18.0066078986  SOLV      4103            0.0000000000
     12428      4114  TIP3      H1            -18.6840379220      -10.6811488933       17.2932387595  SOLV      4103            0.0000000000
     12429      4114  TIP3      H2            -17.6700499423      -11.7176047926       17.5645821867  SOLV      4103            0.0000000000
     12430      4115  TIP3      OH2           -24.9904900043      -10.5899919713       25.1664728743  SOLV      4104            0.0000000000
     12431      4115  TIP3      H1            -24.3514953894      -10.1265571200       25.7267011705  SOLV      4104            0.0000000000
     12432      4115  TIP3      H2            -25.2374085442      -11.3455650961       25.7211393857  SOLV      4104            0.0000000000
     12433      4116  TIP3      OH2           -24.9691856968      -15.7559391010       12.3063042206  SOLV      4105            0.0000000000
     12434      4116  TIP3      H1            -24.5617432357      -15.7974217371       13.1882476555  SOLV      4105            0.0000000000
     12435      4116  TIP3      H2            -25.8954016513      -15.8164947827       12.5470682989  SOLV      4105            0.0000000000
     12436      4117  TIP3      OH2           -29.5751964250      -15.2987953710       21.2031088313  SOLV      4106            0.0000000000
     12437      4117  TIP3      H1            -28.7608921358      -15.1063371579       21.7157621845  SOLV      4106            0.0000000000
     12438      4117  TIP3      H2            -29.2244294451      -15.8225927955       20.4664148839  SOLV      4106            0.0000000000
     12439      4118  TIP3      OH2           -29.3170955087      -15.2095861964       16.4549442077  SOLV      4107            0.0000000000
     12440      4118  TIP3      H1            -28.8605201339      -15.1497048012       15.6010793055  SOLV      4107            0.0000000000
     12441      4118  TIP3      H2            -29.8298163157      -14.3977657373       16.4395120113  SOLV      4107            0.0000000000
     12442      4119  TIP3      OH2           -17.9204096650       -8.4637578304       22.2274458346  SOLV      4108            0.0000000000
     12443      4119  TIP3      H1            -17.6052017441       -9.1844287735       21.6312047168  SOLV      4108            0.0000000000
     12444      4119  TIP3      H2            -18.2624281432       -8.9961822503       22.9746582177  SOLV      4108            0.0000000000
     12445      4120  TIP3      OH2           -21.1340590099      -13.8134074379       18.9799210445  SOLV      4109            0.0000000000
     12446      4120  TIP3      H1            -21.9234672986      -13.8500638901       19.5530387748  SOLV      4109            0.0000000000
     12447      4120  TIP3      H2            -20.4093531065      -13.9432988164       19.6162085133  SOLV      4109            0.0000000000
     12448      4121  TIP3      OH2           -26.8745156402      -13.2408315007       19.0006774943  SOLV      4110            0.0000000000
     12449      4121  TIP3      H1            -27.7930234529      -13.1803422023       18.6631039550  SOLV      4110            0.0000000000
     12450      4121  TIP3      H2            -26.6014556363      -14.1472217090       18.7546444431  SOLV      4110            0.0000000000
     12451      4122  TIP3      OH2           -24.2389255501      -13.3418759016       15.9854235793  SOLV      4111            0.0000000000
     12452      4122  TIP3      H1            -23.2855634875      -13.1933198193       15.8177223045  SOLV      4111            0.0000000000
     12453      4122  TIP3      H2            -24.6624840379      -13.0596085762       15.1429333014  SOLV      4111            0.0000000000
     12454      4123  TIP3      OH2           -16.3057205867      -13.0488162704       21.1182573085  SOLV      4112            0.0000000000
     12455      4123  TIP3      H1            -16.7780172153      -12.9213919179       21.9635966335  SOLV      4112            0.0000000000
     12456      4123  TIP3      H2            -16.8961106995      -13.6684590772       20.6586721240  SOLV      4112            0.0000000000
     12457      4124  TIP3      OH2           -25.7096257914      -12.8684169659       13.7400739146  SOLV      4113            0.0000000000
     12458      4124  TIP3      H1            -26.5609161319      -13.1340852757       13.3818954531  SOLV      4113            0.0000000000
     12459      4124  TIP3      H2            -25.1971743279      -12.6185680342       12.9392913633  SOLV      4113            0.0000000000
     12460      4125  TIP3      OH2           -14.5622783475        3.8225066140       23.2400133465  SOLV      4114            0.0000000000
     12461      4125  TIP3      H1            -14.5924256803        4.0400962728       22.2854273489  SOLV      4114            0.0000000000
     12462      4125  TIP3      H2            -13.7517295256        4.2943484880       23.5167934644  SOLV      4114            0.0000000000
     12463      4126  TIP3      OH2           -20.3996535117      -10.5013604579       19.9187691365  SOLV      4115            0.0000000000
     12464      4126  TIP3      H1            -19.6987795810      -10.9006966494       19.3795411643  SOLV      4115            0.0000000000
     12465      4126  TIP3      H2            -20.3190619521      -10.9882033497       20.7592576525  SOLV      4115            0.0000000000
     12466      4127  TIP3      OH2           -25.1570836556      -15.5521712029       18.6423314829  SOLV      4116            0.0000000000
     12467      4127  TIP3      H1            -25.2902723903      -16.3497166788       19.2033962938  SOLV      4116            0.0000000000
     12468      4127  TIP3      H2            -24.6875256272      -15.9295062328       17.8882199926  SOLV      4116            0.0000000000
     12469      4128  TIP3      OH2           -20.6005636289      -11.5419776227       22.7476508042  SOLV      4117            0.0000000000
     12470      4128  TIP3      H1            -21.5126750104      -11.2154226380       22.8945868644  SOLV      4117            0.0000000000
     12471      4128  TIP3      H2            -20.0583687254      -10.9336958791       23.2887920213  SOLV      4117            0.0000000000
     12472      4129  TIP3      OH2           -23.2822293282       -7.6867925037       13.7682079361  SOLV      4118            0.0000000000
     12473      4129  TIP3      H1            -24.0222054519       -8.3135286055       13.6304657791  SOLV      4118            0.0000000000
     12474      4129  TIP3      H2            -23.4749330398       -7.3581703190       14.6808453729  SOLV      4118            0.0000000000
     12475      4130  TIP3      OH2           -14.3276374965       -5.2965576171       20.0523303871  SOLV      4119            0.0000000000
     12476      4130  TIP3      H1            -14.0278322329       -4.8241197030       19.2405939617  SOLV      4119            0.0000000000
     12477      4130  TIP3      H2            -15.1578719731       -5.7220358521       19.7451997412  SOLV      4119            0.0000000000
     12478      4131  TIP3      OH2           -18.7436221936      -14.5653495241       12.4978851793  SOLV      4120            0.0000000000
     12479      4131  TIP3      H1            -19.7101308254      -14.7476084936       12.5473927429  SOLV      4120            0.0000000000
     12480      4131  TIP3      H2            -18.6792572026      -13.6099893508       12.6922268428  SOLV      4120            0.0000000000
     12481      4132  TIP3      OH2           -19.3821343785       -4.5354746745       23.9256368220  SOLV      4121            0.0000000000
     12482      4132  TIP3      H1            -18.5470301279       -4.4060514695       24.3503360787  SOLV      4121            0.0000000000
     12483      4132  TIP3      H2            -19.7018490548       -3.6117601674       23.7858585448  SOLV      4121            0.0000000000
     12484      4133  TIP3      OH2           -18.0373894149      -12.0447206479       13.5029332705  SOLV      4122            0.0000000000
     12485      4133  TIP3      H1            -17.0666830496      -11.9944664545       13.5969339000  SOLV      4122            0.0000000000
     12486      4133  TIP3      H2            -18.2372120584      -11.2697138204       12.9426429990  SOLV      4122            0.0000000000
     12487      4134  TIP3      OH2           -26.3101146443       -7.3901118099       20.4844284209  SOLV      4123            0.0000000000
     12488      4134  TIP3      H1            -25.9997168302       -7.6111511473       19.5813804481  SOLV      4123            0.0000000000
     12489      4134  TIP3      H2            -25.8721155666       -8.0805832285       20.9966597043  SOLV      4123            0.0000000000
     12490      4135  TIP3      OH2           -21.7861956370       -6.1552956615       12.0644607675  SOLV      4124            0.0000000000
     12491      4135  TIP3      H1            -22.2963097981       -5.3130754571       12.0879305459  SOLV      4124            0.0000000000
     12492      4135  TIP3      H2            -22.3367929837       -6.7264227706       12.6439121177  SOLV      4124            0.0000000000
     12493      4136  TIP3      OH2           -17.7148125679       -1.9337516649       22.8397491782  SOLV      4125            0.0000000000
     12494      4136  TIP3      H1            -18.6833172978       -1.8652949580       22.9266704951  SOLV      4125            0.0000000000
     12495      4136  TIP3      H2            -17.4305186017       -1.3233085901       23.5528372029  SOLV      4125            0.0000000000
     12496      4137  TIP3      OH2           -13.6379405162      -11.1105069305       11.8044121581  SOLV      4126            0.0000000000
     12497      4137  TIP3      H1            -14.2510932436      -11.5626603606       11.1756924886  SOLV      4126            0.0000000000
     12498      4137  TIP3      H2            -13.6672536600      -10.2219213163       11.3825923130  SOLV      4126            0.0000000000
     12499      4138  TIP3      OH2           -11.4086756434       -2.5349533027       22.5963173511  SOLV      4127            0.0000000000
     12500      4138  TIP3      H1            -12.3833461777       -2.6206081581       22.5052278472  SOLV      4127            0.0000000000
     12501      4138  TIP3      H2            -11.1297036900       -2.8371440382       21.7028886050  SOLV      4127            0.0000000000
     12502      4139  TIP3      OH2           -16.5933445151       -2.9714707891       10.8812556166  SOLV      4128            0.0000000000
     12503      4139  TIP3      H1            -16.8104609264       -3.6722128508       11.5096213886  SOLV      4128            0.0000000000
     12504      4139  TIP3      H2            -16.3591720561       -3.4645716660       10.0742138504  SOLV      4128            0.0000000000
     12505      4140  TIP3      OH2           -16.6431534168       -6.6665914339       19.2081303311  SOLV      4129            0.0000000000
     12506      4140  TIP3      H1            -17.5759972229       -6.9284213932       19.3352393862  SOLV      4129            0.0000000000
     12507      4140  TIP3      H2            -16.2920320814       -7.4718182734       18.7754690281  SOLV      4129            0.0000000000
     12508      4141  TIP3      OH2           -25.2665478820       -4.4047725745       16.7418742591  SOLV      4130            0.0000000000
     12509      4141  TIP3      H1            -25.3317164865       -3.6740901177       16.1005253455  SOLV      4130            0.0000000000
     12510      4141  TIP3      H2            -25.9142536766       -4.1151376689       17.4092506610  SOLV      4130            0.0000000000
     12511      4142  TIP3      OH2           -29.7922353724      -11.3121553070       13.8833298543  SOLV      4131            0.0000000000
     12512      4142  TIP3      H1            -29.1827898060      -10.5546246466       14.0437088751  SOLV      4131            0.0000000000
     12513      4142  TIP3      H2            -30.6013299772      -10.9537427499       14.2732714289  SOLV      4131            0.0000000000
     12514      4143  TIP3      OH2           -24.0422381070       -6.8046793546       16.2104598996  SOLV      4132            0.0000000000
     12515      4143  TIP3      H1            -24.4085147689       -5.9046022341       16.3600329930  SOLV      4132            0.0000000000
     12516      4143  TIP3      H2            -24.3981795724       -7.2794007396       16.9809208802  SOLV      4132            0.0000000000
     12517      4144  TIP3      OH2           -22.4922429635       -0.8985925508       21.7945651920  SOLV      4133            0.0000000000
     12518      4144  TIP3      H1            -22.3719753339       -0.3859938404       20.9746337160  SOLV      4133            0.0000000000
     12519      4144  TIP3      H2            -21.6037314452       -1.2332159132       21.9504493764  SOLV      4133            0.0000000000
     12520      4145  TIP3      OH2           -26.0330569344       -2.0022133523       15.2307552256  SOLV      4134            0.0000000000
     12521      4145  TIP3      H1            -26.9026861737       -1.9615534926       15.6785912140  SOLV      4134            0.0000000000
     12522      4145  TIP3      H2            -25.7532436448       -1.0629845624       15.2910934603  SOLV      4134            0.0000000000
     12523      4146  TIP3      OH2           -18.8188473855       -4.5852154516       21.1326307231  SOLV      4135            0.0000000000
     12524      4146  TIP3      H1            -18.9004493035       -4.7433622708       22.0938810432  SOLV      4135            0.0000000000
     12525      4146  TIP3      H2            -18.0565899368       -5.1326521927       20.9010279096  SOLV      4135            0.0000000000
     12526      4147  TIP3      OH2           -18.9816293368       -5.5844025189        9.9586893280  SOLV      4136            0.0000000000
     12527      4147  TIP3      H1            -18.4344360133       -5.8424968062       10.7350030051  SOLV      4136            0.0000000000
     12528      4147  TIP3      H2            -19.8303126221       -5.9852157458       10.2055499438  SOLV      4136            0.0000000000
     12529      4148  TIP3      OH2           -16.3086308750        0.7017502032       21.5689261063  SOLV      4137            0.0000000000
     12530      4148  TIP3      H1            -17.1410190599        0.2051043143       21.4549950990  SOLV      4137            0.0000000000
     12531      4148  TIP3      H2            -16.4116340404        1.3737936981       20.8577031876  SOLV      4137            0.0000000000
     12532      4149  TIP3      OH2           -15.6788175853       -1.0020915709        8.0760206395  SOLV      4138            0.0000000000
     12533      4149  TIP3      H1            -15.3101777254       -0.3254720453        7.4903525217  SOLV      4138            0.0000000000
     12534      4149  TIP3      H2            -16.4460272795       -0.5098268918        8.4371688229  SOLV      4138            0.0000000000
     12535      4150  TIP3      OH2           -17.3765113661       -6.2634859202       12.1139658467  SOLV      4139            0.0000000000
     12536      4150  TIP3      H1            -17.4945947781       -6.9963907925       12.7528663042  SOLV      4139            0.0000000000
     12537      4150  TIP3      H2            -16.4137602453       -6.3456556003       11.9423282698  SOLV      4139            0.0000000000
     12538      4151  TIP3      OH2           -27.9778838362       -2.2590881013       23.1921767458  SOLV      4140            0.0000000000
     12539      4151  TIP3      H1            -27.3580372746       -2.9943211339       23.1717346934  SOLV      4140            0.0000000000
     12540      4151  TIP3      H2            -27.6919285029       -1.7737757527       23.9764102693  SOLV      4140            0.0000000000
     12541      4152  TIP3      OH2           -25.4314828700       -5.7519221084        9.9468946605  SOLV      4141            0.0000000000
     12542      4152  TIP3      H1            -25.2266232365       -6.6443595324        9.6282559910  SOLV      4141            0.0000000000
     12543      4152  TIP3      H2            -25.6259071435       -5.9199435117       10.8902727650  SOLV      4141            0.0000000000
     12544      4153  TIP3      OH2           -25.9465928141       -5.8416269281       12.6719076533  SOLV      4142            0.0000000000
     12545      4153  TIP3      H1            -25.1921241779       -6.0905221402       13.2217149366  SOLV      4142            0.0000000000
     12546      4153  TIP3      H2            -25.9184038598       -4.8589605717       12.7275741929  SOLV      4142            0.0000000000
     12547      4154  TIP3      OH2           -28.5147864521       -8.9779524111       14.5954877349  SOLV      4143            0.0000000000
     12548      4154  TIP3      H1            -29.2016138140       -8.5011224628       15.1225294287  SOLV      4143            0.0000000000
     12549      4154  TIP3      H2            -28.3662327380       -8.2945900709       13.9116312705  SOLV      4143            0.0000000000
     12550      4155  TIP3      OH2           -17.1460962497      -12.3536005990       23.7268092409  SOLV      4144            0.0000000000
     12551      4155  TIP3      H1            -16.2119966393      -12.1213919704       23.8601271674  SOLV      4144            0.0000000000
     12552      4155  TIP3      H2            -17.2209734671      -13.2308320766       24.1695310642  SOLV      4144            0.0000000000
     12553      4156  TIP3      OH2           -18.3546333557      -14.9915319729       15.2960606240  SOLV      4145            0.0000000000
     12554      4156  TIP3      H1            -18.4300664005      -14.8145126665       14.3380036754  SOLV      4145            0.0000000000
     12555      4156  TIP3      H2            -17.8765445875      -14.1993176457       15.6141338552  SOLV      4145            0.0000000000
     12556      4157  TIP3      OH2           -23.2483502999       -3.8702732763       12.1055336525  SOLV      4146            0.0000000000
     12557      4157  TIP3      H1            -24.1395614048       -3.6452022161       12.4384980162  SOLV      4146            0.0000000000
     12558      4157  TIP3      H2            -23.0824311044       -3.1085378487       11.5336155698  SOLV      4146            0.0000000000
     12559      4158  TIP3      OH2           -21.4499382890      -13.1918335336       16.2902234575  SOLV      4147            0.0000000000
     12560      4158  TIP3      H1            -20.7878221145      -12.4984092991       16.0793302633  SOLV      4147            0.0000000000
     12561      4158  TIP3      H2            -21.3236626148      -13.2835845181       17.2592076800  SOLV      4147            0.0000000000
     12562      4159  TIP3      OH2           -18.7232981926      -10.0870449614       24.2828637320  SOLV      4148            0.0000000000
     12563      4159  TIP3      H1            -18.4243170045       -9.6147331634       25.0882932762  SOLV      4148            0.0000000000
     12564      4159  TIP3      H2            -18.1428918031      -10.8753292238       24.2489617941  SOLV      4148            0.0000000000
     12565      4160  TIP3      OH2           -19.9560494285      -16.0607993639       17.2629534491  SOLV      4149            0.0000000000
     12566      4160  TIP3      H1            -20.0320282512      -15.2698798231       17.8241641603  SOLV      4149            0.0000000000
     12567      4160  TIP3      H2            -19.3412786932      -15.7230319437       16.5663088360  SOLV      4149            0.0000000000
     12568      4161  TIP3      OH2           -25.7948689930       -3.1211652489       12.7601226273  SOLV      4150            0.0000000000
     12569      4161  TIP3      H1            -26.0827410871       -2.3975533228       12.1604215956  SOLV      4150            0.0000000000
     12570      4161  TIP3      H2            -25.8932069676       -2.6897947600       13.6391411912  SOLV      4150            0.0000000000
     12571      4162  TIP3      OH2           -24.7959368711      -15.9804066138       15.1498516154  SOLV      4151            0.0000000000
     12572      4162  TIP3      H1            -24.8238581734      -15.0783385663       15.5256043921  SOLV      4151            0.0000000000
     12573      4162  TIP3      H2            -23.8309507622      -16.1500171429       15.2249517592  SOLV      4151            0.0000000000
     12574      4163  TIP3      OH2           -12.2991505678      -11.0601468280       24.1623955037  SOLV      4152            0.0000000000
     12575      4163  TIP3      H1            -13.2829860831      -11.0544849128       24.1542143506  SOLV      4152            0.0000000000
     12576      4163  TIP3      H2            -12.1290143836      -11.4984579782       23.3173287864  SOLV      4152            0.0000000000
     12577      4164  TIP3      OH2           -15.7833742680       -9.1159338354       18.0420854377  SOLV      4153            0.0000000000
     12578      4164  TIP3      H1            -16.5381849169       -9.7269938796       18.1171888078  SOLV      4153            0.0000000000
     12579      4164  TIP3      H2            -15.0730320949       -9.6038783876       18.5113319536  SOLV      4153            0.0000000000
     12580      4165  TIP3      OH2           -28.5829549990       -6.8766776642       12.7350446920  SOLV      4154            0.0000000000
     12581      4165  TIP3      H1            -27.8350754713       -6.2576345013       12.8348189050  SOLV      4154            0.0000000000
     12582      4165  TIP3      H2            -28.2120391171       -7.4445396391       12.0272425258  SOLV      4154            0.0000000000
     12583      4166  TIP3      OH2           -29.1266998386      -13.9721668287       13.9073823057  SOLV      4155            0.0000000000
     12584      4166  TIP3      H1            -29.3092188332      -13.0128647930       13.9974564918  SOLV      4155            0.0000000000
     12585      4166  TIP3      H2            -29.9444503990      -14.3117425206       13.5280114527  SOLV      4155            0.0000000000
     12586      4167  TIP3      OH2           -15.8812120452        0.6070096512       17.4643961998  SOLV      4156            0.0000000000
     12587      4167  TIP3      H1            -16.4241498048        1.0187048981       16.7488348230  SOLV      4156            0.0000000000
     12588      4167  TIP3      H2            -15.0381038716        0.4841527763       17.0165396198  SOLV      4156            0.0000000000
     12589      4168  TIP3      OH2           -25.2832966659      -16.9778511130       22.8745443651  SOLV      4157            0.0000000000
     12590      4168  TIP3      H1            -25.3476254879      -17.1592105821       21.9096420509  SOLV      4157            0.0000000000
     12591      4168  TIP3      H2            -25.3908619694      -17.8720148121       23.2295911163  SOLV      4157            0.0000000000
     12592      4169  TIP3      OH2           -30.1148677516       -4.8905152443       16.4739337305  SOLV      4158            0.0000000000
     12593      4169  TIP3      H1            -30.5242144525       -4.1402416534       16.9434459285  SOLV      4158            0.0000000000
     12594      4169  TIP3      H2            -29.3918849976       -4.4561348228       16.0106540644  SOLV      4158            0.0000000000
     12595      4170  TIP3      OH2           -27.4786616885        0.0635771246       26.7701765383  SOLV      4159            0.0000000000
     12596      4170  TIP3      H1            -27.0355625867        0.2518192768       27.6235528832  SOLV      4159            0.0000000000
     12597      4170  TIP3      H2            -28.3580335896       -0.1951515889       27.0756833897  SOLV      4159            0.0000000000
     12598      4171  TIP3      OH2           -23.3683845532        0.3478726607       27.4609259950  SOLV      4160            0.0000000000
     12599      4171  TIP3      H1            -22.4416251559        0.5431718976       27.3044202196  SOLV      4160            0.0000000000
     12600      4171  TIP3      H2            -23.6192928504       -0.1693546634       26.6712585502  SOLV      4160            0.0000000000
     12601      4172  TIP3      OH2           -23.7214238728       -3.8501048715        8.9763418251  SOLV      4161            0.0000000000
     12602      4172  TIP3      H1            -24.3062269699       -4.5232570802        9.3973349102  SOLV      4161            0.0000000000
     12603      4172  TIP3      H2            -22.9710620412       -4.4130756970        8.7099798456  SOLV      4161            0.0000000000
     12604      4173  TIP3      OH2           -17.1846178579       -0.4940250379       25.1003007503  SOLV      4162            0.0000000000
     12605      4173  TIP3      H1            -17.1770822733       -1.2083145149       25.7709359960  SOLV      4162            0.0000000000
     12606      4173  TIP3      H2            -16.4019920129        0.0408205124       25.3470574538  SOLV      4162            0.0000000000
     12607      4174  TIP3      OH2           -19.3870611825       -3.4536300936        8.2436785876  SOLV      4163            0.0000000000
     12608      4174  TIP3      H1            -19.1243262479       -4.1223978851        8.9072236620  SOLV      4163            0.0000000000
     12609      4174  TIP3      H2            -18.6588762898       -3.5066771357        7.6054220713  SOLV      4163            0.0000000000
     12610      4175  TIP3      OH2           -27.1854204879       -8.7617327371       11.2971562184  SOLV      4164            0.0000000000
     12611      4175  TIP3      H1            -26.5730007718       -8.9396601703       12.0349013594  SOLV      4164            0.0000000000
     12612      4175  TIP3      H2            -26.5556535540       -8.8299009794       10.5399279469  SOLV      4164            0.0000000000
     12613      4176  TIP3      OH2           -21.3603312864       -5.2078646922       26.6547858537  SOLV      4165            0.0000000000
     12614      4176  TIP3      H1            -21.7749626814       -4.4843147473       26.1267444415  SOLV      4165            0.0000000000
     12615      4176  TIP3      H2            -20.7249239435       -5.5318813955       25.9996997771  SOLV      4165            0.0000000000
     12616      4177  TIP3      OH2           -22.1455966452       -6.6321487495        9.3661585471  SOLV      4166            0.0000000000
     12617      4177  TIP3      H1            -22.0757668373       -6.5782859706       10.3374731204  SOLV      4166            0.0000000000
     12618      4177  TIP3      H2            -22.1423327726       -7.6083696845        9.2404185981  SOLV      4166            0.0000000000
     12619      4178  TIP3      OH2           -16.0983160900       -4.1198459788       23.1427407427  SOLV      4167            0.0000000000
     12620      4178  TIP3      H1            -15.3043818301       -3.7981120301       22.6698373636  SOLV      4167            0.0000000000
     12621      4178  TIP3      H2            -16.7188965105       -3.3898260118       22.9375811430  SOLV      4167            0.0000000000
     12622      4179  TIP3      OH2           -25.2550882775       -9.6312162041       13.3468405907  SOLV      4168            0.0000000000
     12623      4179  TIP3      H1            -25.4722274615      -10.0076085759       14.2150411073  SOLV      4168            0.0000000000
     12624      4179  TIP3      H2            -24.8584403107      -10.3905956232       12.8790716320  SOLV      4168            0.0000000000
     12625      4180  TIP3      OH2           -22.6301174533       -9.0470463223       25.7203245261  SOLV      4169            0.0000000000
     12626      4180  TIP3      H1            -23.3170511894       -8.3469883138       25.8035027605  SOLV      4169            0.0000000000
     12627      4180  TIP3      H2            -22.0221134052       -8.6405594390       25.0685334859  SOLV      4169            0.0000000000
     12628      4181  TIP3      OH2           -24.0477988979      -11.8291065081       11.7969700546  SOLV      4170            0.0000000000
     12629      4181  TIP3      H1            -24.0037638767      -12.0616965178       10.8614848745  SOLV      4170            0.0000000000
     12630      4181  TIP3      H2            -23.0973130954      -11.6187772740       11.9375801201  SOLV      4170            0.0000000000
     12631      4182  TIP3      OH2           -17.4501894582       -5.0366649203       27.2241511168  SOLV      4171            0.0000000000
     12632      4182  TIP3      H1            -16.7618757185       -4.9888022920       26.5412964939  SOLV      4171            0.0000000000
     12633      4182  TIP3      H2            -17.1269057424       -5.8014948043       27.7186890513  SOLV      4171            0.0000000000
     12634      4183  TIP3      OH2           -16.0926131963       -8.3769248039        8.5915793132  SOLV      4172            0.0000000000
     12635      4183  TIP3      H1            -16.1767195265       -8.8459321853        7.7374993494  SOLV      4172            0.0000000000
     12636      4183  TIP3      H2            -16.2902445374       -7.4691742289        8.2806430307  SOLV      4172            0.0000000000
     12637      4184  TIP3      OH2           -21.4144517869      -11.2787756155       26.7150838412  SOLV      4173            0.0000000000
     12638      4184  TIP3      H1            -21.1753812192      -11.9371733761       26.0303982632  SOLV      4173            0.0000000000
     12639      4184  TIP3      H2            -21.7760869125      -10.5398564842       26.1799740289  SOLV      4173            0.0000000000
     12640      4185  TIP3      OH2           -21.1417214626      -13.3314492941       24.8946117526  SOLV      4174            0.0000000000
     12641      4185  TIP3      H1            -20.9033685362      -12.9638703388       24.0202472240  SOLV      4174            0.0000000000
     12642      4185  TIP3      H2            -22.0811316135      -13.5851186593       24.7620500417  SOLV      4174            0.0000000000
     12643      4186  TIP3      OH2           -21.0588483528       -7.8634873701       23.8538750279  SOLV      4175            0.0000000000
     12644      4186  TIP3      H1            -20.1893109557       -7.7745162715       23.4500952701  SOLV      4175            0.0000000000
     12645      4186  TIP3      H2            -21.5994975715       -7.2377882897       23.3212505086  SOLV      4175            0.0000000000
     12646      4187  TIP3      OH2           -15.0651792744       -8.1687521288       27.2867857113  SOLV      4176            0.0000000000
     12647      4187  TIP3      H1            -14.4711012662       -8.8615203260       26.9807812965  SOLV      4176            0.0000000000
     12648      4187  TIP3      H2            -14.5936259158       -7.3724752419       26.9906505639  SOLV      4176            0.0000000000
     12649      4188  TIP3      OH2           -14.7784977186       -5.7515314302       24.8151811483  SOLV      4177            0.0000000000
     12650      4188  TIP3      H1            -15.3340440717       -5.1527230672       24.2611806284  SOLV      4177            0.0000000000
     12651      4188  TIP3      H2            -13.8859837875       -5.5263553232       24.4663239136  SOLV      4177            0.0000000000
     12652      4189  TIP3      OH2           -19.7537952405      -15.5550976069       25.9499777496  SOLV      4178            0.0000000000
     12653      4189  TIP3      H1            -20.2735582248      -14.7898112835       25.6326723649  SOLV      4178            0.0000000000
     12654      4189  TIP3      H2            -20.4066492753      -16.2756846705       25.7913499933  SOLV      4178            0.0000000000
     12655      4190  TIP3      OH2           -16.1915915429      -11.0319545255       26.5514471123  SOLV      4179            0.0000000000
     12656      4190  TIP3      H1            -16.9457506461      -11.5808759574       26.7699378390  SOLV      4179            0.0000000000
     12657      4190  TIP3      H2            -15.5259858026      -11.3069741683       27.2189962653  SOLV      4179            0.0000000000
     12658      4191  TIP3      OH2           -14.1324829884      -11.7215999131       28.2637439088  SOLV      4180            0.0000000000
     12659      4191  TIP3      H1            -13.4248241031      -11.8931686755       27.6356794048  SOLV      4180            0.0000000000
     12660      4191  TIP3      H2            -13.6464299793      -11.3965031524       29.0311676412  SOLV      4180            0.0000000000
     12661      4192  TIP3      OH2           -26.0696938652       -1.0455906163       10.9423475307  SOLV      4181            0.0000000000
     12662      4192  TIP3      H1            -25.1280499581       -1.1688200549       10.7205248462  SOLV      4181            0.0000000000
     12663      4192  TIP3      H2            -26.3643769830       -0.5669853512       10.1473584223  SOLV      4181            0.0000000000
     12664      4193  TIP3      OH2           -31.4007315823       -7.0465067954       12.5437711753  SOLV      4182            0.0000000000
     12665      4193  TIP3      H1            -30.4751794181       -6.9178246387       12.8445472455  SOLV      4182            0.0000000000
     12666      4193  TIP3      H2            -31.4511888757       -8.0182948873       12.4860787608  SOLV      4182            0.0000000000
     12667      4194  TIP3      OH2           -12.7199824242        1.8767077901       17.1704486551  SOLV      4183            0.0000000000
     12668      4194  TIP3      H1            -13.1654282983        1.6699945112       18.0355078332  SOLV      4183            0.0000000000
     12669      4194  TIP3      H2            -13.5057449429        2.2994995841       16.6599770673  SOLV      4183            0.0000000000
     12670      4195  TIP3      OH2           -13.2881657293        1.5176441448       19.9476615684  SOLV      4184            0.0000000000
     12671      4195  TIP3      H1            -13.7058409324        0.6333129147       19.9650501757  SOLV      4184            0.0000000000
     12672      4195  TIP3      H2            -12.5210080390        1.3503700545       20.5198493972  SOLV      4184            0.0000000000
     12673      4196  TIP3      OH2           -12.7512002510       -1.6719519067       25.6404585071  SOLV      4185            0.0000000000
     12674      4196  TIP3      H1            -13.4968078866       -1.5691216792       26.2628279444  SOLV      4185            0.0000000000
     12675      4196  TIP3      H2            -12.3232429000       -0.7936726089       25.6981196181  SOLV      4185            0.0000000000
     12676      4197  TIP3      OH2           -14.6129215540       -6.5243651780       11.8225002629  SOLV      4186            0.0000000000
     12677      4197  TIP3      H1            -13.9376398736       -5.9092378611       11.4694174556  SOLV      4186            0.0000000000
     12678      4197  TIP3      H2            -14.1379086461       -6.9169908741       12.5870992485  SOLV      4186            0.0000000000
     12679      4198  TIP3      OH2           -13.3274054646       -7.8680395077       13.8707283629  SOLV      4187            0.0000000000
     12680      4198  TIP3      H1            -13.9926797037       -8.2859029500       14.4586186661  SOLV      4187            0.0000000000
     12681      4198  TIP3      H2            -12.6677958023       -7.5193762924       14.5039648164  SOLV      4187            0.0000000000
     12682      4199  TIP3      OH2           -12.8214415353       -4.0270249085       18.2077030516  SOLV      4188            0.0000000000
     12683      4199  TIP3      H1            -12.2361008599       -4.6616615059       17.7475975891  SOLV      4188            0.0000000000
     12684      4199  TIP3      H2            -12.6990016256       -3.2172862449       17.6722054844  SOLV      4188            0.0000000000
     12685      4200  TIP3      OH2           -14.5000502678       -0.9349790508       20.1456696115  SOLV      4189            0.0000000000
     12686      4200  TIP3      H1            -15.2377070364       -0.5388086675       20.6516341742  SOLV      4189            0.0000000000
     12687      4200  TIP3      H2            -14.9791144318       -1.4264813940       19.4425481426  SOLV      4189            0.0000000000
     12688      4201  TIP3      OH2           -13.9938824238       -8.7849288526       10.3232907189  SOLV      4190            0.0000000000
     12689      4201  TIP3      H1            -14.7046019110       -8.7515894702        9.6430405387  SOLV      4190            0.0000000000
     12690      4201  TIP3      H2            -14.2489835362       -8.0075479155       10.8569541093  SOLV      4190            0.0000000000
     12691      4202  TIP3      OH2           -15.2921297673      -12.0882680759        9.8939197828  SOLV      4191            0.0000000000
     12692      4202  TIP3      H1            -15.6852778247      -11.7284968996        9.0912206113  SOLV      4191            0.0000000000
     12693      4202  TIP3      H2            -15.5318274579      -13.0365775775        9.8076071642  SOLV      4191            0.0000000000
     12694      4203  TIP3      OH2           -15.2397118756       -9.2747875179       15.3115381489  SOLV      4192            0.0000000000
     12695      4203  TIP3      H1            -15.1476109026      -10.2377096054       15.2141629873  SOLV      4192            0.0000000000
     12696      4203  TIP3      H2            -15.3716717490       -9.1676450111       16.2769013460  SOLV      4192            0.0000000000
     12697      4204  TIP3      OH2           -28.8711939392       -8.6595464797       22.9947338697  SOLV      4193            0.0000000000
     12698      4204  TIP3      H1            -28.9491777140       -8.8292596287       22.0302819894  SOLV      4193            0.0000000000
     12699      4204  TIP3      H2            -27.9071959349       -8.5164050672       23.0707102208  SOLV      4193            0.0000000000
     12700      4205  TIP3      OH2           -12.3020841224       -5.0451036668       23.9026319766  SOLV      4194            0.0000000000
     12701      4205  TIP3      H1            -11.5971766434       -5.7231864073       23.7931558676  SOLV      4194            0.0000000000
     12702      4205  TIP3      H2            -12.0409165734       -4.3696554007       23.2573801659  SOLV      4194            0.0000000000
     12703      4206  TIP3      OH2           -10.5156185366       -7.0670438367       24.0083781138  SOLV      4195            0.0000000000
     12704      4206  TIP3      H1            -11.2582932661       -7.5585572444       24.4170207864  SOLV      4195            0.0000000000
     12705      4206  TIP3      H2             -9.7762417169       -7.6838067931       24.1935187410  SOLV      4195            0.0000000000
     12706      4207  TIP3      OH2           -15.8643803279      -14.7594962656        9.7519416076  SOLV      4196            0.0000000000
     12707      4207  TIP3      H1            -15.1088417826      -15.0625183472       10.2929772733  SOLV      4196            0.0000000000
     12708      4207  TIP3      H2            -16.5573755042      -15.4108126380        9.9442993822  SOLV      4196            0.0000000000
     12709      4208  TIP3      OH2           -15.2168373671      -12.0978737159       14.2277965299  SOLV      4197            0.0000000000
     12710      4208  TIP3      H1            -14.7999216838      -12.9815710549       14.3690908243  SOLV      4197            0.0000000000
     12711      4208  TIP3      H2            -14.6613930157      -11.7667115568       13.4980414754  SOLV      4197            0.0000000000
     12712      4209  TIP3      OH2           -13.6362217756      -10.4265718638       19.2418665000  SOLV      4198            0.0000000000
     12713      4209  TIP3      H1            -12.7863890527      -10.1846736547       18.8063548070  SOLV      4198            0.0000000000
     12714      4209  TIP3      H2            -13.4666754913      -10.0510023287       20.1253851447  SOLV      4198            0.0000000000
     12715      4210  TIP3      OH2           -12.8828987976       -8.9369653886       21.5474072720  SOLV      4199            0.0000000000
     12716      4210  TIP3      H1            -13.6822966242       -8.5915897554       21.9864233045  SOLV      4199            0.0000000000
     12717      4210  TIP3      H2            -12.5576060164       -8.1393552869       21.0738488663  SOLV      4199            0.0000000000
     12718      4211  TIP3      OH2            -8.6189896917      -13.2869570784       27.1535010153  SOLV      4200            0.0000000000
     12719      4211  TIP3      H1             -7.8877504437      -13.7955561742       26.7499012842  SOLV      4200            0.0000000000
     12720      4211  TIP3      H2             -8.7772529179      -12.6007193784       26.4736228051  SOLV      4200            0.0000000000
     12721      4212  TIP3      OH2           -14.1616618347      -14.6105759956       14.6675229296  SOLV      4201            0.0000000000
     12722      4212  TIP3      H1            -13.6986879868      -14.8228694347       15.5028866611  SOLV      4201            0.0000000000
     12723      4212  TIP3      H2            -14.7786028302      -15.3710136625       14.6042294536  SOLV      4201            0.0000000000
     12724      4213  TIP3      OH2           -27.1685937162      -14.8993299523       22.6336366927  SOLV      4202            0.0000000000
     12725      4213  TIP3      H1            -26.5601506099      -15.6380882087       22.8187309672  SOLV      4202            0.0000000000
     12726      4213  TIP3      H2            -26.5611665279      -14.1429152676       22.6217122436  SOLV      4202            0.0000000000
     12727      4214  TIP3      OH2           -29.3442277605      -11.6921105355       23.4757796311  SOLV      4203            0.0000000000
     12728      4214  TIP3      H1            -28.7563291978      -11.9709343763       22.7513834903  SOLV      4203            0.0000000000
     12729      4214  TIP3      H2            -29.1200077546      -10.7532007584       23.5503932884  SOLV      4203            0.0000000000
     12730      4215  TIP3      OH2            -9.7369044963      -11.6913620863       25.1349143097  SOLV      4204            0.0000000000
     12731      4215  TIP3      H1            -10.6253706787      -11.2893225709       25.2163949301  SOLV      4204            0.0000000000
     12732      4215  TIP3      H2             -9.9656841248      -12.4741798658       24.5992450040  SOLV      4204            0.0000000000
     12733      4216  TIP3      OH2           -13.3869967308      -15.3122966215       11.0253499680  SOLV      4205            0.0000000000
     12734      4216  TIP3      H1            -12.9835549307      -15.9863433818       10.4364255489  SOLV      4205            0.0000000000
     12735      4216  TIP3      H2            -12.7425483298      -14.5796127057       10.9685141251  SOLV      4205            0.0000000000
     12736      4217  TIP3      OH2           -29.4102440816      -16.9018446920       18.5902154105  SOLV      4206            0.0000000000
     12737      4217  TIP3      H1            -30.3222285525      -17.1698034394       18.4212816851  SOLV      4206            0.0000000000
     12738      4217  TIP3      H2            -29.2362364215      -16.3689859799       17.7772863137  SOLV      4206            0.0000000000
     12739      4218  TIP3      OH2           -17.7208271857        0.0394072383       13.6421588755  SOLV      4207            0.0000000000
     12740      4218  TIP3      H1            -17.2160900638       -0.0706238784       12.8122664727  SOLV      4207            0.0000000000
     12741      4218  TIP3      H2            -17.1915704459        0.7010772109       14.1173835632  SOLV      4207            0.0000000000
     12742      4219  TIP3      OH2           -24.8133896344       -1.6332766367       23.0057677758  SOLV      4208            0.0000000000
     12743      4219  TIP3      H1            -25.3629888565       -0.9310824685       22.6012320686  SOLV      4208            0.0000000000
     12744      4219  TIP3      H2            -23.9552543465       -1.3820995417       22.5851100704  SOLV      4208            0.0000000000
     12745      4220  TIP3      OH2           -20.5042455793        0.8170041676       24.3321706528  SOLV      4209            0.0000000000
     12746      4220  TIP3      H1            -20.0486072889        0.8277421816       25.1992328493  SOLV      4209            0.0000000000
     12747      4220  TIP3      H2            -19.8813075518        1.3574354713       23.7974957806  SOLV      4209            0.0000000000
     12748      4221  TIP3      OH2           -18.7195696624        2.3831688594       22.9861700055  SOLV      4210            0.0000000000
     12749      4221  TIP3      H1            -18.0265945979        1.9175691104       22.4976298337  SOLV      4210            0.0000000000
     12750      4221  TIP3      H2            -18.1784585505        2.9603732836       23.5689001914  SOLV      4210            0.0000000000
     12751      4222  TIP3      OH2           -10.7346940162      -14.0755876547       23.9872790775  SOLV      4211            0.0000000000
     12752      4222  TIP3      H1            -11.6118283606      -14.2160985431       23.5891711747  SOLV      4211            0.0000000000
     12753      4222  TIP3      H2            -10.3367682319      -14.9706960932       23.8693308427  SOLV      4211            0.0000000000
     12754      4223  TIP3      OH2           -27.9693075908        1.5160500078       23.2117019718  SOLV      4212            0.0000000000
     12755      4223  TIP3      H1            -28.5915290050        2.0848961049       22.7284080565  SOLV      4212            0.0000000000
     12756      4223  TIP3      H2            -27.8470916323        2.0365676460       24.0208830715  SOLV      4212            0.0000000000
     12757      4224  TIP3      OH2           -25.6136449539        0.8151093625       21.9331311318  SOLV      4213            0.0000000000
     12758      4224  TIP3      H1            -26.4488654909        1.0944391692       22.3666393284  SOLV      4213            0.0000000000
     12759      4224  TIP3      H2            -25.9641183347        0.5115210029       21.0696710764  SOLV      4213            0.0000000000
     12760      4225  TIP3      OH2           -21.4371594042        1.0051425354       19.7618342088  SOLV      4214            0.0000000000
     12761      4225  TIP3      H1            -22.1503820272        1.0967155368       19.0995498232  SOLV      4214            0.0000000000
     12762      4225  TIP3      H2            -21.4186711346        1.9000142226       20.1511577061  SOLV      4214            0.0000000000
     12763      4226  TIP3      OH2           -18.8295967674        0.3793078112       20.3652869985  SOLV      4215            0.0000000000
     12764      4226  TIP3      H1            -19.7755998239        0.5551605470       20.1644276505  SOLV      4215            0.0000000000
     12765      4226  TIP3      H2            -18.4029840792        1.0933648808       19.8605710765  SOLV      4215            0.0000000000
     12766      4227  TIP3      OH2           -16.8743391200        2.2847617262       19.4153220398  SOLV      4216            0.0000000000
     12767      4227  TIP3      H1            -16.9662646983        3.1653206095       18.9868230505  SOLV      4216            0.0000000000
     12768      4227  TIP3      H2            -16.5411784636        1.7388561067       18.6716061736  SOLV      4216            0.0000000000
     12769      4228  TIP3      OH2           -29.3865381895       -1.6808209285       20.8984579456  SOLV      4217            0.0000000000
     12770      4228  TIP3      H1            -28.7742770589       -1.7349546984       21.6626946883  SOLV      4217            0.0000000000
     12771      4228  TIP3      H2            -28.7851699809       -1.2881996336       20.2399591785  SOLV      4217            0.0000000000
     12772      4229  TIP3      OH2           -26.8687906880       -3.3237045107       18.6856015010  SOLV      4218            0.0000000000
     12773      4229  TIP3      H1            -26.8979478924       -3.8363978974       19.5192717109  SOLV      4218            0.0000000000
     12774      4229  TIP3      H2            -26.7908027374       -2.4098132282       19.0342316593  SOLV      4218            0.0000000000
     12775      4230  TIP3      OH2           -23.8121797608       -1.2434313525       19.0461303584  SOLV      4219            0.0000000000
     12776      4230  TIP3      H1            -23.7692471311       -2.2085610373       18.9780949683  SOLV      4219            0.0000000000
     12777      4230  TIP3      H2            -24.6438761174       -1.1196894503       19.5293895652  SOLV      4219            0.0000000000
     12778      4231  TIP3      OH2           -18.6961416738      -14.9076440334       20.1618200182  SOLV      4220            0.0000000000
     12779      4231  TIP3      H1            -19.0718734654      -15.6567464424       20.6575654530  SOLV      4220            0.0000000000
     12780      4231  TIP3      H2            -17.9680363701      -15.3298021751       19.6668551335  SOLV      4220            0.0000000000
     12781      4232  TIP3      OH2           -13.5187657468      -15.8743560698       19.2941152583  SOLV      4221            0.0000000000
     12782      4232  TIP3      H1            -13.1453637275      -15.4945441944       18.4681191933  SOLV      4221            0.0000000000
     12783      4232  TIP3      H2            -14.4745368281      -15.8771552409       19.1003348714  SOLV      4221            0.0000000000
     12784      4233  TIP3      OH2           -12.5266380520      -15.1335506929       16.8593007493  SOLV      4222            0.0000000000
     12785      4233  TIP3      H1            -11.7978798200      -15.6546578239       16.4570609927  SOLV      4222            0.0000000000
     12786      4233  TIP3      H2            -12.1802744255      -14.2233782466       16.6994863960  SOLV      4222            0.0000000000
     12787      4234  TIP3      OH2           -25.5624951980      -17.6775902738       20.2648273549  SOLV      4223            0.0000000000
     12788      4234  TIP3      H1            -26.5279491028      -17.8713169107       20.2909271793  SOLV      4223            0.0000000000
     12789      4234  TIP3      H2            -25.2147437043      -18.5899883177       20.1589407980  SOLV      4223            0.0000000000
     12790      4235  TIP3      OH2           -27.7384788885      -19.3475130156       17.3448598483  SOLV      4224            0.0000000000
     12791      4235  TIP3      H1            -27.1372521054      -18.9354442466       16.7126347351  SOLV      4224            0.0000000000
     12792      4235  TIP3      H2            -28.5736711134      -18.8794762313       17.1422055378  SOLV      4224            0.0000000000
     12793      4236  TIP3      OH2           -21.7427778511      -17.4159685196       19.1331827462  SOLV      4225            0.0000000000
     12794      4236  TIP3      H1            -21.1712898208      -17.0171361449       18.4570723269  SOLV      4225            0.0000000000
     12795      4236  TIP3      H2            -21.3157233111      -17.1333061762       19.9535828564  SOLV      4225            0.0000000000
     12796      4237  TIP3      OH2           -16.3369135623      -16.0218832931       18.9049270591  SOLV      4226            0.0000000000
     12797      4237  TIP3      H1            -16.3138072823      -16.4499685593       18.0394801880  SOLV      4226            0.0000000000
     12798      4237  TIP3      H2            -16.4236562792      -16.8061666913       19.5010880523  SOLV      4226            0.0000000000
     12799      4238  TIP3      OH2           -15.9610893241      -16.7274657145       14.5210857840  SOLV      4227            0.0000000000
     12800      4238  TIP3      H1            -16.8703425279      -16.3933653591       14.5601498121  SOLV      4227            0.0000000000
     12801      4238  TIP3      H2            -16.0809131219      -17.5702480797       15.0238205464  SOLV      4227            0.0000000000
     12802      4239  TIP3      OH2           -27.0837215273      -17.4277792461       14.3381473136  SOLV      4228            0.0000000000
     12803      4239  TIP3      H1            -26.6536570553      -18.1982239278       13.9226949170  SOLV      4228            0.0000000000
     12804      4239  TIP3      H2            -26.3149136446      -16.9909862552       14.7618417205  SOLV      4228            0.0000000000
     12805      4240  TIP3      OH2           -22.0686586126      -15.7133742113       15.3855671848  SOLV      4229            0.0000000000
     12806      4240  TIP3      H1            -21.4453195411      -16.2240377039       15.9287249920  SOLV      4229            0.0000000000
     12807      4240  TIP3      H2            -21.8266601436      -14.8019338011       15.6608596400  SOLV      4229            0.0000000000
     12808      4241  TIP3      OH2           -23.4320586967       -1.5436929260       10.3792476945  SOLV      4230            0.0000000000
     12809      4241  TIP3      H1            -22.5460274420       -1.3183758803       10.0161813703  SOLV      4230            0.0000000000
     12810      4241  TIP3      H2            -23.6392180725       -2.3104751907        9.7954919292  SOLV      4230            0.0000000000
     12811      4242  TIP3      OH2           -16.3118536076       -0.3259890773       11.2793880799  SOLV      4231            0.0000000000
     12812      4242  TIP3      H1            -16.3756178085       -1.3050301664       11.1651565217  SOLV      4231            0.0000000000
     12813      4242  TIP3      H2            -16.7676441228       -0.0215733855       10.4691302800  SOLV      4231            0.0000000000
     12814      4243  TIP3      OH2           -30.3368048392       -3.0760019797       11.0717937829  SOLV      4232            0.0000000000
     12815      4243  TIP3      H1            -30.0430586276       -2.4838145702       11.7757035996  SOLV      4232            0.0000000000
     12816      4243  TIP3      H2            -29.4948920808       -3.5325791141       10.8299362720  SOLV      4232            0.0000000000
     12817      4244  TIP3      OH2           -14.0223956577        1.1087416698       23.1759456426  SOLV      4233            0.0000000000
     12818      4244  TIP3      H1            -14.8079791022        0.8301443479       22.6609860727  SOLV      4233            0.0000000000
     12819      4244  TIP3      H2            -14.1940749195        2.0709380119       23.2405575968  SOLV      4233            0.0000000000
     12820      4245  TIP3      OH2            -1.3152962118       -5.0957678531       10.8138418735  SOLV      4234            0.0000000000
     12821      4245  TIP3      H1             -1.6417578338       -4.2052531976       10.5549756263  SOLV      4234            0.0000000000
     12822      4245  TIP3      H2             -2.0380165449       -5.6444787629       10.4566311223  SOLV      4234            0.0000000000
     12823      4246  TIP3      OH2            -1.2725532932       -5.1081643972       14.7155948719  SOLV      4235            0.0000000000
     12824      4246  TIP3      H1             -0.9506220041       -5.4032975706       15.5855965205  SOLV      4235            0.0000000000
     12825      4246  TIP3      H2             -1.7171356923       -5.9021159851       14.3817580357  SOLV      4235            0.0000000000
     12826      4247  TIP3      OH2            -8.3644597270       -6.2126240481       18.3796018918  SOLV      4236            0.0000000000
     12827      4247  TIP3      H1             -8.0204229367       -6.8947786294       18.9848900740  SOLV      4236            0.0000000000
     12828      4247  TIP3      H2             -7.5493964401       -5.7669733815       18.1088475413  SOLV      4236            0.0000000000
     12829      4248  TIP3      OH2             1.1707999798       -2.0888323719       11.5009728601  SOLV      4237            0.0000000000
     12830      4248  TIP3      H1              0.9372594620       -2.7456862467       12.1693742493  SOLV      4237            0.0000000000
     12831      4248  TIP3      H2              1.4610748358       -1.3339866874       12.0383664524  SOLV      4237            0.0000000000
     12832      4249  TIP3      OH2            -8.6672743667       -2.1596284147       15.9327075449  SOLV      4238            0.0000000000
     12833      4249  TIP3      H1             -8.6555630402       -3.1278861412       15.7604197746  SOLV      4238            0.0000000000
     12834      4249  TIP3      H2             -7.8373050288       -1.9018382414       15.4890234002  SOLV      4238            0.0000000000
     12835      4250  TIP3      OH2           -11.5662710958      -10.1001948843       13.3682610115  SOLV      4239            0.0000000000
     12836      4250  TIP3      H1            -12.0417650817       -9.2665580960       13.5247108559  SOLV      4239            0.0000000000
     12837      4250  TIP3      H2            -12.2550916622      -10.5998889890       12.8933147093  SOLV      4239            0.0000000000
     12838      4251  TIP3      OH2           -10.9892072115       -7.1997204197       15.2114868905  SOLV      4240            0.0000000000
     12839      4251  TIP3      H1            -10.4643818892       -7.9725267738       15.5162254741  SOLV      4240            0.0000000000
     12840      4251  TIP3      H2            -10.4129656528       -6.8245467757       14.5317775224  SOLV      4240            0.0000000000
     12841      4252  TIP3      OH2            -2.2807454704        2.5073059716       11.7000476634  SOLV      4241            0.0000000000
     12842      4252  TIP3      H1             -1.9376096479        1.7919140904       11.1253689886  SOLV      4241            0.0000000000
     12843      4252  TIP3      H2             -2.4619419851        2.0308404265       12.5146946346  SOLV      4241            0.0000000000
     12844      4253  TIP3      OH2            -3.3637108968       -2.8723977313       15.1598410633  SOLV      4242            0.0000000000
     12845      4253  TIP3      H1             -2.9650026024       -3.6027010448       14.6585298735  SOLV      4242            0.0000000000
     12846      4253  TIP3      H2             -2.5407340105       -2.3997736354       15.4072342822  SOLV      4242            0.0000000000
     12847      4254  TIP3      OH2             6.8567755268       -9.6901310132       15.1331258927  SOLV      4243            0.0000000000
     12848      4254  TIP3      H1              7.1284289650       -8.8398456905       15.5319621768  SOLV      4243            0.0000000000
     12849      4254  TIP3      H2              7.0618149506       -9.5313679053       14.1948009680  SOLV      4243            0.0000000000
     12850      4255  TIP3      OH2             0.7938364868       -7.9038069580       15.4379405367  SOLV      4244            0.0000000000
     12851      4255  TIP3      H1              1.2170634389       -8.7640938103       15.6215871764  SOLV      4244            0.0000000000
     12852      4255  TIP3      H2              0.4562242799       -8.0548775817       14.5333961552  SOLV      4244            0.0000000000
     12853      4256  TIP3      OH2            -5.7668041154      -11.2838676079       15.0852149590  SOLV      4245            0.0000000000
     12854      4256  TIP3      H1             -5.9869367715      -10.5617563792       14.4580272847  SOLV      4245            0.0000000000
     12855      4256  TIP3      H2             -6.2630561959      -12.0217821009       14.6648271771  SOLV      4245            0.0000000000
     12856      4257  TIP3      OH2             1.1509849882      -10.3558214082       11.3085826395  SOLV      4246            0.0000000000
     12857      4257  TIP3      H1              1.8754378901      -10.4796872745       11.9653434774  SOLV      4246            0.0000000000
     12858      4257  TIP3      H2              1.6583689785       -9.9981258601       10.5576490506  SOLV      4246            0.0000000000
     12859      4258  TIP3      OH2            -9.4940130075       -9.2830011801       16.2160591701  SOLV      4247            0.0000000000
     12860      4258  TIP3      H1             -8.6493185593       -9.4795868051       16.6624191948  SOLV      4247            0.0000000000
     12861      4258  TIP3      H2             -9.3752009812       -9.8114129963       15.3968061656  SOLV      4247            0.0000000000
     12862      4259  TIP3      OH2            -5.1331227074       -7.2958746810       14.2336420493  SOLV      4248            0.0000000000
     12863      4259  TIP3      H1             -4.1826136362       -7.5226364826       14.2996303730  SOLV      4248            0.0000000000
     12864      4259  TIP3      H2             -5.5090048348       -8.1179387151       13.8498865730  SOLV      4248            0.0000000000
     12865      4260  TIP3      OH2             7.5787770792       -7.5681506300       16.8212907254  SOLV      4249            0.0000000000
     12866      4260  TIP3      H1              6.7238088791       -7.1233050721       16.6371096840  SOLV      4249            0.0000000000
     12867      4260  TIP3      H2              7.7758046841       -7.2218164714       17.7067033399  SOLV      4249            0.0000000000
     12868      4261  TIP3      OH2            -5.8576700611      -11.4340006013       19.4688181270  SOLV      4250            0.0000000000
     12869      4261  TIP3      H1             -6.4338952683      -11.0816241652       18.7638364746  SOLV      4250            0.0000000000
     12870      4261  TIP3      H2             -6.4104000623      -11.2514149809       20.2571498395  SOLV      4250            0.0000000000
     12871      4262  TIP3      OH2            -2.3948156524       -2.9022691424        9.5447302877  SOLV      4251            0.0000000000
     12872      4262  TIP3      H1             -2.7658944957       -3.1020038437        8.6623649698  SOLV      4251            0.0000000000
     12873      4262  TIP3      H2             -2.9552952129       -2.1480441619        9.8127109529  SOLV      4251            0.0000000000
     12874      4263  TIP3      OH2            -4.8009245759       -3.6958309076       17.3589774488  SOLV      4252            0.0000000000
     12875      4263  TIP3      H1             -5.3879838020       -2.9870946007       17.7022426913  SOLV      4252            0.0000000000
     12876      4263  TIP3      H2             -4.3574810168       -3.2429528170       16.6092931676  SOLV      4252            0.0000000000
     12877      4264  TIP3      OH2             3.1628824752      -10.2868354112       13.1294251802  SOLV      4253            0.0000000000
     12878      4264  TIP3      H1              2.9653198921      -10.6998147851       13.9789200289  SOLV      4253            0.0000000000
     12879      4264  TIP3      H2              3.6845344677       -9.5045936010       13.3976139534  SOLV      4253            0.0000000000
     12880      4265  TIP3      OH2            -7.1124297175      -10.3047292272       17.2749340484  SOLV      4254            0.0000000000
     12881      4265  TIP3      H1             -6.4973945492       -9.5702538536       17.4922975954  SOLV      4254            0.0000000000
     12882      4265  TIP3      H2             -6.6275302713      -10.7094343163       16.5180489384  SOLV      4254            0.0000000000
     12883      4266  TIP3      OH2            -6.4575023268       -1.7167381879       18.4220959896  SOLV      4255            0.0000000000
     12884      4266  TIP3      H1             -6.7435130256       -0.9267027016       17.9269916184  SOLV      4255            0.0000000000
     12885      4266  TIP3      H2             -7.2802572375       -1.8945319201       18.9211938034  SOLV      4255            0.0000000000
     12886      4267  TIP3      OH2           -12.6220937896       -4.8552142304       10.6074504051  SOLV      4256            0.0000000000
     12887      4267  TIP3      H1            -12.8769634305       -4.6665380647        9.6808524863  SOLV      4256            0.0000000000
     12888      4267  TIP3      H2            -12.3311279901       -3.9749803127       10.9204551020  SOLV      4256            0.0000000000
     12889      4268  TIP3      OH2             1.8090299444        0.3500297368       13.1382524859  SOLV      4257            0.0000000000
     12890      4268  TIP3      H1              0.9057657344        0.2652713455       13.5212021190  SOLV      4257            0.0000000000
     12891      4268  TIP3      H2              1.7323638304        1.2076879529       12.6747114217  SOLV      4257            0.0000000000
     12892      4269  TIP3      OH2             4.7655993743      -10.7033313789       16.7807271205  SOLV      4258            0.0000000000
     12893      4269  TIP3      H1              3.8885717231      -10.4460270292       16.4528158400  SOLV      4258            0.0000000000
     12894      4269  TIP3      H2              5.3587014408      -10.3804420807       16.0706897980  SOLV      4258            0.0000000000
     12895      4270  TIP3      OH2            -2.3409466462      -14.3025821416       16.6480800306  SOLV      4259            0.0000000000
     12896      4270  TIP3      H1             -2.5020446005      -15.2508053570       16.8177779281  SOLV      4259            0.0000000000
     12897      4270  TIP3      H2             -3.1169889310      -13.9080199974       17.1028592789  SOLV      4259            0.0000000000
     12898      4271  TIP3      OH2            -1.2491530375        0.7866840106        9.7762461348  SOLV      4260            0.0000000000
     12899      4271  TIP3      H1             -0.7352827426       -0.0389813944        9.6066426498  SOLV      4260            0.0000000000
     12900      4271  TIP3      H2             -0.6121774404        1.4452906404        9.4158490212  SOLV      4260            0.0000000000
     12901      4272  TIP3      OH2             0.2447956055       -1.3621766451        8.9747713827  SOLV      4261            0.0000000000
     12902      4272  TIP3      H1             -0.1841286515       -2.1596907200        8.6320891374  SOLV      4261            0.0000000000
     12903      4272  TIP3      H2              0.6330438131       -1.6968963227        9.8125487490  SOLV      4261            0.0000000000
     12904      4273  TIP3      OH2             4.0527441682       -0.5856902273       16.5848335216  SOLV      4262            0.0000000000
     12905      4273  TIP3      H1              3.9341999649       -1.3445641468       15.9730766584  SOLV      4262            0.0000000000
     12906      4273  TIP3      H2              3.8720106434        0.1745665328       15.9904881252  SOLV      4262            0.0000000000
     12907      4274  TIP3      OH2            -2.9571545886       -6.6434920432        9.2213987397  SOLV      4263            0.0000000000
     12908      4274  TIP3      H1             -3.7926151690       -6.1369548065        9.0922665617  SOLV      4263            0.0000000000
     12909      4274  TIP3      H2             -2.5878329947       -6.6042431381        8.3246379554  SOLV      4263            0.0000000000
     12910      4275  TIP3      OH2            -3.4572578568       -8.7118181201        6.4071849695  SOLV      4264            0.0000000000
     12911      4275  TIP3      H1             -2.7465000980       -8.2209584578        6.8547924830  SOLV      4264            0.0000000000
     12912      4275  TIP3      H2             -2.9301903522       -9.3437188091        5.8787248519  SOLV      4264            0.0000000000
     12913      4276  TIP3      OH2             6.0145237607       -4.1560311601       15.0830254269  SOLV      4265            0.0000000000
     12914      4276  TIP3      H1              5.1735070087       -3.6474565312       15.0988246376  SOLV      4265            0.0000000000
     12915      4276  TIP3      H2              6.3232678098       -3.9378967521       14.1753715240  SOLV      4265            0.0000000000
     12916      4277  TIP3      OH2             0.4650771753       -5.7870631379        8.8676699398  SOLV      4266            0.0000000000
     12917      4277  TIP3      H1             -0.0902939852       -5.5184207604        9.6370787112  SOLV      4266            0.0000000000
     12918      4277  TIP3      H2              1.3043691635       -6.0111453554        9.3181018040  SOLV      4266            0.0000000000
     12919      4278  TIP3      OH2             2.8039125417       -5.4389691184       18.0670468352  SOLV      4267            0.0000000000
     12920      4278  TIP3      H1              2.7771512948       -4.5803419532       18.5281846340  SOLV      4267            0.0000000000
     12921      4278  TIP3      H2              1.9487491742       -5.4100758588       17.5901520707  SOLV      4267            0.0000000000
     12922      4279  TIP3      OH2            -7.2304972542       -5.8413632859       13.0656340907  SOLV      4268            0.0000000000
     12923      4279  TIP3      H1             -7.6700936458       -6.4319462836       12.4117622889  SOLV      4268            0.0000000000
     12924      4279  TIP3      H2             -6.4616955775       -6.3803517638       13.3410667111  SOLV      4268            0.0000000000
     12925      4280  TIP3      OH2            -6.0353360486       -1.7047252170       14.5475434072  SOLV      4269            0.0000000000
     12926      4280  TIP3      H1             -6.2116542045       -1.9495106940       13.6276085374  SOLV      4269            0.0000000000
     12927      4280  TIP3      H2             -5.1265157851       -2.0438467172       14.6752314469  SOLV      4269            0.0000000000
     12928      4281  TIP3      OH2            -5.9420363343       -6.0977992501       16.6213386402  SOLV      4270            0.0000000000
     12929      4281  TIP3      H1             -5.6027777582       -6.3771914060       15.7413387643  SOLV      4270            0.0000000000
     12930      4281  TIP3      H2             -5.4721950813       -5.2474327946       16.7638835689  SOLV      4270            0.0000000000
     12931      4282  TIP3      OH2            -0.5906448456        0.2828160464       14.3696307838  SOLV      4271            0.0000000000
     12932      4282  TIP3      H1             -0.7384055038        1.0783034976       14.9102963374  SOLV      4271            0.0000000000
     12933      4282  TIP3      H2             -0.7605810070       -0.4511825954       14.9926488981  SOLV      4271            0.0000000000
     12934      4283  TIP3      OH2            -4.4429982145       -0.5528891721       19.9054903764  SOLV      4272            0.0000000000
     12935      4283  TIP3      H1             -5.0716796268        0.0812696752       20.3140418508  SOLV      4272            0.0000000000
     12936      4283  TIP3      H2             -5.0689661758       -1.0766827663       19.3603667557  SOLV      4272            0.0000000000
     12937      4284  TIP3      OH2            -1.0908523257       -7.2607851758        7.1394458366  SOLV      4273            0.0000000000
     12938      4284  TIP3      H1             -0.5434837723       -6.6143037474        7.6423382668  SOLV      4273            0.0000000000
     12939      4284  TIP3      H2             -0.8412297407       -7.0384414372        6.2122100616  SOLV      4273            0.0000000000
     12940      4285  TIP3      OH2            -6.8943304790       -5.0485469267       20.9732894866  SOLV      4274            0.0000000000
     12941      4285  TIP3      H1             -6.8840909102       -4.1318236073       21.3140532033  SOLV      4274            0.0000000000
     12942      4285  TIP3      H2             -7.8573237684       -5.2254362449       20.9903783009  SOLV      4274            0.0000000000
     12943      4286  TIP3      OH2            -3.7413793197       -0.4194953202       10.0171866137  SOLV      4275            0.0000000000
     12944      4286  TIP3      H1             -2.9037219123        0.0656375798        9.9937637739  SOLV      4275            0.0000000000
     12945      4286  TIP3      H2             -4.2680828979        0.0310091214        9.3424232741  SOLV      4275            0.0000000000
     12946      4287  TIP3      OH2            -6.5180270719        1.0766331231       20.7222019149  SOLV      4276            0.0000000000
     12947      4287  TIP3      H1             -6.8233349876        1.1158692796       19.7945370840  SOLV      4276            0.0000000000
     12948      4287  TIP3      H2             -7.3506647482        0.8794685966       21.2086966560  SOLV      4276            0.0000000000
     12949      4288  TIP3      OH2             4.0141459802      -14.8225115581        7.6344214031  SOLV      4277            0.0000000000
     12950      4288  TIP3      H1              3.2020422227      -14.6197221671        8.1443583707  SOLV      4277            0.0000000000
     12951      4288  TIP3      H2              4.1234165005      -13.9954905193        7.1236657938  SOLV      4277            0.0000000000
     12952      4289  TIP3      OH2            -8.6367231712       -7.4342058247       11.2554568584  SOLV      4278            0.0000000000
     12953      4289  TIP3      H1             -9.2266836430       -6.9612310492       10.6307436849  SOLV      4278            0.0000000000
     12954      4289  TIP3      H2             -8.9687983657       -8.3329449531       11.1789690820  SOLV      4278            0.0000000000
     12955      4290  TIP3      OH2           -10.7639084631       -3.5434178937       20.1690724987  SOLV      4279            0.0000000000
     12956      4290  TIP3      H1            -11.4112014937       -3.7470899667       19.4668896632  SOLV      4279            0.0000000000
     12957      4290  TIP3      H2            -10.3673657978       -4.4203478298       20.3502960101  SOLV      4279            0.0000000000
     12958      4291  TIP3      OH2           -11.9936871503       -1.7908345780       16.8348965683  SOLV      4280            0.0000000000
     12959      4291  TIP3      H1            -11.2072400141       -1.8476539125       16.2557024439  SOLV      4280            0.0000000000
     12960      4291  TIP3      H2            -12.0755851179       -0.8527483551       17.0309937807  SOLV      4280            0.0000000000
     12961      4292  TIP3      OH2             6.4446274204        2.9355755515       17.1014617537  SOLV      4281            0.0000000000
     12962      4292  TIP3      H1              6.4321059237        1.9709268347       17.2435661683  SOLV      4281            0.0000000000
     12963      4292  TIP3      H2              5.6033573692        3.1870722586       17.5444425175  SOLV      4281            0.0000000000
     12964      4293  TIP3      OH2            -2.4776983137        0.7268811840       18.4372100158  SOLV      4282            0.0000000000
     12965      4293  TIP3      H1             -2.5409632207        1.6666586195       18.7181070288  SOLV      4282            0.0000000000
     12966      4293  TIP3      H2             -3.1970043600        0.3250348669       18.9702933348  SOLV      4282            0.0000000000
     12967      4294  TIP3      OH2            -4.8819465114        1.8894110235        8.0497650372  SOLV      4283            0.0000000000
     12968      4294  TIP3      H1             -5.2766465478        1.6459575544        7.1831531788  SOLV      4283            0.0000000000
     12969      4294  TIP3      H2             -5.1566614359        2.8167651863        8.1647425956  SOLV      4283            0.0000000000
     12970      4295  TIP3      OH2            -3.0049296353        1.0539481907        4.4858511084  SOLV      4284            0.0000000000
     12971      4295  TIP3      H1             -2.6318716329        0.2762125341        4.0549272148  SOLV      4284            0.0000000000
     12972      4295  TIP3      H2             -2.5235821924        1.0966648455        5.3328123644  SOLV      4284            0.0000000000
     12973      4296  TIP3      OH2            -2.3207765885        1.5713710902        7.1292394340  SOLV      4285            0.0000000000
     12974      4296  TIP3      H1             -3.2350374290        1.5772127373        7.4870701173  SOLV      4285            0.0000000000
     12975      4296  TIP3      H2             -1.8389539941        1.1642967756        7.8664480139  SOLV      4285            0.0000000000
     12976      4297  TIP3      OH2             5.3069413061       -5.8246359300       19.8362722479  SOLV      4286            0.0000000000
     12977      4297  TIP3      H1              4.4939756367       -5.7217667777       19.3190627563  SOLV      4286            0.0000000000
     12978      4297  TIP3      H2              5.4848558092       -6.7815254913       19.7325363055  SOLV      4286            0.0000000000
     12979      4298  TIP3      OH2            -8.7411375116       -1.6686725956       20.0001583400  SOLV      4287            0.0000000000
     12980      4298  TIP3      H1             -8.2279153842       -1.8729903952       20.8081487100  SOLV      4287            0.0000000000
     12981      4298  TIP3      H2             -9.4606286112       -2.3308864948       20.0466665358  SOLV      4287            0.0000000000
     12982      4299  TIP3      OH2            -4.7163398141      -13.5013272822       17.9316574317  SOLV      4288            0.0000000000
     12983      4299  TIP3      H1             -5.5967823132      -13.8081085927       17.6288400067  SOLV      4288            0.0000000000
     12984      4299  TIP3      H2             -4.9869231785      -12.6954362687       18.4132145892  SOLV      4288            0.0000000000
     12985      4300  TIP3      OH2             0.6537002034      -12.3438846142       19.8682362041  SOLV      4289            0.0000000000
     12986      4300  TIP3      H1              1.3424082227      -12.6326674931       20.5011681362  SOLV      4289            0.0000000000
     12987      4300  TIP3      H2             -0.1781209937      -12.5582773216       20.3385188351  SOLV      4289            0.0000000000
     12988      4301  TIP3      OH2             3.0051532003       -8.0601774922       19.0224470280  SOLV      4290            0.0000000000
     12989      4301  TIP3      H1              2.5124731300       -8.0636245205       19.8741743712  SOLV      4290            0.0000000000
     12990      4301  TIP3      H2              2.7804034278       -7.1846361436       18.6527568479  SOLV      4290            0.0000000000
     12991      4302  TIP3      OH2            -0.3266834818       -6.9508542360        4.5502519044  SOLV      4291            0.0000000000
     12992      4302  TIP3      H1             -0.6387715451       -7.1444674896        3.6418195338  SOLV      4291            0.0000000000
     12993      4302  TIP3      H2              0.4223971080       -6.3568357019        4.3446480687  SOLV      4291            0.0000000000
     12994      4303  TIP3      OH2            -3.1949015156      -13.0843112549        7.6450812819  SOLV      4292            0.0000000000
     12995      4303  TIP3      H1             -3.5843448253      -13.0729700152        8.5406154886  SOLV      4292            0.0000000000
     12996      4303  TIP3      H2             -3.6490530847      -13.8679154085        7.2797624160  SOLV      4292            0.0000000000
     12997      4304  TIP3      OH2            -5.3613373591       -8.3278518262       18.0879449160  SOLV      4293            0.0000000000
     12998      4304  TIP3      H1             -5.8905254992       -8.1584077306       18.8950728953  SOLV      4293            0.0000000000
     12999      4304  TIP3      H2             -5.5426829611       -7.5140724691       17.5666277919  SOLV      4293            0.0000000000
     13000      4305  TIP3      OH2            -6.5332659440       -9.4703003650       13.2319237866  SOLV      4294            0.0000000000
     13001      4305  TIP3      H1             -7.4717074113       -9.7000963908       13.3959165979  SOLV      4294            0.0000000000
     13002      4305  TIP3      H2             -6.4178236645       -9.8636487038       12.3364380778  SOLV      4294            0.0000000000
     13003      4306  TIP3      OH2            -1.6408948333       -8.6306474101       10.5581758348  SOLV      4295            0.0000000000
     13004      4306  TIP3      H1             -2.1480865176       -7.9114982024       10.1144403212  SOLV      4295            0.0000000000
     13005      4306  TIP3      H2             -1.0994450364       -8.9649248804        9.8172326580  SOLV      4295            0.0000000000
     13006      4307  TIP3      OH2             0.1184432791       -5.8121041313       21.3973499719  SOLV      4296            0.0000000000
     13007      4307  TIP3      H1             -0.0968041186       -6.5992319470       21.9430505280  SOLV      4296            0.0000000000
     13008      4307  TIP3      H2              1.0771089143       -5.7388341919       21.5613489803  SOLV      4296            0.0000000000
     13009      4308  TIP3      OH2            -0.0854630002       -8.3676524760       12.8796415012  SOLV      4297            0.0000000000
     13010      4308  TIP3      H1             -0.7183074003       -8.0855859734       12.1856056322  SOLV      4297            0.0000000000
     13011      4308  TIP3      H2              0.2700298748       -9.1578294454       12.4210722606  SOLV      4297            0.0000000000
     13012      4309  TIP3      OH2            -7.1531703885       -8.0575392578       20.1720474815  SOLV      4298            0.0000000000
     13013      4309  TIP3      H1             -6.8991974806       -7.4180505118       20.8526890335  SOLV      4298            0.0000000000
     13014      4309  TIP3      H2             -7.2964730529       -8.8738682544       20.6905469148  SOLV      4298            0.0000000000
     13015      4310  TIP3      OH2            -6.6425778164      -13.2532829798        7.2889571361  SOLV      4299            0.0000000000
     13016      4310  TIP3      H1             -6.7894211626      -13.2547070866        8.2549060360  SOLV      4299            0.0000000000
     13017      4310  TIP3      H2             -7.4217306997      -12.7454866338        6.9894003223  SOLV      4299            0.0000000000
     13018      4311  TIP3      OH2           -11.2823222186      -12.8835197743       16.0625391324  SOLV      4300            0.0000000000
     13019      4311  TIP3      H1            -10.5076062849      -12.5328405473       16.5435721767  SOLV      4300            0.0000000000
     13020      4311  TIP3      H2            -10.9254380980      -13.1325024652       15.1972625669  SOLV      4300            0.0000000000
     13021      4312  TIP3      OH2           -11.6540270674      -13.0437866873       11.1833468775  SOLV      4301            0.0000000000
     13022      4312  TIP3      H1            -11.2260655530      -12.6754224272       10.3773953379  SOLV      4301            0.0000000000
     13023      4312  TIP3      H2            -12.2690696064      -12.3112703944       11.3757278730  SOLV      4301            0.0000000000
     13024      4313  TIP3      OH2             0.0570567311       -5.9208908110       17.1042456514  SOLV      4302            0.0000000000
     13025      4313  TIP3      H1              0.3719533705       -6.6290541066       16.4943056989  SOLV      4302            0.0000000000
     13026      4313  TIP3      H2             -0.2796733038       -6.4666924860       17.8440497480  SOLV      4302            0.0000000000
     13027      4314  TIP3      OH2            -3.1819490139      -11.3227754135       13.8320266779  SOLV      4303            0.0000000000
     13028      4314  TIP3      H1             -4.0083280826      -11.3026651760       14.3560172237  SOLV      4303            0.0000000000
     13029      4314  TIP3      H2             -2.5025976601      -11.3333542015       14.5262188059  SOLV      4303            0.0000000000
     13030      4315  TIP3      OH2            -8.9405492552      -10.6765764416       13.9112791220  SOLV      4304            0.0000000000
     13031      4315  TIP3      H1             -9.8776764179      -10.6073352403       13.6104764302  SOLV      4304            0.0000000000
     13032      4315  TIP3      H2             -8.6965536940      -11.5857078228       13.6578572644  SOLV      4304            0.0000000000
     13033      4316  TIP3      OH2            -6.2816227011      -10.7344946494       10.8250410163  SOLV      4305            0.0000000000
     13034      4316  TIP3      H1             -5.3580719132      -10.5573689923       10.5685401832  SOLV      4305            0.0000000000
     13035      4316  TIP3      H2             -6.7829352788      -10.5114228067       10.0058580259  SOLV      4305            0.0000000000
     13036      4317  TIP3      OH2             1.6533760217      -10.5126913543       15.8872080149  SOLV      4306            0.0000000000
     13037      4317  TIP3      H1              1.3268572625      -10.3674988785       16.8024836651  SOLV      4306            0.0000000000
     13038      4317  TIP3      H2              0.9596782376      -11.1059523397       15.5456123788  SOLV      4306            0.0000000000
     13039      4318  TIP3      OH2            -7.7908518301      -10.4215885432        8.5895552738  SOLV      4307            0.0000000000
     13040      4318  TIP3      H1             -8.4466439791      -10.8751189957        8.0274572093  SOLV      4307            0.0000000000
     13041      4318  TIP3      H2             -7.2424160334       -9.9906201825        7.8958538609  SOLV      4307            0.0000000000
     13042      4319  TIP3      OH2             3.4004624630        6.3868422812       18.0800439324  SOLV      4308            0.0000000000
     13043      4319  TIP3      H1              3.3678783955        6.6426215419       17.1407136154  SOLV      4308            0.0000000000
     13044      4319  TIP3      H2              4.2030135836        6.8599837977       18.3805284556  SOLV      4308            0.0000000000
     13045      4320  TIP3      OH2            -7.1566582462       -2.5139567330       22.1909582202  SOLV      4309            0.0000000000
     13046      4320  TIP3      H1             -6.3773702472       -2.1152214874       22.6270017767  SOLV      4309            0.0000000000
     13047      4320  TIP3      H2             -7.7928280556       -2.5188200844       22.9325636488  SOLV      4309            0.0000000000
     13048      4321  TIP3      OH2            -2.4456097415       -7.9532415400       14.8142069523  SOLV      4310            0.0000000000
     13049      4321  TIP3      H1             -1.7196261823       -8.3444851190       14.3065876042  SOLV      4310            0.0000000000
     13050      4321  TIP3      H2             -2.3862140485       -8.4221542627       15.6663856648  SOLV      4310            0.0000000000
     13051      4322  TIP3      OH2            -7.2717478619      -13.1145857422       13.6662311538  SOLV      4311            0.0000000000
     13052      4322  TIP3      H1             -7.6237930784      -13.8954383426       14.1468099654  SOLV      4311            0.0000000000
     13053      4322  TIP3      H2             -6.9159721777      -13.5200252568       12.8660316218  SOLV      4311            0.0000000000
     13054      4323  TIP3      OH2            -2.6897513981       -8.9727906525       17.6950060787  SOLV      4312            0.0000000000
     13055      4323  TIP3      H1             -3.5974848487       -8.6337121876       17.8362889951  SOLV      4312            0.0000000000
     13056      4323  TIP3      H2             -2.1351225180       -8.3462205165       18.1988138930  SOLV      4312            0.0000000000
     13057      4324  TIP3      OH2            -5.1634854807       -5.1440529858        8.7155330005  SOLV      4313            0.0000000000
     13058      4324  TIP3      H1             -5.9183874503       -5.7561077163        8.5582697088  SOLV      4313            0.0000000000
     13059      4324  TIP3      H2             -5.4500291533       -4.7264568402        9.5589832870  SOLV      4313            0.0000000000
     13060      4325  TIP3      OH2             3.6583724510       -2.7415116023       14.9036678432  SOLV      4314            0.0000000000
     13061      4325  TIP3      H1              3.9099104634       -2.2345612479       14.1016070436  SOLV      4314            0.0000000000
     13062      4325  TIP3      H2              2.8080506227       -3.1512180758       14.6307915984  SOLV      4314            0.0000000000
     13063      4326  TIP3      OH2            -0.7436360774      -11.9874966098        7.2990387507  SOLV      4315            0.0000000000
     13064      4326  TIP3      H1             -1.6978842682      -12.2184730419        7.4088597417  SOLV      4315            0.0000000000
     13065      4326  TIP3      H2             -0.7048336965      -11.0526376780        7.5839866881  SOLV      4315            0.0000000000
     13066      4327  TIP3      OH2            -1.3856333198       -1.9363441870       18.6527442898  SOLV      4316            0.0000000000
     13067      4327  TIP3      H1             -0.9704303680       -1.9962531071       19.5183295495  SOLV      4316            0.0000000000
     13068      4327  TIP3      H2             -1.7138341372       -1.0188340723       18.6315912983  SOLV      4316            0.0000000000
     13069      4328  TIP3      OH2            -0.0644902919       -9.5069261890        8.3784170862  SOLV      4317            0.0000000000
     13070      4328  TIP3      H1              0.8955304299       -9.3941120416        8.5160796117  SOLV      4317            0.0000000000
     13071      4328  TIP3      H2             -0.3039943910       -8.6998274909        7.8754459906  SOLV      4317            0.0000000000
     13072      4329  TIP3      OH2            -8.3984695240       -4.9074869245       15.3812626879  SOLV      4318            0.0000000000
     13073      4329  TIP3      H1             -8.0317685842       -5.1305266123       14.4989523427  SOLV      4318            0.0000000000
     13074      4329  TIP3      H2             -7.8613363407       -5.4765516736       15.9512269405  SOLV      4318            0.0000000000
     13075      4330  TIP3      OH2            -3.5808452354       -3.4859210864        7.0849200803  SOLV      4319            0.0000000000
     13076      4330  TIP3      H1             -4.1583811892       -2.7029498399        6.9396413443  SOLV      4319            0.0000000000
     13077      4330  TIP3      H2             -4.2357870141       -4.1065779997        7.4667125321  SOLV      4319            0.0000000000
     13078      4331  TIP3      OH2            -9.5648965863       -5.6869891997       21.5478855739  SOLV      4320            0.0000000000
     13079      4331  TIP3      H1             -9.4155659675       -5.8512173936       22.4970413766  SOLV      4320            0.0000000000
     13080      4331  TIP3      H2            -10.2670117278       -6.3287991759       21.3411056627  SOLV      4320            0.0000000000
     13081      4332  TIP3      OH2            -2.3098844659       -4.5232381246       21.8680725773  SOLV      4321            0.0000000000
     13082      4332  TIP3      H1             -2.9471067525       -5.0893108859       21.3894266615  SOLV      4321            0.0000000000
     13083      4332  TIP3      H2             -1.4624163095       -4.8767770853       21.5151095892  SOLV      4321            0.0000000000
     13084      4333  TIP3      OH2             0.2619856159        0.6561084138       17.6622058521  SOLV      4322            0.0000000000
     13085      4333  TIP3      H1             -0.7067119372        0.6912122730       17.7478164567  SOLV      4322            0.0000000000
     13086      4333  TIP3      H2              0.5306851463        1.2256368616       18.4131589094  SOLV      4322            0.0000000000
     13087      4334  TIP3      OH2             4.3826614420       -8.5274905906        6.7132598131  SOLV      4323            0.0000000000
     13088      4334  TIP3      H1              3.8417082490       -8.9936403430        6.0332468297  SOLV      4323            0.0000000000
     13089      4334  TIP3      H2              4.3163292101       -7.6255034907        6.3203066727  SOLV      4323            0.0000000000
     13090      4335  TIP3      OH2             6.5517934713        0.0136463175       17.4734557024  SOLV      4324            0.0000000000
     13091      4335  TIP3      H1              5.5760930459       -0.0504831334       17.3745924509  SOLV      4324            0.0000000000
     13092      4335  TIP3      H2              6.8272266720       -0.2827649975       16.5760077958  SOLV      4324            0.0000000000
     13093      4336  TIP3      OH2             1.3779408427       -0.4939078871        5.7184513786  SOLV      4325            0.0000000000
     13094      4336  TIP3      H1              1.0347770189       -0.9177903538        6.5183280685  SOLV      4325            0.0000000000
     13095      4336  TIP3      H2              1.6639976069       -1.2455156395        5.1953038738  SOLV      4325            0.0000000000
     13096      4337  TIP3      OH2             1.3301113719       -4.1018392779       14.0826949250  SOLV      4326            0.0000000000
     13097      4337  TIP3      H1              0.3925129432       -4.3484587863       14.2116380368  SOLV      4326            0.0000000000
     13098      4337  TIP3      H2              1.6629572553       -4.9023778779       13.6302238508  SOLV      4326            0.0000000000
     13099      4338  TIP3      OH2            -7.3038720697       -1.8677454356       11.7552022000  SOLV      4327            0.0000000000
     13100      4338  TIP3      H1             -7.1970927292       -1.3260788906       10.9587214939  SOLV      4327            0.0000000000
     13101      4338  TIP3      H2             -8.2306160062       -2.1300580333       11.6984461196  SOLV      4327            0.0000000000
     13102      4339  TIP3      OH2           -11.7362154868       -8.8634855141        8.6995688758  SOLV      4328            0.0000000000
     13103      4339  TIP3      H1            -11.2633460286       -8.0268638826        8.8902899530  SOLV      4328            0.0000000000
     13104      4339  TIP3      H2            -12.5312825174       -8.7587533488        9.2640480657  SOLV      4328            0.0000000000
     13105      4340  TIP3      OH2            -5.9648181343       -4.2153797478       11.1722903739  SOLV      4329            0.0000000000
     13106      4340  TIP3      H1             -6.2922246286       -3.3205135819       11.3615524615  SOLV      4329            0.0000000000
     13107      4340  TIP3      H2             -6.4148505761       -4.7396540572       11.8586026317  SOLV      4329            0.0000000000
     13108      4341  TIP3      OH2            -4.6605492228        1.5916492098       16.3738000515  SOLV      4330            0.0000000000
     13109      4341  TIP3      H1             -4.2655538580        2.3045707222       15.8277250291  SOLV      4330            0.0000000000
     13110      4341  TIP3      H2             -3.8660532166        1.2153802994       16.7810754675  SOLV      4330            0.0000000000
     13111      4342  TIP3      OH2            -8.2422591750        0.5884482798       10.1267785407  SOLV      4331            0.0000000000
     13112      4342  TIP3      H1             -8.9730664275        0.5976036548       10.7588526683  SOLV      4331            0.0000000000
     13113      4342  TIP3      H2             -7.5636429375        1.0972928175       10.5699143461  SOLV      4331            0.0000000000
     13114      4343  TIP3      OH2            -0.8394050081       -2.0239109694       15.9586440727  SOLV      4332            0.0000000000
     13115      4343  TIP3      H1             -0.9351797399       -2.0756122097       16.9349529245  SOLV      4332            0.0000000000
     13116      4343  TIP3      H2             -0.0634243345       -2.5805319565       15.8085941215  SOLV      4332            0.0000000000
     13117      4344  TIP3      OH2            -1.1765481577       -3.2644934239        4.9042586760  SOLV      4333            0.0000000000
     13118      4344  TIP3      H1             -0.5997679804       -3.4412339186        5.6784081839  SOLV      4333            0.0000000000
     13119      4344  TIP3      H2             -2.0535546268       -3.3134405940        5.3149353698  SOLV      4333            0.0000000000
     13120      4345  TIP3      OH2             1.6732949846        3.2603167903       16.4409455676  SOLV      4334            0.0000000000
     13121      4345  TIP3      H1              0.8580550852        2.7303396943       16.3565700472  SOLV      4334            0.0000000000
     13122      4345  TIP3      H2              1.5386965105        3.9132237920       15.7184744659  SOLV      4334            0.0000000000
     13123      4346  TIP3      OH2            -7.4961158118      -10.6120925292       21.5910353570  SOLV      4335            0.0000000000
     13124      4346  TIP3      H1             -8.4681417538      -10.6102975526       21.6763180151  SOLV      4335            0.0000000000
     13125      4346  TIP3      H2             -7.2374508600      -11.2042605251       22.3156266462  SOLV      4335            0.0000000000
     13126      4347  TIP3      OH2             0.5907852886       -3.7825830746        6.9569066436  SOLV      4336            0.0000000000
     13127      4347  TIP3      H1              0.4911940936       -4.4470386737        7.6662873075  SOLV      4336            0.0000000000
     13128      4347  TIP3      H2              1.5611341314       -3.8092054221        6.8243834640  SOLV      4336            0.0000000000
     13129      4348  TIP3      OH2           -10.2795138477        0.4963512488       18.1810394379  SOLV      4337            0.0000000000
     13130      4348  TIP3      H1             -9.8633635979       -0.3639014951       17.9550017890  SOLV      4337            0.0000000000
     13131      4348  TIP3      H2             -9.8453664493        0.5825372317       19.0959623481  SOLV      4337            0.0000000000
     13132      4349  TIP3      OH2           -10.5565827957       -6.4635046760        9.4686187863  SOLV      4338            0.0000000000
     13133      4349  TIP3      H1            -11.2345744082       -5.9009632833        9.8944567098  SOLV      4338            0.0000000000
     13134      4349  TIP3      H2            -10.3838429156       -5.9892974610        8.6399844828  SOLV      4338            0.0000000000
     13135      4350  TIP3      OH2             0.9172696219       -9.9541795630       18.4950690842  SOLV      4339            0.0000000000
     13136      4350  TIP3      H1              1.7542824795       -9.5940186120       18.8329560543  SOLV      4339            0.0000000000
     13137      4350  TIP3      H2              0.8090659045      -10.7799975314       19.0151197110  SOLV      4339            0.0000000000
     13138      4351  TIP3      OH2            -0.2360144826      -12.5218281037       10.1528058230  SOLV      4340            0.0000000000
     13139      4351  TIP3      H1             -0.4186731709      -12.2830285471        9.2246190413  SOLV      4340            0.0000000000
     13140      4351  TIP3      H2              0.1571189061      -11.6933648109       10.5017484842  SOLV      4340            0.0000000000
     13141      4352  TIP3      OH2            -5.1835551794       -1.2508048450        7.0549675045  SOLV      4341            0.0000000000
     13142      4352  TIP3      H1             -6.1286778366       -1.3731801344        7.2641750383  SOLV      4341            0.0000000000
     13143      4352  TIP3      H2             -5.2498031099       -0.5494620570        6.3932082332  SOLV      4341            0.0000000000
     13144      4353  TIP3      OH2            -3.4122779081      -10.6690820531       11.1384437883  SOLV      4342            0.0000000000
     13145      4353  TIP3      H1             -2.7954712006       -9.9273157672       10.9567002699  SOLV      4342            0.0000000000
     13146      4353  TIP3      H2             -3.3541130483      -10.7326887756       12.1140013578  SOLV      4342            0.0000000000
     13147      4354  TIP3      OH2            -0.7142823289       -7.5380952301       19.1777486805  SOLV      4343            0.0000000000
     13148      4354  TIP3      H1             -0.4327517336       -7.0334726040       19.9622808606  SOLV      4343            0.0000000000
     13149      4354  TIP3      H2             -0.1728646110       -8.3465706295       19.2302111452  SOLV      4343            0.0000000000
     13150      4355  TIP3      OH2            -2.0016613203      -13.4671294514       12.1333924310  SOLV      4344            0.0000000000
     13151      4355  TIP3      H1             -2.1747379887      -12.6583604802       12.6528277439  SOLV      4344            0.0000000000
     13152      4355  TIP3      H2             -1.3607070619      -13.1265455703       11.4686498622  SOLV      4344            0.0000000000
     13153      4356  TIP3      OH2            -7.8583467539       -0.5319440870        7.5864152853  SOLV      4345            0.0000000000
     13154      4356  TIP3      H1             -8.1043278731        0.1353357949        6.9452901583  SOLV      4345            0.0000000000
     13155      4356  TIP3      H2             -8.0159525405       -0.0986044887        8.4477245152  SOLV      4345            0.0000000000
     13156      4357  TIP3      OH2            -6.8654723953      -13.4025714802       10.0617179280  SOLV      4346            0.0000000000
     13157      4357  TIP3      H1             -6.9082540247      -12.4879719250       10.4012748377  SOLV      4346            0.0000000000
     13158      4357  TIP3      H2             -5.8968271399      -13.5498470339       10.1175136214  SOLV      4346            0.0000000000
     13159      4358  TIP3      OH2             5.6584588582       -8.5003503067       19.0172496859  SOLV      4347            0.0000000000
     13160      4358  TIP3      H1              4.6765949128       -8.5009300939       19.0833942177  SOLV      4347            0.0000000000
     13161      4358  TIP3      H2              5.7638369287       -8.9198317136       18.1533560232  SOLV      4347            0.0000000000
     13162      4359  TIP3      OH2             2.1866451849       -6.5595899673       12.9026236379  SOLV      4348            0.0000000000
     13163      4359  TIP3      H1              1.4127426327       -7.1415730739       13.0049007844  SOLV      4348            0.0000000000
     13164      4359  TIP3      H2              2.8816695709       -7.0467276121       13.3932758845  SOLV      4348            0.0000000000
     13165      4360  TIP3      OH2           -11.2930420028      -11.5523396327        8.9358082718  SOLV      4349            0.0000000000
     13166      4360  TIP3      H1            -11.2323661434      -10.5734459209        8.9122054744  SOLV      4349            0.0000000000
     13167      4360  TIP3      H2            -12.0085250533      -11.7034109109        8.3161352737  SOLV      4349            0.0000000000
     13168      4361  TIP3      OH2             1.8900022992        3.0572921193       12.3498065501  SOLV      4350            0.0000000000
     13169      4361  TIP3      H1              1.4604422789        3.5416206149       11.6093526004  SOLV      4350            0.0000000000
     13170      4361  TIP3      H2              2.8353586846        3.2413663420       12.1457866915  SOLV      4350            0.0000000000
     13171      4362  TIP3      OH2            -7.3583986009      -14.3045161842       17.6190244432  SOLV      4351            0.0000000000
     13172      4362  TIP3      H1             -7.6649496918      -14.6368332107       16.7469215558  SOLV      4351            0.0000000000
     13173      4362  TIP3      H2             -7.4789522004      -15.0920334964       18.1869394474  SOLV      4351            0.0000000000
     13174      4363  TIP3      OH2           -11.9709237231       -2.1811388565       11.3673287775  SOLV      4352            0.0000000000
     13175      4363  TIP3      H1            -12.4533101772       -1.7743794926       12.1024153448  SOLV      4352            0.0000000000
     13176      4363  TIP3      H2            -12.1557921473       -1.5580315520       10.6370512940  SOLV      4352            0.0000000000
     13177      4364  TIP3      OH2           -10.3877475646        3.3398192096       22.2196090084  SOLV      4353            0.0000000000
     13178      4364  TIP3      H1             -9.5021802758        3.4037411468       22.6420568306  SOLV      4353            0.0000000000
     13179      4364  TIP3      H2            -10.5309350481        2.3803804433       22.2289616972  SOLV      4353            0.0000000000
     13180      4365  TIP3      OH2            -5.6196628335        2.8205219139       22.6892979624  SOLV      4354            0.0000000000
     13181      4365  TIP3      H1             -4.6557362265        2.7763560062       22.6324925236  SOLV      4354            0.0000000000
     13182      4365  TIP3      H2             -5.8725367833        2.2426726987       21.9393370277  SOLV      4354            0.0000000000
     13183      4366  TIP3      OH2             0.7498123676        2.0638407461       19.9876245979  SOLV      4355            0.0000000000
     13184      4366  TIP3      H1              0.7297943520        1.3429443655       20.6571594673  SOLV      4355            0.0000000000
     13185      4366  TIP3      H2              1.5509122181        2.5628811889       20.2470913541  SOLV      4355            0.0000000000
     13186      4367  TIP3      OH2            -9.1114690052       -2.5946781269       24.1678162616  SOLV      4356            0.0000000000
     13187      4367  TIP3      H1             -8.9353751432       -3.5512141421       24.2264805506  SOLV      4356            0.0000000000
     13188      4367  TIP3      H2             -9.9828215224       -2.5824649200       23.7107032191  SOLV      4356            0.0000000000
     13189      4368  TIP3      OH2            -3.0345829280       -1.7611247162       21.9376516496  SOLV      4357            0.0000000000
     13190      4368  TIP3      H1             -3.4241992512       -1.4999739257       21.0756785037  SOLV      4357            0.0000000000
     13191      4368  TIP3      H2             -2.7124545280       -2.6668571535       21.7557578058  SOLV      4357            0.0000000000
     13192      4369  TIP3      OH2             1.9053889496       -1.5921814782       18.0153537770  SOLV      4358            0.0000000000
     13193      4369  TIP3      H1              2.6669577965       -1.1969831316       17.5463581174  SOLV      4358            0.0000000000
     13194      4369  TIP3      H2              1.2236279800       -0.9133340275       17.8408109549  SOLV      4358            0.0000000000
     13195      4370  TIP3      OH2            -7.9260718344       -5.2045881452       24.0238012635  SOLV      4359            0.0000000000
     13196      4370  TIP3      H1             -7.1545270105       -5.6943511756       23.7037466822  SOLV      4359            0.0000000000
     13197      4370  TIP3      H2             -7.6452632907       -4.9077052839       24.9109239508  SOLV      4359            0.0000000000
     13198      4371  TIP3      OH2            -7.0393659915       -7.1179592500        8.5288409237  SOLV      4360            0.0000000000
     13199      4371  TIP3      H1             -7.5229987669       -7.6352616282        9.1793765604  SOLV      4360            0.0000000000
     13200      4371  TIP3      H2             -6.8308898260       -7.7818125683        7.8417703683  SOLV      4360            0.0000000000
     13201      4372  TIP3      OH2            -4.5063587818       -6.4005423329       20.6612573810  SOLV      4361            0.0000000000
     13202      4372  TIP3      H1             -5.3128097567       -5.8411630381       20.6717365209  SOLV      4361            0.0000000000
     13203      4372  TIP3      H2             -4.0419886789       -6.0690264847       19.8590400517  SOLV      4361            0.0000000000
     13204      4373  TIP3      OH2            -6.2099625960       -9.1383337934        6.8009895123  SOLV      4362            0.0000000000
     13205      4373  TIP3      H1             -6.4978013119       -9.1414452644        5.8559967499  SOLV      4362            0.0000000000
     13206      4373  TIP3      H2             -5.2456585973       -9.0171697804        6.6921161732  SOLV      4362            0.0000000000
     13207      4374  TIP3      OH2             0.6496909835       -2.4279677484       21.9287516095  SOLV      4363            0.0000000000
     13208      4374  TIP3      H1              1.3858452035       -2.6810408743       21.3573268624  SOLV      4363            0.0000000000
     13209      4374  TIP3      H2              0.6759737896       -3.1138036006       22.6120505497  SOLV      4363            0.0000000000
     13210      4375  TIP3      OH2             1.9834575841       -5.8866039444        3.3596555970  SOLV      4364            0.0000000000
     13211      4375  TIP3      H1              1.9874350904       -6.2625739625        2.4623307874  SOLV      4364            0.0000000000
     13212      4375  TIP3      H2              1.6306213180       -4.9822189519        3.1659392736  SOLV      4364            0.0000000000
     13213      4376  TIP3      OH2            -3.2695171480       -8.5363687653       21.8041025050  SOLV      4365            0.0000000000
     13214      4376  TIP3      H1             -3.3068952244       -9.3249353566       21.2255288943  SOLV      4365            0.0000000000
     13215      4376  TIP3      H2             -3.7264937430       -7.8515101017       21.2608098360  SOLV      4365            0.0000000000
     13216      4377  TIP3      OH2            -3.2755230971      -10.6498784344       19.9536106145  SOLV      4366            0.0000000000
     13217      4377  TIP3      H1             -2.9927276519      -10.2526972864       19.1059553620  SOLV      4366            0.0000000000
     13218      4377  TIP3      H2             -4.2049777004      -10.8979951586       19.7563092273  SOLV      4366            0.0000000000
     13219      4378  TIP3      OH2            -3.0301084147       -5.2815870467       18.7091256807  SOLV      4367            0.0000000000
     13220      4378  TIP3      H1             -2.1858323891       -5.1504836670       18.2660623060  SOLV      4367            0.0000000000
     13221      4378  TIP3      H2             -3.6098750720       -4.6525549484       18.2235197163  SOLV      4367            0.0000000000
     13222      4379  TIP3      OH2             2.7962396203       -5.6460927384       22.4585098996  SOLV      4368            0.0000000000
     13223      4379  TIP3      H1              3.2577476098       -6.4964712701       22.5185053394  SOLV      4368            0.0000000000
     13224      4379  TIP3      H2              3.4718273327       -5.0823091911       22.0516665844  SOLV      4368            0.0000000000
     13225      4380  TIP3      OH2             3.1704441655       -3.1027026443       19.8443768301  SOLV      4369            0.0000000000
     13226      4380  TIP3      H1              2.6135570376       -2.5396464091       19.2530016838  SOLV      4369            0.0000000000
     13227      4380  TIP3      H2              4.0564689239       -2.9093779378       19.4602927941  SOLV      4369            0.0000000000
     13228      4381  TIP3      OH2            -4.4473012449       -7.4269727567       24.0135768244  SOLV      4370            0.0000000000
     13229      4381  TIP3      H1             -5.1112356693       -8.0562370427       24.3475943069  SOLV      4370            0.0000000000
     13230      4381  TIP3      H2             -4.2253548139       -7.8198368132       23.1234399251  SOLV      4370            0.0000000000
     13231      4382  TIP3      OH2            -1.9654715296      -13.0402606717       20.6674958975  SOLV      4371            0.0000000000
     13232      4382  TIP3      H1             -2.4583127395      -12.2309122087       20.4156344456  SOLV      4371            0.0000000000
     13233      4382  TIP3      H2             -2.6481518556      -13.7317455740       20.5413920805  SOLV      4371            0.0000000000
     13234      4383  TIP3      OH2            -0.6975427678       -8.0523194131       22.6901258525  SOLV      4372            0.0000000000
     13235      4383  TIP3      H1             -0.9303266598       -8.2536816971       23.6175944264  SOLV      4372            0.0000000000
     13236      4383  TIP3      H2             -1.5674677501       -8.2521611143       22.2799410746  SOLV      4372            0.0000000000
     13237      4384  TIP3      OH2             1.7159509290       -8.4414589817       21.3452374990  SOLV      4373            0.0000000000
     13238      4384  TIP3      H1              0.9394997303       -8.5050550528       21.9349678489  SOLV      4373            0.0000000000
     13239      4384  TIP3      H2              2.4378228387       -8.7954602991       21.9047921013  SOLV      4373            0.0000000000
     13240      4385  TIP3      OH2             3.9878232251       -9.0881414188       22.8378123511  SOLV      4374            0.0000000000
     13241      4385  TIP3      H1              4.1228495584      -10.0494659107       22.9818103232  SOLV      4374            0.0000000000
     13242      4385  TIP3      H2              3.9434206343       -8.7392021491       23.7524812066  SOLV      4374            0.0000000000
     13243      4386  TIP3      OH2            -6.1318612257       -9.6534384480       24.7319531659  SOLV      4375            0.0000000000
     13244      4386  TIP3      H1             -6.1007075128      -10.5660724579       24.3849809710  SOLV      4375            0.0000000000
     13245      4386  TIP3      H2             -5.7617219380       -9.7975452737       25.6280636754  SOLV      4375            0.0000000000
     13246      4387  TIP3      OH2            -1.0309617897      -12.9443978914       23.2395657218  SOLV      4376            0.0000000000
     13247      4387  TIP3      H1             -0.3826003406      -13.6740267532       23.1664201490  SOLV      4376            0.0000000000
     13248      4387  TIP3      H2             -1.4329094261      -12.9813891262       22.3463885434  SOLV      4376            0.0000000000
     13249      4388  TIP3      OH2            -0.3421212394      -10.8112705727       24.7701897714  SOLV      4377            0.0000000000
     13250      4388  TIP3      H1             -0.5509815148      -11.5538931678       24.1572323334  SOLV      4377            0.0000000000
     13251      4388  TIP3      H2             -1.1164244244      -10.2270331433       24.6486948775  SOLV      4377            0.0000000000
     13252      4389  TIP3      OH2           -13.1004149917       -4.7926617138        7.8168896362  SOLV      4378            0.0000000000
     13253      4389  TIP3      H1            -12.3807249230       -4.7518084901        7.1549628211  SOLV      4378            0.0000000000
     13254      4389  TIP3      H2            -13.4418208398       -5.6848819724        7.5785767616  SOLV      4378            0.0000000000
     13255      4390  TIP3      OH2           -14.4558019182        1.2888954128       12.4488138183  SOLV      4379            0.0000000000
     13256      4390  TIP3      H1            -14.9558788833        0.6605212871       11.8832040323  SOLV      4379            0.0000000000
     13257      4390  TIP3      H2            -13.6846964261        0.7796435909       12.7348004582  SOLV      4379            0.0000000000
     13258      4391  TIP3      OH2             4.4633204943        3.8879105473       11.9900268462  SOLV      4380            0.0000000000
     13259      4391  TIP3      H1              4.7292192221        4.2517253684       12.8523515996  SOLV      4380            0.0000000000
     13260      4391  TIP3      H2              5.1137561073        4.2824945593       11.3880862211  SOLV      4380            0.0000000000
     13261      4392  TIP3      OH2             4.7144174329        4.1292149679       14.8337607386  SOLV      4381            0.0000000000
     13262      4392  TIP3      H1              4.2684572882        3.2585153202       14.7663425683  SOLV      4381            0.0000000000
     13263      4392  TIP3      H2              5.4706909462        3.8831026667       15.3888045410  SOLV      4381            0.0000000000
     13264      4393  TIP3      OH2             5.1995713754        0.8975346701       20.5330944878  SOLV      4382            0.0000000000
     13265      4393  TIP3      H1              4.4857334018        1.0055721885       21.1926156596  SOLV      4382            0.0000000000
     13266      4393  TIP3      H2              5.6320149197        1.7755059067       20.5655279536  SOLV      4382            0.0000000000
     13267      4394  TIP3      OH2             3.3610326941       -3.9877582193        6.7184500173  SOLV      4383            0.0000000000
     13268      4394  TIP3      H1              4.0183832162       -3.3239211180        6.4146505611  SOLV      4383            0.0000000000
     13269      4394  TIP3      H2              3.8346002529       -4.3725689425        7.4860708594  SOLV      4383            0.0000000000
     13270      4395  TIP3      OH2             4.6616586293       -5.3439032331        8.7428050463  SOLV      4384            0.0000000000
     13271      4395  TIP3      H1              3.9719793185       -5.7244514209        9.3277943123  SOLV      4384            0.0000000000
     13272      4395  TIP3      H2              5.2848431149       -4.9388302024        9.3789451163  SOLV      4384            0.0000000000
     13273      4396  TIP3      OH2             5.2246756483       -1.3544670857       13.0821205430  SOLV      4385            0.0000000000
     13274      4396  TIP3      H1              5.7260346307       -2.0284703339       12.5876753994  SOLV      4385            0.0000000000
     13275      4396  TIP3      H2              5.1927598977       -0.6136159577       12.4414485657  SOLV      4385            0.0000000000
     13276      4397  TIP3      OH2             3.4579442944        1.6157596577       15.0128634206  SOLV      4386            0.0000000000
     13277      4397  TIP3      H1              2.7357707082        2.0458576466       15.5088925890  SOLV      4386            0.0000000000
     13278      4397  TIP3      H2              2.9710297079        1.1673391463       14.2878218217  SOLV      4386            0.0000000000
     13279      4398  TIP3      OH2             3.9381119645       -6.2326415003        5.2388188512  SOLV      4387            0.0000000000
     13280      4398  TIP3      H1              3.2636503692       -6.1606006295        4.5251855143  SOLV      4387            0.0000000000
     13281      4398  TIP3      H2              3.7059562500       -5.4373312947        5.7599540843  SOLV      4387            0.0000000000
     13282      4399  TIP3      OH2             2.8253812329       -9.5018315906        4.7483430140  SOLV      4388            0.0000000000
     13283      4399  TIP3      H1              2.1243478661       -8.9113293403        4.4723118161  SOLV      4388            0.0000000000
     13284      4399  TIP3      H2              2.4815637477      -10.3988903825        4.5499883581  SOLV      4388            0.0000000000
     13285      4400  TIP3      OH2             2.7407875432       -6.6948823488       10.1987123592  SOLV      4389            0.0000000000
     13286      4400  TIP3      H1              2.8130759490       -7.6598605550       10.1257340591  SOLV      4389            0.0000000000
     13287      4400  TIP3      H2              2.5910082229       -6.5645909945       11.1600736824  SOLV      4389            0.0000000000
     13288      4401  TIP3      OH2           -11.0020827445       -6.0331399737       17.7153634972  SOLV      4390            0.0000000000
     13289      4401  TIP3      H1            -11.0400079511       -6.3696127791       16.7928434521  SOLV      4390            0.0000000000
     13290      4401  TIP3      H2            -10.0246146705       -5.9970089113       17.8487641239  SOLV      4390            0.0000000000
     13291      4402  TIP3      OH2             5.6383405667       -2.4763449047       18.8010313869  SOLV      4391            0.0000000000
     13292      4402  TIP3      H1              6.3470168470       -3.1425133004       18.6560080732  SOLV      4391            0.0000000000
     13293      4402  TIP3      H2              5.8681343791       -1.7862576858       18.1585546632  SOLV      4391            0.0000000000
     13294      4403  TIP3      OH2             7.4454423881       -4.4911179420       18.8169472162  SOLV      4392            0.0000000000
     13295      4403  TIP3      H1              6.7003739750       -4.9694852785       19.2391965902  SOLV      4392            0.0000000000
     13296      4403  TIP3      H2              8.1776750773       -5.1143193522       19.0056460689  SOLV      4392            0.0000000000
     13297      4404  TIP3      OH2             2.1399404819      -12.1812497276        4.3031169726  SOLV      4393            0.0000000000
     13298      4404  TIP3      H1              2.8136342296      -12.4180123806        4.9734290679  SOLV      4393            0.0000000000
     13299      4404  TIP3      H2              1.3468090342      -12.6657894330        4.6122349483  SOLV      4393            0.0000000000
     13300      4405  TIP3      OH2             2.7486662370       -9.5300406809        9.1113392761  SOLV      4394            0.0000000000
     13301      4405  TIP3      H1              3.1695141223      -10.4125160318        9.2376126726  SOLV      4394            0.0000000000
     13302      4405  TIP3      H2              3.3268353544       -9.1648941540        8.4164053875  SOLV      4394            0.0000000000
     13303      4406  TIP3      OH2             4.3208514053       -7.8986381593       14.1116869560  SOLV      4395            0.0000000000
     13304      4406  TIP3      H1              5.1691811633       -7.6472288043       13.6793690012  SOLV      4395            0.0000000000
     13305      4406  TIP3      H2              4.4703635714       -7.4926808265       14.9864628624  SOLV      4395            0.0000000000
     13306      4407  TIP3      OH2             5.0614879453       -6.3853042877       16.3899742645  SOLV      4396            0.0000000000
     13307      4407  TIP3      H1              4.2850268378       -6.0482050645       16.8740933677  SOLV      4396            0.0000000000
     13308      4407  TIP3      H2              5.3796388539       -5.5712974924       15.9395560968  SOLV      4396            0.0000000000
     13309      4408  TIP3      OH2            -8.8097551843       -9.1612379969       24.4225693600  SOLV      4397            0.0000000000
     13310      4408  TIP3      H1             -7.8297509304       -9.1911275736       24.4704183207  SOLV      4397            0.0000000000
     13311      4408  TIP3      H2             -9.0201977221      -10.0408570047       24.7970450269  SOLV      4397            0.0000000000
     13312      4409  TIP3      OH2             9.6118634360      -10.4134239516       21.9449800457  SOLV      4398            0.0000000000
     13313      4409  TIP3      H1             10.1636521259      -11.0769095143       21.4882370010  SOLV      4398            0.0000000000
     13314      4409  TIP3      H2              9.2459382325       -9.9026264978       21.1867175048  SOLV      4398            0.0000000000
     13315      4410  TIP3      OH2             3.8297435667      -12.0526178240        9.4991940423  SOLV      4399            0.0000000000
     13316      4410  TIP3      H1              4.2860505227      -12.2298247525       10.3481174179  SOLV      4399            0.0000000000
     13317      4410  TIP3      H2              3.2023089066      -12.8042277840        9.4732847572  SOLV      4399            0.0000000000
     13318      4411  TIP3      OH2            -9.1817990419      -12.2007501290       17.7933791576  SOLV      4400            0.0000000000
     13319      4411  TIP3      H1             -8.5648901981      -12.9594613697       17.8273757836  SOLV      4400            0.0000000000
     13320      4411  TIP3      H2             -8.5612818304      -11.4656422674       17.6534682577  SOLV      4400            0.0000000000
     13321      4412  TIP3      OH2           -11.1944828206       -9.4723903894       18.4459076968  SOLV      4401            0.0000000000
     13322      4412  TIP3      H1            -10.7072724081       -9.5690686420       17.6032130081  SOLV      4401            0.0000000000
     13323      4412  TIP3      H2            -10.8994087524       -8.6017932624       18.7290003927  SOLV      4401            0.0000000000
     13324      4413  TIP3      OH2             8.2033331092       -9.1292137992       20.0227022026  SOLV      4402            0.0000000000
     13325      4413  TIP3      H1              7.3572184862       -8.6786116705       20.2188945035  SOLV      4402            0.0000000000
     13326      4413  TIP3      H2              7.8771105541       -9.8345002480       19.4313744349  SOLV      4402            0.0000000000
     13327      4414  TIP3      OH2             4.5055697528      -12.7175604353        5.8112395895  SOLV      4403            0.0000000000
     13328      4414  TIP3      H1              4.9776809532      -13.4199538282        5.3204247406  SOLV      4403            0.0000000000
     13329      4414  TIP3      H2              5.1646624532      -11.9952925615        5.8265503455  SOLV      4403            0.0000000000
     13330      4415  TIP3      OH2           -11.3227038047      -14.3985289936       13.5018360180  SOLV      4404            0.0000000000
     13331      4415  TIP3      H1            -12.2587588017      -14.4989638991       13.7435526403  SOLV      4404            0.0000000000
     13332      4415  TIP3      H2            -11.3827722536      -13.8449506964       12.6947635758  SOLV      4404            0.0000000000
     13333      4416  TIP3      OH2             0.2695875538        2.6399241435        8.5412078480  SOLV      4405            0.0000000000
     13334      4416  TIP3      H1              0.7544455707        2.4750862278        7.7031787627  SOLV      4405            0.0000000000
     13335      4416  TIP3      H2              0.8613872632        3.2637799672        8.9857745376  SOLV      4405            0.0000000000
     13336      4417  TIP3      OH2            -9.1192631038      -13.6219118643       21.6365359201  SOLV      4406            0.0000000000
     13337      4417  TIP3      H1             -9.6574882598      -13.6721172209       22.4409675447  SOLV      4406            0.0000000000
     13338      4417  TIP3      H2             -9.7699291369      -13.2670046286       20.9994187877  SOLV      4406            0.0000000000
     13339      4418  TIP3      OH2            -8.7400788146        0.6434098427       22.3404928776  SOLV      4407            0.0000000000
     13340      4418  TIP3      H1             -9.6702982570        0.3846005896       22.2015309941  SOLV      4407            0.0000000000
     13341      4418  TIP3      H2             -8.6344998622        0.5101776309       23.2885595697  SOLV      4407            0.0000000000
     13342      4419  TIP3      OH2            -6.8916189882        1.0458596505       17.9088389024  SOLV      4408            0.0000000000
     13343      4419  TIP3      H1             -7.3597710105        1.8082724788       17.5117691931  SOLV      4408            0.0000000000
     13344      4419  TIP3      H2             -6.0371792349        1.1272222461       17.4275299430  SOLV      4408            0.0000000000
     13345      4420  TIP3      OH2            -2.5565375369        3.3978059822       19.1999927405  SOLV      4409            0.0000000000
     13346      4420  TIP3      H1             -2.1262404026        3.4045017611       20.0817915969  SOLV      4409            0.0000000000
     13347      4420  TIP3      H2             -1.9061911731        3.9217014905       18.6820694297  SOLV      4409            0.0000000000
     13348      4421  TIP3      OH2            -0.7497492071        4.9543224417       17.8550083630  SOLV      4410            0.0000000000
     13349      4421  TIP3      H1             -0.0506464896        4.4687923929       17.3946535709  SOLV      4410            0.0000000000
     13350      4421  TIP3      H2             -0.2142766520        5.5287747704       18.4468018563  SOLV      4410            0.0000000000
     13351      4422  TIP3      OH2             7.2240358069      -11.4965372789       18.8052160837  SOLV      4411            0.0000000000
     13352      4422  TIP3      H1              6.3229254051      -11.5952248831       18.4488824537  SOLV      4411            0.0000000000
     13353      4422  TIP3      H2              7.5662133654      -12.4140218652       18.7026953157  SOLV      4411            0.0000000000
     13354      4423  TIP3      OH2            -7.9067008717        3.3394154157       16.7055106335  SOLV      4412            0.0000000000
     13355      4423  TIP3      H1             -8.6140473618        3.9815879619       16.9017670159  SOLV      4412            0.0000000000
     13356      4423  TIP3      H2             -7.8171697080        3.4444423772       15.7452998750  SOLV      4412            0.0000000000
     13357      4424  TIP3      OH2            -3.5505389114        3.5559734046       14.7056226216  SOLV      4413            0.0000000000
     13358      4424  TIP3      H1             -4.2576682685        3.7270437597       14.0520102457  SOLV      4413            0.0000000000
     13359      4424  TIP3      H2             -3.4219112096        4.4476865498       15.0921193263  SOLV      4413            0.0000000000
     13360      4425  TIP3      OH2            -0.8612316477        2.9668642763       15.2230864604  SOLV      4414            0.0000000000
     13361      4425  TIP3      H1             -1.8020750888        3.1281254468       15.0102847165  SOLV      4414            0.0000000000
     13362      4425  TIP3      H2             -0.4255469672        3.6698126746       14.7126132612  SOLV      4414            0.0000000000
     13363      4426  TIP3      OH2             1.1571138335        4.8785605280       14.2847058356  SOLV      4415            0.0000000000
     13364      4426  TIP3      H1              1.0275190694        5.7301669998       13.8142257060  SOLV      4415            0.0000000000
     13365      4426  TIP3      H2              1.4275903619        4.2881612746       13.5470093661  SOLV      4415            0.0000000000
     13366      4427  TIP3      OH2            -6.3048534347        1.3227936794       14.0449155415  SOLV      4416            0.0000000000
     13367      4427  TIP3      H1             -6.4685045788        0.3715367151       13.9219112834  SOLV      4416            0.0000000000
     13368      4427  TIP3      H2             -5.8883417925        1.3118900340       14.9244487463  SOLV      4416            0.0000000000
     13369      4428  TIP3      OH2            -0.6592476939      -12.3008250243       15.1118597418  SOLV      4417            0.0000000000
     13370      4428  TIP3      H1             -1.1133645766      -13.0332122706       15.5649943852  SOLV      4417            0.0000000000
     13371      4428  TIP3      H2              0.0239005590      -12.7647986547       14.5925050211  SOLV      4417            0.0000000000
     13372      4429  TIP3      OH2             4.4661881841      -13.4744210114       14.0538832741  SOLV      4418            0.0000000000
     13373      4429  TIP3      H1              4.8229942302      -12.9734003311       13.2868521150  SOLV      4418            0.0000000000
     13374      4429  TIP3      H2              3.5109499915      -13.2862332961       13.9846595313  SOLV      4418            0.0000000000
     13375      4430  TIP3      OH2             5.4478804994      -12.5583221525       11.6811580904  SOLV      4419            0.0000000000
     13376      4430  TIP3      H1              6.1881032042      -13.0775192678       11.3018003811  SOLV      4419            0.0000000000
     13377      4430  TIP3      H2              5.7976574928      -11.6462704842       11.5407379715  SOLV      4419            0.0000000000
     13378      4431  TIP3      OH2            -8.2446622162      -15.2533137831       15.1685374835  SOLV      4420            0.0000000000
     13379      4431  TIP3      H1             -9.1712363491      -15.5723367128       15.1806042277  SOLV      4420            0.0000000000
     13380      4431  TIP3      H2             -7.7664069447      -16.1093419138       15.1145816662  SOLV      4420            0.0000000000
     13381      4432  TIP3      OH2           -10.2442013919      -16.4948014767       11.6967726911  SOLV      4421            0.0000000000
     13382      4432  TIP3      H1            -10.0141384317      -15.9496931145       10.9227201224  SOLV      4421            0.0000000000
     13383      4432  TIP3      H2            -10.5680130302      -15.8268141359       12.3285181036  SOLV      4421            0.0000000000
     13384      4433  TIP3      OH2            -3.7305956967      -14.9338703936       13.9748678996  SOLV      4422            0.0000000000
     13385      4433  TIP3      H1             -3.1896484289      -14.4466379717       13.3332712182  SOLV      4422            0.0000000000
     13386      4433  TIP3      H2             -3.4706412054      -14.5247208106       14.8092799002  SOLV      4422            0.0000000000
     13387      4434  TIP3      OH2             1.6425260678      -13.4297317324       13.8056520825  SOLV      4423            0.0000000000
     13388      4434  TIP3      H1              1.6325178814      -13.8304599296       12.9296639761  SOLV      4423            0.0000000000
     13389      4434  TIP3      H2              1.5468667316      -14.2243347918       14.3860815608  SOLV      4423            0.0000000000
     13390      4435  TIP3      OH2             1.9919710575      -14.1646548508        9.4498873822  SOLV      4424            0.0000000000
     13391      4435  TIP3      H1              1.1480751693      -13.7116775893        9.6404890299  SOLV      4424            0.0000000000
     13392      4435  TIP3      H2              1.8291898631      -15.0343352581        9.8757330592  SOLV      4424            0.0000000000
     13393      4436  TIP3      OH2           -13.1973873423       -0.6743088101        9.3853305286  SOLV      4425            0.0000000000
     13394      4436  TIP3      H1            -14.0303142108       -1.0987218105        9.1149438719  SOLV      4425            0.0000000000
     13395      4436  TIP3      H2            -13.3565156207        0.2259185651        9.0431380123  SOLV      4425            0.0000000000
     13396      4437  TIP3      OH2            -9.1587267334      -14.9622928433        9.2896382484  SOLV      4426            0.0000000000
     13397      4437  TIP3      H1             -8.6836362417      -15.5753156438        8.6965667849  SOLV      4426            0.0000000000
     13398      4437  TIP3      H2             -8.4249393502      -14.4116929924        9.6308166450  SOLV      4426            0.0000000000
     13399      4438  TIP3      OH2            -4.1051527330      -13.1563618091       10.2609860219  SOLV      4427            0.0000000000
     13400      4438  TIP3      H1             -3.5018795855      -13.6156446833       10.8679535009  SOLV      4427            0.0000000000
     13401      4438  TIP3      H2             -3.9040499597      -12.2247999071       10.5023323990  SOLV      4427            0.0000000000
     13402      4439  TIP3      OH2            -5.5540468429        1.0954110797        5.4707478300  SOLV      4428            0.0000000000
     13403      4439  TIP3      H1             -4.6851320301        1.0795668817        5.0015973586  SOLV      4428            0.0000000000
     13404      4439  TIP3      H2             -6.1689141599        0.9219000395        4.7380438313  SOLV      4428            0.0000000000
     13405      4440  TIP3      OH2             1.7100003842        2.2115386083        6.2172551779  SOLV      4429            0.0000000000
     13406      4440  TIP3      H1              1.6789071783        1.2482293277        6.0188710543  SOLV      4429            0.0000000000
     13407      4440  TIP3      H2              1.3278198898        2.5638607812        5.3827201933  SOLV      4429            0.0000000000
     13408      4441  TIP3      OH2            -6.1738938396      -12.4243779297       24.1096078804  SOLV      4430            0.0000000000
     13409      4441  TIP3      H1             -6.5042885315      -13.1437383262       24.6789322079  SOLV      4430            0.0000000000
     13410      4441  TIP3      H2             -5.2251608632      -12.4257106626       24.3581786860  SOLV      4430            0.0000000000
     13411      4442  TIP3      OH2            -3.6235169756      -12.4349303328       25.2271762591  SOLV      4431            0.0000000000
     13412      4442  TIP3      H1             -2.7889834821      -12.7245878112       24.8205423497  SOLV      4431            0.0000000000
     13413      4442  TIP3      H2             -3.7498829587      -13.1296726775       25.9120361598  SOLV      4431            0.0000000000
     13414      4443  TIP3      OH2           -12.4809190355       -0.6068528162        5.8107292160  SOLV      4432            0.0000000000
     13415      4443  TIP3      H1            -12.3664458691       -0.6172001560        6.7695504760  SOLV      4432            0.0000000000
     13416      4443  TIP3      H2            -11.6528702288       -1.0571385029        5.5152575943  SOLV      4432            0.0000000000
     13417      4444  TIP3      OH2             4.6154371792      -11.7824289592       23.1308389814  SOLV      4433            0.0000000000
     13418      4444  TIP3      H1              4.7992371412      -12.0956965472       24.0434645243  SOLV      4433            0.0000000000
     13419      4444  TIP3      H2              5.5023117247      -11.8484602382       22.7196688187  SOLV      4433            0.0000000000
     13420      4445  TIP3      OH2             3.9394431380        3.6824294756       18.0684509479  SOLV      4434            0.0000000000
     13421      4445  TIP3      H1              3.1614957908        3.3927379529       17.5487371516  SOLV      4434            0.0000000000
     13422      4445  TIP3      H2              3.7638555170        4.6444288506       18.1211165464  SOLV      4434            0.0000000000
     13423      4446  TIP3      OH2            16.7100091100       -2.4994410321        5.6395874444  SOLV      4435            0.0000000000
     13424      4446  TIP3      H1             16.3319323247       -1.6332179307        5.3699133205  SOLV      4435            0.0000000000
     13425      4446  TIP3      H2             15.9717076051       -3.0809404525        5.3815649460  SOLV      4435            0.0000000000
     13426      4447  TIP3      OH2            16.3104765920       -2.5274545990        9.7147931309  SOLV      4436            0.0000000000
     13427      4447  TIP3      H1             16.9160080359       -2.8003296009       10.4182362262  SOLV      4436            0.0000000000
     13428      4447  TIP3      H2             16.0180527716       -3.3812494636        9.3549986341  SOLV      4436            0.0000000000
     13429      4448  TIP3      OH2             9.6087418617       -3.6630387867       13.1949957096  SOLV      4437            0.0000000000
     13430      4448  TIP3      H1              9.9324931843       -4.3370481484       13.8190836457  SOLV      4437            0.0000000000
     13431      4448  TIP3      H2             10.4011143265       -3.1240428713       13.0681351823  SOLV      4437            0.0000000000
     13432      4449  TIP3      OH2            19.1683714899        0.3950673300        6.3619666214  SOLV      4438            0.0000000000
     13433      4449  TIP3      H1             18.4191931781        0.0171785083        6.8291939558  SOLV      4438            0.0000000000
     13434      4449  TIP3      H2             19.4065759210        1.1702341539        6.8993399178  SOLV      4438            0.0000000000
     13435      4450  TIP3      OH2             9.3945153823        0.4960770973       10.4331344040  SOLV      4439            0.0000000000
     13436      4450  TIP3      H1              9.2936452887       -0.4795481011       10.4188674288  SOLV      4439            0.0000000000
     13437      4450  TIP3      H2             10.3556638975        0.5725655936       10.2861117558  SOLV      4439            0.0000000000
     13438      4451  TIP3      OH2             6.4275361119       -7.5275300421        8.2653449295  SOLV      4440            0.0000000000
     13439      4451  TIP3      H1              5.9541709571       -6.6930371584        8.4383019681  SOLV      4440            0.0000000000
     13440      4451  TIP3      H2              5.7316560357       -8.0085337138        7.7814958087  SOLV      4440            0.0000000000
     13441      4452  TIP3      OH2             6.9865184265       -4.6168924456       10.0791587753  SOLV      4441            0.0000000000
     13442      4452  TIP3      H1              7.5166202137       -5.3875617466       10.3770672895  SOLV      4441            0.0000000000
     13443      4452  TIP3      H2              7.5357192245       -4.2499915030        9.3735533955  SOLV      4441            0.0000000000
     13444      4453  TIP3      OH2            15.7268028958        5.3083422311        6.5654657496  SOLV      4442            0.0000000000
     13445      4453  TIP3      H1             16.0865759427        4.6521845927        5.9373208746  SOLV      4442            0.0000000000
     13446      4453  TIP3      H2             15.4552308859        4.7566037123        7.3004113058  SOLV      4442            0.0000000000
     13447      4454  TIP3      OH2            14.5753087766       -0.3103555512       10.0071172308  SOLV      4443            0.0000000000
     13448      4454  TIP3      H1             15.0015134498       -1.1298377089        9.6824200734  SOLV      4443            0.0000000000
     13449      4454  TIP3      H2             15.3835430581        0.1905382826       10.2345615839  SOLV      4443            0.0000000000
     13450      4455  TIP3      OH2            24.8932235932       -7.1758040542        9.8597761292  SOLV      4444            0.0000000000
     13451      4455  TIP3      H1             25.0174888893       -6.3992602683       10.4345327615  SOLV      4444            0.0000000000
     13452      4455  TIP3      H2             25.2821870425       -6.8821699783        9.0201677356  SOLV      4444            0.0000000000
     13453      4456  TIP3      OH2            19.6206932515       -5.1703893471        9.8671300400  SOLV      4445            0.0000000000
     13454      4456  TIP3      H1             19.4640989486       -6.0582446132       10.2752058962  SOLV      4445            0.0000000000
     13455      4456  TIP3      H2             18.8838892071       -5.1904245610        9.2138653191  SOLV      4445            0.0000000000
     13456      4457  TIP3      OH2            12.2028165434       -8.7211789979        9.9535308931  SOLV      4446            0.0000000000
     13457      4457  TIP3      H1             11.9742448688       -7.9940837969        9.3341449990  SOLV      4446            0.0000000000
     13458      4457  TIP3      H2             11.6925526813       -9.4523947921        9.5391761074  SOLV      4446            0.0000000000
     13459      4458  TIP3      OH2            19.1296463676       -7.7725462215        6.1939199047  SOLV      4447            0.0000000000
     13460      4458  TIP3      H1             19.8378206391       -7.8662878222        6.8687316313  SOLV      4447            0.0000000000
     13461      4458  TIP3      H2             19.6406505310       -7.4409146175        5.4369254602  SOLV      4447            0.0000000000
     13462      4459  TIP3      OH2             8.4699113858       -6.7070336138       11.0882385474  SOLV      4448            0.0000000000
     13463      4459  TIP3      H1              9.3120415791       -6.8941633182       11.5419287626  SOLV      4448            0.0000000000
     13464      4459  TIP3      H2              8.5955260735       -7.2374618545       10.2724101660  SOLV      4448            0.0000000000
     13465      4460  TIP3      OH2            12.8547907139       -4.7236545333        9.0578441342  SOLV      4449            0.0000000000
     13466      4460  TIP3      H1             13.7980848915       -4.9635910697        9.1445384850  SOLV      4449            0.0000000000
     13467      4460  TIP3      H2             12.4645854224       -5.5490673135        8.6967957289  SOLV      4449            0.0000000000
     13468      4461  TIP3      OH2            25.5136025186       -5.0373693237       11.6038014663  SOLV      4450            0.0000000000
     13469      4461  TIP3      H1             24.6213322654       -4.6962568126       11.4439597878  SOLV      4450            0.0000000000
     13470      4461  TIP3      H2             25.3425136646       -5.4072266274       12.4912030623  SOLV      4450            0.0000000000
     13471      4462  TIP3      OH2            12.0927130916       -8.8645054526       14.3528297873  SOLV      4451            0.0000000000
     13472      4462  TIP3      H1             11.5303685519       -8.5030338103       13.6402276785  SOLV      4451            0.0000000000
     13473      4462  TIP3      H2             11.5280129094       -8.6717350349       15.1305489056  SOLV      4451            0.0000000000
     13474      4463  TIP3      OH2            15.5661354540       -0.3671725329        4.3612822339  SOLV      4452            0.0000000000
     13475      4463  TIP3      H1             15.0896634765       -0.5650678899        3.5419130378  SOLV      4452            0.0000000000
     13476      4463  TIP3      H2             15.1150505479        0.4632629060        4.6307489860  SOLV      4452            0.0000000000
     13477      4464  TIP3      OH2            13.1565870660       -1.1121831835       12.2369245764  SOLV      4453            0.0000000000
     13478      4464  TIP3      H1             12.5504184271       -0.4178109092       12.5815889334  SOLV      4453            0.0000000000
     13479      4464  TIP3      H2             13.5767386410       -0.6498624203       11.4826283668  SOLV      4453            0.0000000000
     13480      4465  TIP3      OH2            21.1362360695       -7.6366986539        8.1035834698  SOLV      4454            0.0000000000
     13481      4465  TIP3      H1             20.7614870097       -8.0633681570        8.8940811301  SOLV      4454            0.0000000000
     13482      4465  TIP3      H2             22.0726812849       -7.8521582165        8.1592628702  SOLV      4454            0.0000000000
     13483      4466  TIP3      OH2            10.8534044300       -7.7392490067       12.1493698411  SOLV      4455            0.0000000000
     13484      4466  TIP3      H1             11.4560911264       -6.9948721012       12.3695015903  SOLV      4455            0.0000000000
     13485      4466  TIP3      H2             11.3416117069       -8.1342033208       11.3908811249  SOLV      4455            0.0000000000
     13486      4467  TIP3      OH2            11.4831393508        0.8661703770       13.2422187471  SOLV      4456            0.0000000000
     13487      4467  TIP3      H1             11.2195581118        1.7313052631       12.8666884597  SOLV      4456            0.0000000000
     13488      4467  TIP3      H2             10.6868974561        0.6869567086       13.7877138055  SOLV      4456            0.0000000000
     13489      4468  TIP3      OH2             5.3362844572       -2.2905996138        5.7883824909  SOLV      4457            0.0000000000
     13490      4468  TIP3      H1              5.0240237398       -2.1992347899        4.8582193571  SOLV      4457            0.0000000000
     13491      4468  TIP3      H2              5.6703343028       -1.3914437850        5.9726276926  SOLV      4457            0.0000000000
     13492      4469  TIP3      OH2            19.7838681747        2.8513730770        8.0399933181  SOLV      4458            0.0000000000
     13493      4469  TIP3      H1             18.8959778860        2.7698589348        8.4645674525  SOLV      4458            0.0000000000
     13494      4469  TIP3      H2             19.6851232157        3.7076620442        7.5908447513  SOLV      4458            0.0000000000
     13495      4470  TIP3      OH2            15.6181823379      -11.7345137495       11.5028725126  SOLV      4459            0.0000000000
     13496      4470  TIP3      H1             15.4571076757      -12.6818850346       11.6753418013  SOLV      4459            0.0000000000
     13497      4470  TIP3      H2             14.8470477692      -11.3383082692       11.9652427177  SOLV      4459            0.0000000000
     13498      4471  TIP3      OH2            16.8351321266        3.4853007538        4.7308718097  SOLV      4460            0.0000000000
     13499      4471  TIP3      H1             17.3025612223        2.6425324826        4.5184005917  SOLV      4460            0.0000000000
     13500      4471  TIP3      H2             17.4839749444        4.1326409212        4.3874741358  SOLV      4460            0.0000000000
     13501      4472  TIP3      OH2            18.1858268479        1.2416140545        3.8899655628  SOLV      4461            0.0000000000
     13502      4472  TIP3      H1             17.7702743543        0.4657433528        3.4868623777  SOLV      4461            0.0000000000
     13503      4472  TIP3      H2             18.6536491132        0.8423529438        4.6502434367  SOLV      4461            0.0000000000
     13504      4473  TIP3      OH2            22.0555008306        2.0041502842       11.4260575771  SOLV      4462            0.0000000000
     13505      4473  TIP3      H1             22.0249199331        1.2463722597       10.8097653609  SOLV      4462            0.0000000000
     13506      4473  TIP3      H2             21.8773078427        2.7632138883       10.8310498515  SOLV      4462            0.0000000000
     13507      4474  TIP3      OH2            15.0031646728       -4.0608018214        4.0915771825  SOLV      4463            0.0000000000
     13508      4474  TIP3      H1             14.1686897105       -3.5530205390        3.9765721584  SOLV      4463            0.0000000000
     13509      4474  TIP3      H2             15.3460140699       -4.0579255885        3.1836391405  SOLV      4463            0.0000000000
     13510      4475  TIP3      OH2            14.5255093950       -6.1557506716        1.1209006862  SOLV      4464            0.0000000000
     13511      4475  TIP3      H1             15.1894439618       -5.6582569121        1.6296246671  SOLV      4464            0.0000000000
     13512      4475  TIP3      H2             15.0999244283       -6.7968915177        0.6602011684  SOLV      4464            0.0000000000
     13513      4476  TIP3      OH2            24.0939618956       -1.5032995225        9.9385438707  SOLV      4465            0.0000000000
     13514      4476  TIP3      H1             23.2210491859       -1.0599023814        9.9305661605  SOLV      4465            0.0000000000
     13515      4476  TIP3      H2             24.3930864377       -1.3121486160        9.0225188403  SOLV      4465            0.0000000000
     13516      4477  TIP3      OH2            18.4397423562       -3.2064029696        3.6653480793  SOLV      4466            0.0000000000
     13517      4477  TIP3      H1             17.8729742146       -2.9428882214        4.4301240468  SOLV      4466            0.0000000000
     13518      4477  TIP3      H2             19.2669179884       -3.4443807784        4.1237203913  SOLV      4466            0.0000000000
     13519      4478  TIP3      OH2            20.8159462497       -2.7176940441       12.8995022090  SOLV      4467            0.0000000000
     13520      4478  TIP3      H1             20.7829036756       -1.9305230062       13.4751278351  SOLV      4467            0.0000000000
     13521      4478  TIP3      H2             19.8829243616       -2.7915838750       12.6336483630  SOLV      4467            0.0000000000
     13522      4479  TIP3      OH2            10.7313747308       -3.2759474203        7.9299828859  SOLV      4468            0.0000000000
     13523      4479  TIP3      H1             10.3047492159       -3.8565504174        7.2592918594  SOLV      4468            0.0000000000
     13524      4479  TIP3      H2             11.5035798822       -3.8112952817        8.2002953738  SOLV      4468            0.0000000000
     13525      4480  TIP3      OH2            12.0084262789        0.8739500632        9.3403300304  SOLV      4469            0.0000000000
     13526      4480  TIP3      H1             11.7747762045        0.5685769018        8.4471595766  SOLV      4469            0.0000000000
     13527      4480  TIP3      H2             12.8856043539        0.4640763612        9.4827215524  SOLV      4469            0.0000000000
     13528      4481  TIP3      OH2            12.1062814411       -3.5571906354       11.4828360254  SOLV      4470            0.0000000000
     13529      4481  TIP3      H1             12.4082677054       -3.7969780595       10.5805478451  SOLV      4470            0.0000000000
     13530      4481  TIP3      H2             12.5239918989       -2.6811607775       11.6215514344  SOLV      4470            0.0000000000
     13531      4482  TIP3      OH2            17.4214943740        2.8142351163        9.2739168272  SOLV      4471            0.0000000000
     13532      4482  TIP3      H1             17.2107690618        3.6332261114        9.7582241287  SOLV      4471            0.0000000000
     13533      4482  TIP3      H2             17.2150391214        2.1122850856        9.9237894586  SOLV      4471            0.0000000000
     13534      4483  TIP3      OH2            13.5100256706        2.0001389376       14.7106762490  SOLV      4472            0.0000000000
     13535      4483  TIP3      H1             12.8985282948        2.6193066996       15.1663209018  SOLV      4472            0.0000000000
     13536      4483  TIP3      H2             12.8603901149        1.4805855945       14.1908187627  SOLV      4472            0.0000000000
     13537      4484  TIP3      OH2            16.8274961470       -4.6931788530        1.9855915464  SOLV      4473            0.0000000000
     13538      4484  TIP3      H1             17.3940994407       -4.0586978573        2.4803533799  SOLV      4473            0.0000000000
     13539      4484  TIP3      H2             17.0746041749       -4.4731888006        1.0553823063  SOLV      4473            0.0000000000
     13540      4485  TIP3      OH2            11.0682274792       -2.4964231644       15.8280443049  SOLV      4474            0.0000000000
     13541      4485  TIP3      H1             11.1150148236       -1.5841462517       16.1801660331  SOLV      4474            0.0000000000
     13542      4485  TIP3      H2             10.1035620810       -2.6546792559       15.8990134659  SOLV      4474            0.0000000000
     13543      4486  TIP3      OH2            14.3691445140        2.0954654280        4.6913704807  SOLV      4475            0.0000000000
     13544      4486  TIP3      H1             15.0706947471        2.7474216770        4.8478672262  SOLV      4475            0.0000000000
     13545      4486  TIP3      H2             13.6309853001        2.6333565675        4.3741591645  SOLV      4475            0.0000000000
     13546      4487  TIP3      OH2            11.4448575646        3.6350907849       15.5767610344  SOLV      4476            0.0000000000
     13547      4487  TIP3      H1             11.0982810953        3.6800475329       14.6670838740  SOLV      4476            0.0000000000
     13548      4487  TIP3      H2             10.6326468414        3.4375141069       16.0980453843  SOLV      4476            0.0000000000
     13549      4488  TIP3      OH2            21.9833124173      -12.2785220039        2.5211931485  SOLV      4477            0.0000000000
     13550      4488  TIP3      H1             21.1662407966      -12.0502429195        3.0106611887  SOLV      4477            0.0000000000
     13551      4488  TIP3      H2             22.1206858407      -11.4644489266        1.9924463490  SOLV      4477            0.0000000000
     13552      4489  TIP3      OH2             9.3966068659       -4.8768748128        6.0701403213  SOLV      4478            0.0000000000
     13553      4489  TIP3      H1              8.7373911245       -4.3608206479        5.5490217517  SOLV      4478            0.0000000000
     13554      4489  TIP3      H2              8.9854707726       -5.7452010176        6.0444604777  SOLV      4478            0.0000000000
     13555      4490  TIP3      OH2            19.9908116166        1.4254750241       -1.9819815414  SOLV      4479            0.0000000000
     13556      4490  TIP3      H1             20.0467026917        2.3878798919       -2.1710269324  SOLV      4479            0.0000000000
     13557      4490  TIP3      H2             20.9195255063        1.1475971953       -2.1259105213  SOLV      4479            0.0000000000
     13558      4491  TIP3      OH2             7.2134478062       -0.9788124316       15.0469310778  SOLV      4480            0.0000000000
     13559      4491  TIP3      H1              6.5353597968       -1.1533699273       14.3594081895  SOLV      4480            0.0000000000
     13560      4491  TIP3      H2              7.5905604895       -1.8650582638       15.2060771108  SOLV      4480            0.0000000000
     13561      4492  TIP3      OH2             5.7841146566        0.9012284578       11.4125620167  SOLV      4481            0.0000000000
     13562      4492  TIP3      H1              6.7377937917        0.8984089335       11.2538040720  SOLV      4481            0.0000000000
     13563      4492  TIP3      H2              5.6707676500        1.7210087081       11.9168738654  SOLV      4481            0.0000000000
     13564      4493  TIP3      OH2            24.4274717934        5.4970994772       11.9583687525  SOLV      4482            0.0000000000
     13565      4493  TIP3      H1             24.4215247011        4.5376519105       12.1370616258  SOLV      4482            0.0000000000
     13566      4493  TIP3      H2             23.5868017231        5.7557396153       12.4021690080  SOLV      4482            0.0000000000
     13567      4494  TIP3      OH2            15.4687836372        3.3048155388       13.2817539012  SOLV      4483            0.0000000000
     13568      4494  TIP3      H1             15.4196325867        4.2366360817       13.5904410543  SOLV      4483            0.0000000000
     13569      4494  TIP3      H2             14.7484645828        2.8997334154       13.8153394801  SOLV      4483            0.0000000000
     13570      4495  TIP3      OH2            13.1364708243        4.6078536974        2.7975073863  SOLV      4484            0.0000000000
     13571      4495  TIP3      H1             12.6614735343        4.4662741682        1.9519049557  SOLV      4484            0.0000000000
     13572      4495  TIP3      H2             12.7823668582        5.4631443977        3.0914846040  SOLV      4484            0.0000000000
     13573      4496  TIP3      OH2             7.4059741495        3.0958246876        6.6627771287  SOLV      4485            0.0000000000
     13574      4496  TIP3      H1              7.8880513279        2.9589033454        7.5060326596  SOLV      4485            0.0000000000
     13575      4496  TIP3      H2              6.9345033476        2.2498923954        6.5732877896  SOLV      4485            0.0000000000
     13576      4497  TIP3      OH2            15.0218557268        3.5394453733       -0.7908817631  SOLV      4486            0.0000000000
     13577      4497  TIP3      H1             15.6182515337        2.8802588029       -1.2145073488  SOLV      4486            0.0000000000
     13578      4497  TIP3      H2             15.4557959549        3.6683244010        0.0755750300  SOLV      4486            0.0000000000
     13579      4498  TIP3      OH2            15.6523380873        4.0821512275        1.9264337960  SOLV      4487            0.0000000000
     13580      4498  TIP3      H1             14.7515162211        4.2521693836        2.2837232153  SOLV      4487            0.0000000000
     13581      4498  TIP3      H2             16.0483736337        3.5987042542        2.6671673297  SOLV      4487            0.0000000000
     13582      4499  TIP3      OH2            23.1684326992       -3.3325576923       14.5365075457  SOLV      4488            0.0000000000
     13583      4499  TIP3      H1             22.2759406100       -3.2146921385       14.1767466480  SOLV      4488            0.0000000000
     13584      4499  TIP3      H2             23.2754774677       -4.3025987265       14.4086065533  SOLV      4488            0.0000000000
     13585      4500  TIP3      OH2             9.2850111016        0.8270303725       14.8596890171  SOLV      4489            0.0000000000
     13586      4500  TIP3      H1              9.7524097417        0.6832443173       15.7051996054  SOLV      4489            0.0000000000
     13587      4500  TIP3      H2              8.5236548242        0.2160499125       14.9424292820  SOLV      4489            0.0000000000
     13588      4501  TIP3      OH2            13.2566773874      -10.9372346749       12.8164823998  SOLV      4490            0.0000000000
     13589      4501  TIP3      H1             12.3747946243      -11.2415966181       12.5130220218  SOLV      4490            0.0000000000
     13590      4501  TIP3      H2             12.9873024174      -10.1244151113       13.2864302311  SOLV      4490            0.0000000000
     13591      4502  TIP3      OH2            18.5459509920       -9.8227363256       14.7621615747  SOLV      4491            0.0000000000
     13592      4502  TIP3      H1             19.2738978889      -10.0633437419       15.3688542564  SOLV      4491            0.0000000000
     13593      4502  TIP3      H2             17.7449117387      -10.0219198364       15.2929779602  SOLV      4491            0.0000000000
     13594      4503  TIP3      OH2            17.5904692243       -4.2768556713       -0.5710661415  SOLV      4492            0.0000000000
     13595      4503  TIP3      H1             17.2545374065       -4.4768553160       -1.4660668674  SOLV      4492            0.0000000000
     13596      4503  TIP3      H2             18.4209225262       -3.8107694391       -0.7911792607  SOLV      4492            0.0000000000
     13597      4504  TIP3      OH2            14.7228637919      -10.4870975331        2.4878454369  SOLV      4493            0.0000000000
     13598      4504  TIP3      H1             14.3628577508      -10.4796027045        3.3963760366  SOLV      4493            0.0000000000
     13599      4504  TIP3      H2             14.2928551964      -11.2965137343        2.1496871784  SOLV      4493            0.0000000000
     13600      4505  TIP3      OH2            12.6125834600       -5.7732907421       12.9651222770  SOLV      4494            0.0000000000
     13601      4505  TIP3      H1             12.0818961127       -5.5898873966       13.7691422786  SOLV      4494            0.0000000000
     13602      4505  TIP3      H2             12.4387991671       -4.9583916763       12.4386226124  SOLV      4494            0.0000000000
     13603      4506  TIP3      OH2            11.4417342402       -6.9081436039        8.1041105957  SOLV      4495            0.0000000000
     13604      4506  TIP3      H1             10.4993298066       -7.1190870531        8.2729809544  SOLV      4495            0.0000000000
     13605      4506  TIP3      H2             11.5422796774       -7.3004985456        7.2071809565  SOLV      4495            0.0000000000
     13606      4507  TIP3      OH2            16.3280290391       -6.0531206412        5.4090841655  SOLV      4496            0.0000000000
     13607      4507  TIP3      H1             15.8095332026       -5.3432057098        4.9638267313  SOLV      4496            0.0000000000
     13608      4507  TIP3      H2             16.8611395149       -6.3950709820        4.6653885985  SOLV      4496            0.0000000000
     13609      4508  TIP3      OH2            18.0517586449       -3.3484525211       16.2034017567  SOLV      4497            0.0000000000
     13610      4508  TIP3      H1             17.8460212603       -4.0645298721       16.8395348433  SOLV      4497            0.0000000000
     13611      4508  TIP3      H2             18.9897700728       -3.1844410587       16.4129953604  SOLV      4497            0.0000000000
     13612      4509  TIP3      OH2            17.7401934127       -5.8736621039        7.8296053042  SOLV      4498            0.0000000000
     13613      4509  TIP3      H1             17.1469802778       -5.6114424696        7.0936104690  SOLV      4498            0.0000000000
     13614      4509  TIP3      H2             18.1666912073       -6.6344709365        7.3919591274  SOLV      4498            0.0000000000
     13615      4510  TIP3      OH2            10.8061173239       -5.4767851313       15.0308364541  SOLV      4499            0.0000000000
     13616      4510  TIP3      H1             10.9931184286       -4.8024890374       15.7016868770  SOLV      4499            0.0000000000
     13617      4510  TIP3      H2             10.6456365002       -6.2744959724       15.5694330094  SOLV      4499            0.0000000000
     13618      4511  TIP3      OH2            11.2980572918      -10.6916582996        2.1566785469  SOLV      4500            0.0000000000
     13619      4511  TIP3      H1             11.1806679880      -10.6955541398        3.1279973558  SOLV      4500            0.0000000000
     13620      4511  TIP3      H2             10.5206400509      -10.1620668263        1.8906938945  SOLV      4500            0.0000000000
     13621      4512  TIP3      OH2             6.7188711562      -10.3284806535       10.8938660708  SOLV      4501            0.0000000000
     13622      4512  TIP3      H1              7.4437651559       -9.9563018186       11.4363165620  SOLV      4501            0.0000000000
     13623      4512  TIP3      H2              7.1445705152      -10.5160614179       10.0492058361  SOLV      4501            0.0000000000
     13624      4513  TIP3      OH2             6.2889883418      -10.4792334887        6.0244210018  SOLV      4502            0.0000000000
     13625      4513  TIP3      H1              6.7146367913      -10.0941312705        5.2244419181  SOLV      4502            0.0000000000
     13626      4513  TIP3      H2              5.7228584999       -9.7223206604        6.2694901453  SOLV      4502            0.0000000000
     13627      4514  TIP3      OH2            18.1016959185       -3.4062259512       11.8574359870  SOLV      4503            0.0000000000
     13628      4514  TIP3      H1             18.5381774968       -4.1024835485       11.3500928747  SOLV      4503            0.0000000000
     13629      4514  TIP3      H2             17.7728310412       -3.9105486542       12.6349387935  SOLV      4503            0.0000000000
     13630      4515  TIP3      OH2            14.7735815853       -8.7545091408        8.6920556965  SOLV      4504            0.0000000000
     13631      4515  TIP3      H1             13.9459707380       -8.7322411482        9.2155029894  SOLV      4504            0.0000000000
     13632      4515  TIP3      H2             15.4513349414       -8.7865318863        9.3869914334  SOLV      4504            0.0000000000
     13633      4516  TIP3      OH2             9.0405212187       -8.1041857772        8.7848604654  SOLV      4505            0.0000000000
     13634      4516  TIP3      H1              8.1016464192       -8.0178867793        8.4900653100  SOLV      4505            0.0000000000
     13635      4516  TIP3      H2              9.2735390997       -9.0104629506        8.5154128412  SOLV      4505            0.0000000000
     13636      4517  TIP3      OH2            11.6899307767       -8.1909677022        5.7057093411  SOLV      4506            0.0000000000
     13637      4517  TIP3      H1             12.6055301217       -7.9759076927        5.4529402191  SOLV      4506            0.0000000000
     13638      4517  TIP3      H2             11.1795076674       -7.9567089214        4.8949240994  SOLV      4506            0.0000000000
     13639      4518  TIP3      OH2            19.2743506574       -7.7731748084       10.6059290261  SOLV      4507            0.0000000000
     13640      4518  TIP3      H1             19.2446523643       -7.7639217404       11.5892910640  SOLV      4507            0.0000000000
     13641      4518  TIP3      H2             18.5874361265       -8.4391506981       10.4057467961  SOLV      4507            0.0000000000
     13642      4519  TIP3      OH2            10.1996122101       -7.9289622992        3.4588335550  SOLV      4508            0.0000000000
     13643      4519  TIP3      H1              9.4614135690       -8.2885032411        2.9378128477  SOLV      4508            0.0000000000
     13644      4519  TIP3      H2             10.7240101539       -7.4943453482        2.7511191966  SOLV      4508            0.0000000000
     13645      4520  TIP3      OH2            21.3730005487        8.9452078694       12.9641303595  SOLV      4509            0.0000000000
     13646      4520  TIP3      H1             21.3361297311        9.2402049708       12.0386240844  SOLV      4509            0.0000000000
     13647      4520  TIP3      H2             22.1773948231        9.4049189689       13.2776188686  SOLV      4509            0.0000000000
     13648      4521  TIP3      OH2            10.8994230871        0.0267947595       17.1260007740  SOLV      4510            0.0000000000
     13649      4521  TIP3      H1             11.6874474717        0.3503027851       17.6049949813  SOLV      4510            0.0000000000
     13650      4521  TIP3      H2             10.2358622389        0.0574030900       17.8432882953  SOLV      4510            0.0000000000
     13651      4522  TIP3      OH2            15.5540103181       -5.3964092426        9.6861943830  SOLV      4511            0.0000000000
     13652      4522  TIP3      H1             16.2527751135       -5.8180583396        9.1552514855  SOLV      4511            0.0000000000
     13653      4522  TIP3      H2             15.5689302755       -5.9019871131       10.5182253497  SOLV      4511            0.0000000000
     13654      4523  TIP3      OH2            10.6918407783      -10.5486651087        8.5358238040  SOLV      4512            0.0000000000
     13655      4523  TIP3      H1             10.3384487878      -11.3295425951        9.0151362908  SOLV      4512            0.0000000000
     13656      4523  TIP3      H2             11.0579721774      -10.9523140089        7.7398258492  SOLV      4512            0.0000000000
     13657      4524  TIP3      OH2            15.2995623631       -6.3988069595       12.5758045132  SOLV      4513            0.0000000000
     13658      4524  TIP3      H1             14.3926316440       -6.0554136765       12.7195574118  SOLV      4513            0.0000000000
     13659      4524  TIP3      H2             15.8554033969       -5.7807653205       13.0883034016  SOLV      4513            0.0000000000
     13660      4525  TIP3      OH2            12.8113434400       -2.4912604955        3.6075051940  SOLV      4514            0.0000000000
     13661      4525  TIP3      H1             12.1169890874       -3.1844565977        3.4880295768  SOLV      4514            0.0000000000
     13662      4525  TIP3      H2             12.5251153636       -2.1199659570        4.4758549438  SOLV      4514            0.0000000000
     13663      4526  TIP3      OH2            21.6672779138       -0.1506245883        9.6958607104  SOLV      4515            0.0000000000
     13664      4526  TIP3      H1             21.9918713192        0.3432297727        8.9069709968  SOLV      4515            0.0000000000
     13665      4526  TIP3      H2             20.7099897138       -0.0515923934        9.6195360283  SOLV      4515            0.0000000000
     13666      4527  TIP3      OH2            17.2202532627       -9.4608314540        2.2414270085  SOLV      4516            0.0000000000
     13667      4527  TIP3      H1             16.2556283221       -9.6610268824        2.3066848248  SOLV      4516            0.0000000000
     13668      4527  TIP3      H2             17.2686893245       -8.5092346557        2.4600615785  SOLV      4516            0.0000000000
     13669      4528  TIP3      OH2            16.6340295310        0.6962748502       13.5440632073  SOLV      4517            0.0000000000
     13670      4528  TIP3      H1             16.9282865298        0.5266982096       14.4472483048  SOLV      4517            0.0000000000
     13671      4528  TIP3      H2             16.2287572539        1.5794898840       13.6132814034  SOLV      4517            0.0000000000
     13672      4529  TIP3      OH2            17.8927057623       -6.9308194105        3.2277816899  SOLV      4518            0.0000000000
     13673      4529  TIP3      H1             18.8575904433       -6.8310822701        3.3184060788  SOLV      4518            0.0000000000
     13674      4529  TIP3      H2             17.6454865008       -6.1461613483        2.6955025889  SOLV      4518            0.0000000000
     13675      4530  TIP3      OH2             9.6024748602       -2.2719515859       10.2607031456  SOLV      4519            0.0000000000
     13676      4530  TIP3      H1              9.9569838917       -2.5481240073        9.3895529802  SOLV      4519            0.0000000000
     13677      4530  TIP3      H2             10.0307312634       -2.9025803963       10.8554105217  SOLV      4519            0.0000000000
     13678      4531  TIP3      OH2            14.0656750066       -0.9444831916        1.7443396442  SOLV      4520            0.0000000000
     13679      4531  TIP3      H1             13.5123007574       -0.1317132149        1.7619650136  SOLV      4520            0.0000000000
     13680      4531  TIP3      H2             13.5557751633       -1.5290316215        2.3502078057  SOLV      4520            0.0000000000
     13681      4532  TIP3      OH2             8.4239984849       -3.1568263229       16.4054531040  SOLV      4521            0.0000000000
     13682      4532  TIP3      H1              8.5383785756       -3.2931708582       17.3650457031  SOLV      4521            0.0000000000
     13683      4532  TIP3      H2              7.6852501886       -3.7603688562       16.2104904751  SOLV      4521            0.0000000000
     13684      4533  TIP3      OH2            15.6737716380       -1.9240430184       16.6226581973  SOLV      4522            0.0000000000
     13685      4533  TIP3      H1             15.0472178607       -2.4940574299       16.1507565627  SOLV      4522            0.0000000000
     13686      4533  TIP3      H2             16.5309978270       -2.2929953452       16.3251451439  SOLV      4522            0.0000000000
     13687      4534  TIP3      OH2            18.2258511128        3.2698526463       12.4550143864  SOLV      4523            0.0000000000
     13688      4534  TIP3      H1             17.2640071393        3.2514081578       12.6061157648  SOLV      4523            0.0000000000
     13689      4534  TIP3      H2             18.5187168142        3.7710178016       13.2482199866  SOLV      4523            0.0000000000
     13690      4535  TIP3      OH2            22.2708525336       -5.9863365480        1.5517452874  SOLV      4524            0.0000000000
     13691      4535  TIP3      H1             21.6730560742       -6.4333482432        0.9049374904  SOLV      4524            0.0000000000
     13692      4535  TIP3      H2             22.2436033679       -5.0913834780        1.1434102740  SOLV      4524            0.0000000000
     13693      4536  TIP3      OH2            24.5365864530        2.5927271906       12.3595428441  SOLV      4525            0.0000000000
     13694      4536  TIP3      H1             23.5584981489        2.5179220071       12.2947387287  SOLV      4525            0.0000000000
     13695      4536  TIP3      H2             24.7881949252        2.2875864824       11.4592114210  SOLV      4525            0.0000000000
     13696      4537  TIP3      OH2            19.4112276196        2.1423238273        0.6632238542  SOLV      4526            0.0000000000
     13697      4537  TIP3      H1             19.0554518405        1.4254693442        1.2032306406  SOLV      4526            0.0000000000
     13698      4537  TIP3      H2             19.5104394233        1.7273469045       -0.2149352109  SOLV      4526            0.0000000000
     13699      4538  TIP3      OH2            10.6245352341        0.7261636060        6.6872125106  SOLV      4527            0.0000000000
     13700      4538  TIP3      H1             10.5782076683        1.5752038768        6.1896872758  SOLV      4527            0.0000000000
     13701      4538  TIP3      H2              9.7079634978        0.4377119853        6.6090711023  SOLV      4527            0.0000000000
     13702      4539  TIP3      OH2             6.2242498114       -6.3042853255        3.5395037660  SOLV      4528            0.0000000000
     13703      4539  TIP3      H1              6.6318638825       -5.4297223562        3.3960008874  SOLV      4528            0.0000000000
     13704      4539  TIP3      H2              5.5175939317       -6.0915349328        4.1774818679  SOLV      4528            0.0000000000
     13705      4540  TIP3      OH2            11.9781084472       -1.5923325329        6.0377182318  SOLV      4529            0.0000000000
     13706      4540  TIP3      H1             11.5985044944       -0.7062683986        6.1985738465  SOLV      4529            0.0000000000
     13707      4540  TIP3      H2             11.5351806745       -2.1184013266        6.7271404212  SOLV      4529            0.0000000000
     13708      4541  TIP3      OH2            13.3108313344        4.1408920366       11.2315501734  SOLV      4530            0.0000000000
     13709      4541  TIP3      H1             13.7043847357        4.8805044052       10.7255685889  SOLV      4530            0.0000000000
     13710      4541  TIP3      H2             14.0857156577        3.8001198511       11.7045955496  SOLV      4530            0.0000000000
     13711      4542  TIP3      OH2             9.9655338719        3.1074954258        5.4564231913  SOLV      4531            0.0000000000
     13712      4542  TIP3      H1              9.0037015866        3.1828765664        5.5933087122  SOLV      4531            0.0000000000
     13713      4542  TIP3      H2             10.1848366220        4.0097775251        5.1557493934  SOLV      4531            0.0000000000
     13714      4543  TIP3      OH2            17.1036166036        0.5312477311       10.8765808190  SOLV      4532            0.0000000000
     13715      4543  TIP3      H1             16.9488480453        0.6145857169       11.8454953070  SOLV      4532            0.0000000000
     13716      4543  TIP3      H2             17.6786095389       -0.2410768881       10.8578336487  SOLV      4532            0.0000000000
     13717      4544  TIP3      OH2            16.9259430947       -0.5422429716       -0.3616751337  SOLV      4533            0.0000000000
     13718      4544  TIP3      H1             17.4369396112       -0.7739523688        0.4466019501  SOLV      4533            0.0000000000
     13719      4544  TIP3      H2             16.0319296187       -0.8107394973       -0.0981274324  SOLV      4533            0.0000000000
     13720      4545  TIP3      OH2            19.6377964957        5.7963243553       11.3088375616  SOLV      4534            0.0000000000
     13721      4545  TIP3      H1             18.8442813055        5.2267911965       11.2825924626  SOLV      4534            0.0000000000
     13722      4545  TIP3      H2             19.4344461056        6.4509173018       10.6104008867  SOLV      4534            0.0000000000
     13723      4546  TIP3      OH2            20.2644780153        4.1835378214       -2.2167969407  SOLV      4535            0.0000000000
     13724      4546  TIP3      H1             20.4763732021        4.8424297437       -2.8990370631  SOLV      4535            0.0000000000
     13725      4546  TIP3      H2             19.4803749683        4.6225514106       -1.8208919391  SOLV      4535            0.0000000000
     13726      4547  TIP3      OH2            10.3989026342       -8.0452215291       16.4358217558  SOLV      4536            0.0000000000
     13727      4547  TIP3      H1              9.4271521308       -7.9552984955       16.5108545191  SOLV      4536            0.0000000000
     13728      4547  TIP3      H2             10.5921336697       -8.6392863134       17.1751160894  SOLV      4536            0.0000000000
     13729      4548  TIP3      OH2            18.5478154248       -1.1633514991        1.7881471817  SOLV      4537            0.0000000000
     13730      4548  TIP3      H1             18.4324272108       -1.8542092112        2.4706293785  SOLV      4537            0.0000000000
     13731      4548  TIP3      H2             19.5169243011       -1.2103320363        1.6562774994  SOLV      4537            0.0000000000
     13732      4549  TIP3      OH2             7.6686548556        2.8035744121       12.7916679146  SOLV      4538            0.0000000000
     13733      4549  TIP3      H1              8.2113920901        2.0798950999       13.1417725570  SOLV      4538            0.0000000000
     13734      4549  TIP3      H2              7.9449337199        3.5395294164       13.3513390433  SOLV      4538            0.0000000000
     13735      4550  TIP3      OH2             9.8483346469       -0.5458301407        2.1519867230  SOLV      4539            0.0000000000
     13736      4550  TIP3      H1             10.6458765839       -0.4039894893        2.6659280025  SOLV      4539            0.0000000000
     13737      4550  TIP3      H2              9.7141960061        0.3110027312        1.6891485484  SOLV      4539            0.0000000000
     13738      4551  TIP3      OH2             7.3834017340       -3.8185784495        4.6213658614  SOLV      4540            0.0000000000
     13739      4551  TIP3      H1              6.6666119005       -3.3836478711        5.1208127698  SOLV      4540            0.0000000000
     13740      4551  TIP3      H2              7.5198301965       -3.1429406249        3.9195110312  SOLV      4540            0.0000000000
     13741      4552  TIP3      OH2            19.0824275575       -7.4607440710       13.3464916683  SOLV      4541            0.0000000000
     13742      4552  TIP3      H1             19.6307134928       -7.0314654555       14.0246617527  SOLV      4541            0.0000000000
     13743      4552  TIP3      H2             18.8098834645       -8.2708303142       13.8242345117  SOLV      4541            0.0000000000
     13744      4553  TIP3      OH2            17.7172649822       -9.9621801871        5.0304695162  SOLV      4542            0.0000000000
     13745      4553  TIP3      H1             17.5423098593       -9.7455551598        4.0929060776  SOLV      4542            0.0000000000
     13746      4553  TIP3      H2             18.1000967757       -9.1256004463        5.3656637061  SOLV      4542            0.0000000000
     13747      4554  TIP3      OH2            12.4508783398        1.3231203672        1.7193767997  SOLV      4543            0.0000000000
     13748      4554  TIP3      H1             11.4855251401        1.4813073168        1.6391116390  SOLV      4543            0.0000000000
     13749      4554  TIP3      H2             12.7992566746        2.2132019396        1.6598171925  SOLV      4543            0.0000000000
     13750      4555  TIP3      OH2            14.5605899320       -8.0988791166        6.0018752562  SOLV      4544            0.0000000000
     13751      4555  TIP3      H1             15.1728448808       -7.3515585056        5.8333401998  SOLV      4544            0.0000000000
     13752      4555  TIP3      H2             14.6059278352       -8.1704638420        6.9782912299  SOLV      4544            0.0000000000
     13753      4556  TIP3      OH2            17.3390595951       -4.9467511761       14.0095959862  SOLV      4545            0.0000000000
     13754      4556  TIP3      H1             17.5077542024       -4.3678068956       14.7822989891  SOLV      4545            0.0000000000
     13755      4556  TIP3      H2             17.9128653537       -5.7032529214       14.2192422589  SOLV      4545            0.0000000000
     13756      4557  TIP3      OH2            15.9586315376      -10.9142167140        7.0025314576  SOLV      4546            0.0000000000
     13757      4557  TIP3      H1             15.8021404835      -10.1100788078        7.5341344470  SOLV      4546            0.0000000000
     13758      4557  TIP3      H2             16.5974793702      -10.5730886836        6.3354720246  SOLV      4546            0.0000000000
     13759      4558  TIP3      OH2            11.1085299330      -10.8472967511        4.9212484775  SOLV      4547            0.0000000000
     13760      4558  TIP3      H1             11.0505079784       -9.9304856727        5.2550605968  SOLV      4547            0.0000000000
     13761      4558  TIP3      H2             12.0777849708      -10.9811725415        4.9899782139  SOLV      4547            0.0000000000
     13762      4559  TIP3      OH2             7.4211404462       -1.7244728167        2.8964490700  SOLV      4548            0.0000000000
     13763      4559  TIP3      H1              8.0670732786       -1.0058379281        2.7359359338  SOLV      4548            0.0000000000
     13764      4559  TIP3      H2              7.5630294161       -2.2597483706        2.0943332983  SOLV      4548            0.0000000000
     13765      4560  TIP3      OH2             6.7206578420       -8.9575875446        3.7956106904  SOLV      4549            0.0000000000
     13766      4560  TIP3      H1              6.8013857808       -7.9780148181        3.8257788734  SOLV      4549            0.0000000000
     13767      4560  TIP3      H2              6.0382799699       -9.0253987197        3.1267147539  SOLV      4549            0.0000000000
     13768      4561  TIP3      OH2            19.8014236006        5.6405108337        7.1891684975  SOLV      4550            0.0000000000
     13769      4561  TIP3      H1             19.4654420706        5.4835101772        6.3011995340  SOLV      4550            0.0000000000
     13770      4561  TIP3      H2             20.7386285469        5.8997444922        7.0025171263  SOLV      4550            0.0000000000
     13771      4562  TIP3      OH2            10.6227377742      -11.7391887563       12.4778337276  SOLV      4551            0.0000000000
     13772      4562  TIP3      H1             10.3054758857      -12.0645086799       11.6074175424  SOLV      4551            0.0000000000
     13773      4562  TIP3      H2             10.4973087276      -12.5271159575       13.0444622391  SOLV      4551            0.0000000000
     13774      4563  TIP3      OH2             6.0163707960        0.5184870318        6.2682897766  SOLV      4552            0.0000000000
     13775      4563  TIP3      H1              5.2747128186        0.7902827839        6.8212470235  SOLV      4552            0.0000000000
     13776      4563  TIP3      H2              5.7416405120        0.9184414312        5.4126935660  SOLV      4552            0.0000000000
     13777      4564  TIP3      OH2             7.6109878514        5.9796176776       17.0232727428  SOLV      4553            0.0000000000
     13778      4564  TIP3      H1              8.4630934926        6.0032160955       17.5162572974  SOLV      4553            0.0000000000
     13779      4564  TIP3      H2              7.4261802001        5.0264558641       17.0221431558  SOLV      4553            0.0000000000
     13780      4565  TIP3      OH2            12.3175430177        5.4633858850       17.4816291709  SOLV      4554            0.0000000000
     13781      4565  TIP3      H1             13.2720513226        5.3357101609       17.5600688091  SOLV      4554            0.0000000000
     13782      4565  TIP3      H2             12.1001616170        4.8302019968       16.7671322775  SOLV      4554            0.0000000000
     13783      4566  TIP3      OH2            18.8133477002        4.5677383902       14.7789019024  SOLV      4555            0.0000000000
     13784      4566  TIP3      H1             18.7281034902        3.8863906263       15.4851855432  SOLV      4555            0.0000000000
     13785      4566  TIP3      H2             19.5493966054        5.1150787643       15.1144566958  SOLV      4555            0.0000000000
     13786      4567  TIP3      OH2            16.4753452559        1.6339011787       -2.1166856977  SOLV      4556            0.0000000000
     13787      4567  TIP3      H1             16.8976926988        0.9576400234       -1.5539666355  SOLV      4556            0.0000000000
     13788      4567  TIP3      H2             17.0438714800        1.6488214470       -2.9109201048  SOLV      4556            0.0000000000
     13789      4568  TIP3      OH2             8.8616085716       -0.0447646375       19.0231278823  SOLV      4557            0.0000000000
     13790      4568  TIP3      H1              9.0177239561       -1.0058669654       19.0765444120  SOLV      4557            0.0000000000
     13791      4568  TIP3      H2              7.9871640521       -0.0088754491       18.5774072576  SOLV      4557            0.0000000000
     13792      4569  TIP3      OH2            14.9508718417        0.8460058733       16.7749707093  SOLV      4558            0.0000000000
     13793      4569  TIP3      H1             14.5091553256        1.0569993748       15.9272920498  SOLV      4558            0.0000000000
     13794      4569  TIP3      H2             15.2522112261       -0.0767280604       16.6433333109  SOLV      4558            0.0000000000
     13795      4570  TIP3      OH2            13.7315323124       -1.5692514106       -0.9856745625  SOLV      4559            0.0000000000
     13796      4570  TIP3      H1             13.7061199722       -1.4226134726       -0.0210367609  SOLV      4559            0.0000000000
     13797      4570  TIP3      H2             13.6479130819       -2.5446897451       -1.0277076438  SOLV      4559            0.0000000000
     13798      4571  TIP3      OH2            19.8662909031        0.9301865447       12.7740898138  SOLV      4560            0.0000000000
     13799      4571  TIP3      H1             20.6228051320        1.4110975954       12.3870167146  SOLV      4560            0.0000000000
     13800      4571  TIP3      H2             19.1526062530        1.5858382830       12.6598972484  SOLV      4560            0.0000000000
     13801      4572  TIP3      OH2            10.0404660012       -2.6788767521       18.9265017341  SOLV      4561            0.0000000000
     13802      4572  TIP3      H1             10.8403512723       -3.0874969463       18.5801036347  SOLV      4561            0.0000000000
     13803      4572  TIP3      H2             10.3461064061       -2.3509198125       19.7995556818  SOLV      4561            0.0000000000
     13804      4573  TIP3      OH2            11.1366777220       -4.6057963308        3.4914801123  SOLV      4562            0.0000000000
     13805      4573  TIP3      H1             10.4212484895       -4.8746813702        4.0794796826  SOLV      4562            0.0000000000
     13806      4573  TIP3      H2             11.1540686272       -5.3126263578        2.8206180710  SOLV      4562            0.0000000000
     13807      4574  TIP3      OH2            13.4609870510       -3.8664677641       15.5383397697  SOLV      4563            0.0000000000
     13808      4574  TIP3      H1             12.6565547733       -3.3029931173       15.5694269991  SOLV      4563            0.0000000000
     13809      4574  TIP3      H2             13.9055707899       -3.5285001843       14.7292480660  SOLV      4563            0.0000000000
     13810      4575  TIP3      OH2            11.7451275438       -6.6517002942        1.6163933988  SOLV      4564            0.0000000000
     13811      4575  TIP3      H1             11.4576167696       -6.6295462835        0.6798008208  SOLV      4564            0.0000000000
     13812      4575  TIP3      H2             12.7045678777       -6.4941239536        1.5204686117  SOLV      4564            0.0000000000
     13813      4576  TIP3      OH2            18.5810839650        0.1441903427       16.7688401888  SOLV      4565            0.0000000000
     13814      4576  TIP3      H1             19.3991687586       -0.1389347869       16.3472749169  SOLV      4565            0.0000000000
     13815      4576  TIP3      H2             18.5156787261       -0.4716310221       17.5217011182  SOLV      4565            0.0000000000
     13816      4577  TIP3      OH2            19.9340953222       -3.3006179794       -1.7178665645  SOLV      4566            0.0000000000
     13817      4577  TIP3      H1             19.7289546990       -3.7272250159       -2.5722033388  SOLV      4566            0.0000000000
     13818      4577  TIP3      H2             19.6233040010       -2.3864116991       -1.9248851641  SOLV      4566            0.0000000000
     13819      4578  TIP3      OH2            14.7228323754       -5.9800920933       16.7014157021  SOLV      4567            0.0000000000
     13820      4578  TIP3      H1             14.6935942678       -6.7382024184       16.0820700481  SOLV      4567            0.0000000000
     13821      4578  TIP3      H2             14.2719906735       -5.2791472619       16.1745930418  SOLV      4567            0.0000000000
     13822      4579  TIP3      OH2            14.6916239159       -8.1031004706       14.8265021891  SOLV      4568            0.0000000000
     13823      4579  TIP3      H1             14.9742637613       -7.7063842148       13.9790731129  SOLV      4568            0.0000000000
     13824      4579  TIP3      H2             13.7585781536       -8.3387305872       14.6294500532  SOLV      4568            0.0000000000
     13825      4580  TIP3      OH2            14.8999758654       -2.7490297704       13.5572243560  SOLV      4569            0.0000000000
     13826      4580  TIP3      H1             15.7286967421       -2.6158758690       13.0903160112  SOLV      4569            0.0000000000
     13827      4580  TIP3      H2             14.3087502915       -2.1093634466       13.0978281009  SOLV      4569            0.0000000000
     13828      4581  TIP3      OH2            20.7479421870       -3.1614469263       17.3028514572  SOLV      4570            0.0000000000
     13829      4581  TIP3      H1             21.2343548472       -4.0005092027       17.2867840260  SOLV      4570            0.0000000000
     13830      4581  TIP3      H2             21.4246869847       -2.5434249110       16.9892051207  SOLV      4570            0.0000000000
     13831      4582  TIP3      OH2            21.1354655571       -0.5016825003       14.6877946333  SOLV      4571            0.0000000000
     13832      4582  TIP3      H1             20.5708862802        0.0487839836       14.0947050980  SOLV      4571            0.0000000000
     13833      4582  TIP3      H2             22.0200077085       -0.3203546970       14.2962953739  SOLV      4571            0.0000000000
     13834      4583  TIP3      OH2            13.5477941634       -5.0072549521       19.0863491453  SOLV      4572            0.0000000000
     13835      4583  TIP3      H1             12.7929562762       -5.6184762178       19.2173211966  SOLV      4572            0.0000000000
     13836      4583  TIP3      H2             13.7883315938       -5.1832974352       18.1587189832  SOLV      4572            0.0000000000
     13837      4584  TIP3      OH2            16.0037778285      -10.4228270514       15.7847055047  SOLV      4573            0.0000000000
     13838      4584  TIP3      H1             15.5286583609       -9.6272158985       15.4711512862  SOLV      4573            0.0000000000
     13839      4584  TIP3      H2             15.3509200674      -11.1245541796       15.5985013920  SOLV      4573            0.0000000000
     13840      4585  TIP3      OH2            17.2969875581       -5.5430791532       17.6718893872  SOLV      4574            0.0000000000
     13841      4585  TIP3      H1             17.1423000135       -5.5577477134       18.6321166862  SOLV      4574            0.0000000000
     13842      4585  TIP3      H2             16.3872623322       -5.7060121900       17.3362501242  SOLV      4574            0.0000000000
     13843      4586  TIP3      OH2            19.5171189944       -6.2084123629       15.9713865376  SOLV      4575            0.0000000000
     13844      4586  TIP3      H1             18.8908047186       -6.0050156012       16.6855552789  SOLV      4575            0.0000000000
     13845      4586  TIP3      H2             20.3649146044       -6.2892301193       16.4514760969  SOLV      4575            0.0000000000
     13846      4587  TIP3      OH2            21.7709914341       -6.4826486361       17.7032495288  SOLV      4576            0.0000000000
     13847      4587  TIP3      H1             22.0227366515       -7.4235173011       17.8029068906  SOLV      4576            0.0000000000
     13848      4587  TIP3      H2             21.8823880261       -6.1293177027       18.6073303180  SOLV      4576            0.0000000000
     13849      4588  TIP3      OH2            11.7932764706       -7.1033185812       19.6386003194  SOLV      4577            0.0000000000
     13850      4588  TIP3      H1             11.7593530674       -8.0401064511       19.3626254994  SOLV      4577            0.0000000000
     13851      4588  TIP3      H2             12.1741937922       -7.1950092470       20.5366367708  SOLV      4577            0.0000000000
     13852      4589  TIP3      OH2            16.8505450920       -8.9145876240       19.2168168144  SOLV      4578            0.0000000000
     13853      4589  TIP3      H1             17.3177084593       -8.4906574761       18.5045006056  SOLV      4578            0.0000000000
     13854      4589  TIP3      H2             16.2932781308       -8.1522060159       19.5076085107  SOLV      4578            0.0000000000
     13855      4590  TIP3      OH2             4.7466086166       -2.3554779873        3.1361013797  SOLV      4579            0.0000000000
     13856      4590  TIP3      H1              5.6033727509       -1.9271350549        2.9270011797  SOLV      4579            0.0000000000
     13857      4590  TIP3      H2              4.7128773689       -3.0202718224        2.4357828649  SOLV      4579            0.0000000000
     13858      4591  TIP3      OH2             3.7166947154        4.0161552705        7.0292751571  SOLV      4580            0.0000000000
     13859      4591  TIP3      H1              3.1491780784        3.3768704013        6.5503809383  SOLV      4580            0.0000000000
     13860      4591  TIP3      H2              4.1961461993        3.4103575499        7.6350348261  SOLV      4580            0.0000000000
     13861      4592  TIP3      OH2             5.0798347100        2.4619610188        8.8524005633  SOLV      4581            0.0000000000
     13862      4592  TIP3      H1              4.9839455423        1.7261020199        9.4754309181  SOLV      4581            0.0000000000
     13863      4592  TIP3      H2              5.6290264690        3.0746606475        9.3716641799  SOLV      4581            0.0000000000
     13864      4593  TIP3      OH2            22.3430252199        6.5450851340        6.8331075181  SOLV      4582            0.0000000000
     13865      4593  TIP3      H1             22.6419648868        6.8413800357        7.7123294657  SOLV      4582            0.0000000000
     13866      4593  TIP3      H2             23.0454060362        6.8831630286        6.2549797417  SOLV      4582            0.0000000000
     13867      4594  TIP3      OH2            22.7129750627        6.6687944111        9.6671629759  SOLV      4583            0.0000000000
     13868      4594  TIP3      H1             22.2477672097        5.8046726797        9.6425183875  SOLV      4583            0.0000000000
     13869      4594  TIP3      H2             23.4318275747        6.4479344124       10.2798170832  SOLV      4583            0.0000000000
     13870      4595  TIP3      OH2            23.1437089819        3.4626140262       15.3751149099  SOLV      4584            0.0000000000
     13871      4595  TIP3      H1             22.4329562762        3.5506928587       16.0420165272  SOLV      4584            0.0000000000
     13872      4595  TIP3      H2             23.5751638364        4.3400129422       15.4360149093  SOLV      4584            0.0000000000
     13873      4596  TIP3      OH2            21.3355281047       -1.4240874685        1.5595109426  SOLV      4585            0.0000000000
     13874      4596  TIP3      H1             21.9748944975       -0.7494185712        1.2541710175  SOLV      4585            0.0000000000
     13875      4596  TIP3      H2             21.7979889669       -1.7922728983        2.3423710690  SOLV      4585            0.0000000000
     13876      4597  TIP3      OH2            22.6012122764       -2.7724285454        3.6292905602  SOLV      4586            0.0000000000
     13877      4597  TIP3      H1             21.9426666488       -3.1713801549        4.2342557838  SOLV      4586            0.0000000000
     13878      4597  TIP3      H2             23.2621125669       -2.3981856974        4.2480541633  SOLV      4586            0.0000000000
     13879      4598  TIP3      OH2            23.1731468022        1.2419062652        7.9198345728  SOLV      4587            0.0000000000
     13880      4598  TIP3      H1             23.7253335467        0.5802753054        7.4564041725  SOLV      4587            0.0000000000
     13881      4598  TIP3      H2             23.1473376331        1.9758690432        7.2731579872  SOLV      4587            0.0000000000
     13882      4599  TIP3      OH2            21.4217379420        4.1964386954        9.8735048572  SOLV      4588            0.0000000000
     13883      4599  TIP3      H1             20.7225550913        4.6136559760       10.4159803585  SOLV      4588            0.0000000000
     13884      4599  TIP3      H2             20.9019469357        3.7222450302        9.1913557551  SOLV      4588            0.0000000000
     13885      4600  TIP3      OH2            21.9585243249       -3.6547767714        0.0703081813  SOLV      4589            0.0000000000
     13886      4600  TIP3      H1             21.2378800865       -3.6385645328       -0.6020961482  SOLV      4589            0.0000000000
     13887      4600  TIP3      H2             21.6882242133       -2.8806256512        0.6069756938  SOLV      4589            0.0000000000
     13888      4601  TIP3      OH2            20.6704622157       -6.9453054785       -0.4053331074  SOLV      4590            0.0000000000
     13889      4601  TIP3      H1             20.1990134383       -6.5757360059       -1.1597580013  SOLV      4590            0.0000000000
     13890      4601  TIP3      H2             20.4567780081       -7.8990375298       -0.5046773386  SOLV      4590            0.0000000000
     13891      4602  TIP3      OH2            20.6646179180       -4.2721426361        5.0420183850  SOLV      4591            0.0000000000
     13892      4602  TIP3      H1             20.7798079632       -5.1875411839        4.7223310980  SOLV      4591            0.0000000000
     13893      4602  TIP3      H2             20.3337872863       -4.4099957867        5.9333370323  SOLV      4591            0.0000000000
     13894      4603  TIP3      OH2             6.9583050646       -3.4888126541       12.5869635012  SOLV      4592            0.0000000000
     13895      4603  TIP3      H1              6.9126211504       -3.8056217690       11.6583175241  SOLV      4592            0.0000000000
     13896      4603  TIP3      H2              7.9361700698       -3.4484229769       12.7109315818  SOLV      4592            0.0000000000
     13897      4604  TIP3      OH2            23.6224151177        0.0909006336       13.6555952774  SOLV      4593            0.0000000000
     13898      4604  TIP3      H1             24.2950889175       -0.6219185293       13.5587258170  SOLV      4593            0.0000000000
     13899      4604  TIP3      H2             23.9425175711        0.7654255148       13.0385621457  SOLV      4593            0.0000000000
     13900      4605  TIP3      OH2            25.3800830366       -1.9599919636       13.7021925376  SOLV      4594            0.0000000000
     13901      4605  TIP3      H1             24.6252292042       -2.4928201468       14.0395368049  SOLV      4594            0.0000000000
     13902      4605  TIP3      H2             26.1231219023       -2.5579448558       13.9391703107  SOLV      4594            0.0000000000
     13903      4606  TIP3      OH2            20.1026865441       -9.6077031591       -0.5847662492  SOLV      4595            0.0000000000
     13904      4606  TIP3      H1             20.8043751696       -9.9412704919        0.0077355233  SOLV      4595            0.0000000000
     13905      4606  TIP3      H2             19.3369963559      -10.1696968359       -0.3777721597  SOLV      4595            0.0000000000
     13906      4607  TIP3      OH2            20.7551078656       -6.9199698129        3.9610543600  SOLV      4596            0.0000000000
     13907      4607  TIP3      H1             21.1437811255       -7.8139958727        4.1188780897  SOLV      4596            0.0000000000
     13908      4607  TIP3      H2             21.2949355451       -6.6409831054        3.1964971683  SOLV      4596            0.0000000000
     13909      4608  TIP3      OH2            22.5709703802       -3.6782856706       10.9511216374  SOLV      4597            0.0000000000
     13910      4608  TIP3      H1             22.1906046873       -3.4399323425       11.8290941673  SOLV      4597            0.0000000000
     13911      4608  TIP3      H2             23.2517230119       -2.9748083871       10.8533287238  SOLV      4597            0.0000000000
     13912      4609  TIP3      OH2             9.1098282218       -6.6100246638       19.2548397303  SOLV      4598            0.0000000000
     13913      4609  TIP3      H1             10.0877785519       -6.6169173816       19.3315561249  SOLV      4598            0.0000000000
     13914      4609  TIP3      H2              8.8952700262       -7.4714691552       19.6625785704  SOLV      4598            0.0000000000
     13915      4610  TIP3      OH2            27.5330314217       -7.9151418537       16.7864335972  SOLV      4599            0.0000000000
     13916      4610  TIP3      H1             28.1031574741       -8.5765654178       16.3341863583  SOLV      4599            0.0000000000
     13917      4610  TIP3      H2             27.2371270103       -7.3585368749       16.0339183381  SOLV      4599            0.0000000000
     13918      4611  TIP3      OH2            21.7459415162       -9.4568159365        4.4024904476  SOLV      4600            0.0000000000
     13919      4611  TIP3      H1             22.2369808180       -9.6696341189        5.2224483194  SOLV      4600            0.0000000000
     13920      4611  TIP3      H2             21.1369150196      -10.2233011079        4.3515823990  SOLV      4600            0.0000000000
     13921      4612  TIP3      OH2             8.7839648989       -9.6385320436       12.6171977277  SOLV      4601            0.0000000000
     13922      4612  TIP3      H1              9.4116990521      -10.3857103809       12.6692635926  SOLV      4601            0.0000000000
     13923      4612  TIP3      H2              9.3950126171       -8.8899259359       12.5061388965  SOLV      4601            0.0000000000
     13924      4613  TIP3      OH2             6.7679477003       -6.9270891345       13.3240444569  SOLV      4602            0.0000000000
     13925      4613  TIP3      H1              7.2606742299       -6.9634677375       12.4800301404  SOLV      4602            0.0000000000
     13926      4613  TIP3      H2              6.9909855635       -6.0423475212       13.6320390463  SOLV      4602            0.0000000000
     13927      4614  TIP3      OH2            26.2515015569       -6.4164309518       14.8927633135  SOLV      4603            0.0000000000
     13928      4614  TIP3      H1             25.3440639528       -6.0577459704       14.9651925302  SOLV      4603            0.0000000000
     13929      4614  TIP3      H2             26.0349756528       -7.2054629067       14.3537811764  SOLV      4603            0.0000000000
     13930      4615  TIP3      OH2            22.5318709876      -10.2050504895        0.7629676726  SOLV      4604            0.0000000000
     13931      4615  TIP3      H1             22.9252414020      -10.8802635667        0.1714675225  SOLV      4604            0.0000000000
     13932      4615  TIP3      H2             23.1810034543       -9.4766666489        0.7072596536  SOLV      4604            0.0000000000
     13933      4616  TIP3      OH2             6.6334401847      -11.9345843452        8.2852681983  SOLV      4605            0.0000000000
     13934      4616  TIP3      H1              5.7234566644      -11.9472472143        8.6275221471  SOLV      4605            0.0000000000
     13935      4616  TIP3      H2              6.5571879618      -11.3203021963        7.5255977844  SOLV      4605            0.0000000000
     13936      4617  TIP3      OH2            18.5730340039        5.3231042733        3.6076934437  SOLV      4606            0.0000000000
     13937      4617  TIP3      H1             18.8103504525        4.9514786440        2.7328787182  SOLV      4606            0.0000000000
     13938      4617  TIP3      H2             18.8704689832        6.2365582839        3.4871756098  SOLV      4606            0.0000000000
     13939      4618  TIP3      OH2             8.8358408466      -11.0840138148       16.4725315082  SOLV      4607            0.0000000000
     13940      4618  TIP3      H1              8.3006552047      -11.1226932100       17.2813946148  SOLV      4607            0.0000000000
     13941      4618  TIP3      H2              8.1932032655      -10.6839603638       15.8515669569  SOLV      4607            0.0000000000
     13942      4619  TIP3      OH2             9.2313094362        3.1935980824       17.2110146690  SOLV      4608            0.0000000000
     13943      4619  TIP3      H1              8.2838116588        2.9980434586       17.0811885220  SOLV      4608            0.0000000000
     13944      4619  TIP3      H2              9.3304376024        3.0723621810       18.1627182170  SOLV      4608            0.0000000000
     13945      4620  TIP3      OH2            11.0484895650        3.5756827598       12.7264005747  SOLV      4609            0.0000000000
     13946      4620  TIP3      H1             10.5513182609        4.3271065623       12.3434613319  SOLV      4609            0.0000000000
     13947      4620  TIP3      H2             11.8945788340        3.7114880894       12.2507880748  SOLV      4609            0.0000000000
     13948      4621  TIP3      OH2            15.4096636013        5.9627457410       14.0401524378  SOLV      4610            0.0000000000
     13949      4621  TIP3      H1             15.8188982028        5.9413916600       14.9341176859  SOLV      4610            0.0000000000
     13950      4621  TIP3      H2             16.0624668359        6.5073796792       13.5532224005  SOLV      4610            0.0000000000
     13951      4622  TIP3      OH2            17.2269086429        7.5318693062       12.6927838633  SOLV      4611            0.0000000000
     13952      4622  TIP3      H1             17.9452590115        6.9696530261       12.3727919189  SOLV      4611            0.0000000000
     13953      4622  TIP3      H2             17.7201009999        8.1144408256       13.3130481342  SOLV      4611            0.0000000000
     13954      4623  TIP3      OH2            25.3750654930       -8.8175984020       13.7845260264  SOLV      4612            0.0000000000
     13955      4623  TIP3      H1             24.5087880149       -8.4338133294       13.5264928842  SOLV      4612            0.0000000000
     13956      4623  TIP3      H2             25.3223101442       -9.7566620981       13.5167713359  SOLV      4612            0.0000000000
     13957      4624  TIP3      OH2             7.7916667366        6.1202643905       12.9829963247  SOLV      4613            0.0000000000
     13958      4624  TIP3      H1              6.8750479143        6.3968250367       12.7525963130  SOLV      4613            0.0000000000
     13959      4624  TIP3      H2              7.9276913236        6.6348636340       13.7860367358  SOLV      4613            0.0000000000
     13960      4625  TIP3      OH2            10.1393192662        5.9150525453       11.5581690487  SOLV      4614            0.0000000000
     13961      4625  TIP3      H1              9.2653741089        6.0184901030       11.9989437523  SOLV      4614            0.0000000000
     13962      4625  TIP3      H2              9.9300549168        6.2056111471       10.6489894659  SOLV      4614            0.0000000000
     13963      4626  TIP3      OH2            14.3922103872        6.1333403826        9.5583359684  SOLV      4615            0.0000000000
     13964      4626  TIP3      H1             13.6881386826        6.2902061676        8.9009296280  SOLV      4615            0.0000000000
     13965      4626  TIP3      H2             14.4746373170        7.0182197108        9.9686042379  SOLV      4615            0.0000000000
     13966      4627  TIP3      OH2            17.0712849267        5.5329278042       10.0310538908  SOLV      4616            0.0000000000
     13967      4627  TIP3      H1             16.1145440306        5.6548847714        9.8614318107  SOLV      4616            0.0000000000
     13968      4627  TIP3      H2             17.4313174176        6.3390813998        9.6398971320  SOLV      4616            0.0000000000
     13969      4628  TIP3      OH2            19.2155113104        7.5256679982        9.1321435203  SOLV      4617            0.0000000000
     13970      4628  TIP3      H1             18.9582538390        8.2535060790        8.5438047832  SOLV      4617            0.0000000000
     13971      4628  TIP3      H2             19.4376242464        6.8232625228        8.4781153744  SOLV      4617            0.0000000000
     13972      4629  TIP3      OH2             6.8669303116        4.0312411914       10.4065865485  SOLV      4618            0.0000000000
     13973      4629  TIP3      H1              7.1554813585        3.7290248348       11.2952343679  SOLV      4618            0.0000000000
     13974      4629  TIP3      H2              7.5885592253        3.6314517893        9.8673198462  SOLV      4618            0.0000000000
     13975      4630  TIP3      OH2             8.8322835080        2.7921026112        9.0176972119  SOLV      4619            0.0000000000
     13976      4630  TIP3      H1              8.9908180750        1.9373683763        9.4797120838  SOLV      4619            0.0000000000
     13977      4630  TIP3      H2              9.7456929838        3.1270757605        8.9195901985  SOLV      4619            0.0000000000
     13978      4631  TIP3      OH2            11.5575305086        3.7203147414        9.0255401485  SOLV      4620            0.0000000000
     13979      4631  TIP3      H1             11.7916391766        2.7827632861        8.8882164761  SOLV      4620            0.0000000000
     13980      4631  TIP3      H2             12.0210360811        3.8849638663        9.8668680811  SOLV      4620            0.0000000000
     13981      4632  TIP3      OH2            17.2635673216       -9.7690471772        9.9562933074  SOLV      4621            0.0000000000
     13982      4632  TIP3      H1             16.8258365895      -10.5101167579       10.4136027997  SOLV      4621            0.0000000000
     13983      4632  TIP3      H2             17.9717227673      -10.2169016317        9.4567629169  SOLV      4621            0.0000000000
     13984      4633  TIP3      OH2            22.4310882268      -10.9466776810        8.9052929115  SOLV      4622            0.0000000000
     13985      4633  TIP3      H1             22.8052108298      -10.4575700340        8.1400901570  SOLV      4622            0.0000000000
     13986      4633  TIP3      H2             21.4761552030      -10.7584336588        8.8281379660  SOLV      4622            0.0000000000
     13987      4634  TIP3      OH2            23.3992304757       -9.9334327505        6.5671491506  SOLV      4623            0.0000000000
     13988      4634  TIP3      H1             24.1177990989      -10.5053479586        6.2164885332  SOLV      4623            0.0000000000
     13989      4634  TIP3      H2             23.7951474213       -9.0495840138        6.3759347071  SOLV      4623            0.0000000000
     13990      4635  TIP3      OH2             9.7227694233      -12.6879559496       10.0285433594  SOLV      4624            0.0000000000
     13991      4635  TIP3      H1              8.7977727762      -13.0121249497       10.0548381743  SOLV      4624            0.0000000000
     13992      4635  TIP3      H2             10.2049644636      -13.5418677294        9.9844237828  SOLV      4624            0.0000000000
     13993      4636  TIP3      OH2             7.6119539792      -13.9407350342        6.5147025826  SOLV      4625            0.0000000000
     13994      4636  TIP3      H1              7.9086230820      -13.3695426460        5.7823425705  SOLV      4625            0.0000000000
     13995      4636  TIP3      H2              7.3246593159      -13.2795903856        7.1775651924  SOLV      4625            0.0000000000
     13996      4637  TIP3      OH2            14.2296944102      -12.3744921954        8.8393053284  SOLV      4626            0.0000000000
     13997      4637  TIP3      H1             14.7666473032      -11.8855300020        8.1955481851  SOLV      4626            0.0000000000
     13998      4637  TIP3      H2             14.4795911894      -11.9534663860        9.6709549172  SOLV      4626            0.0000000000
     13999      4638  TIP3      OH2            19.6179453660      -10.8776002564        8.6458973540  SOLV      4627            0.0000000000
     14000      4638  TIP3      H1             19.5942037695      -11.3061007026        7.7831993181  SOLV      4627            0.0000000000
     14001      4638  TIP3      H2             19.5110925937      -11.6536875511        9.2489621795  SOLV      4627            0.0000000000
     14002      4639  TIP3      OH2            19.9517072555      -11.5921152505        4.3192310275  SOLV      4628            0.0000000000
     14003      4639  TIP3      H1             19.0997130714      -11.1536517056        4.5063683249  SOLV      4628            0.0000000000
     14004      4639  TIP3      H2             19.7990570083      -12.4665755686        4.7395287853  SOLV      4628            0.0000000000
     14005      4640  TIP3      OH2             4.6374669563        1.8233363954        4.3487236444  SOLV      4629            0.0000000000
     14006      4640  TIP3      H1              4.4220299614        1.3072092408        3.5668876496  SOLV      4629            0.0000000000
     14007      4640  TIP3      H2              4.4873570777        2.7320484720        4.0056014228  SOLV      4629            0.0000000000
     14008      4641  TIP3      OH2             8.7803126657      -12.3909197243        4.1512453189  SOLV      4630            0.0000000000
     14009      4641  TIP3      H1              9.2552333186      -12.9838393472        3.5406424425  SOLV      4630            0.0000000000
     14010      4641  TIP3      H2              9.5103610843      -11.8340026806        4.4889762746  SOLV      4630            0.0000000000
     14011      4642  TIP3      OH2            13.8737902051      -10.5852112513        5.1201824058  SOLV      4631            0.0000000000
     14012      4642  TIP3      H1             14.4738676805      -11.0335777306        5.7388913664  SOLV      4631            0.0000000000
     14013      4642  TIP3      H2             14.0564771993       -9.6503817022        5.3651773071  SOLV      4631            0.0000000000
     14014      4643  TIP3      OH2            12.4840995325        3.7998471676        0.2307823937  SOLV      4632            0.0000000000
     14015      4643  TIP3      H1             13.3422237424        3.7245034773       -0.2417906270  SOLV      4632            0.0000000000
     14016      4643  TIP3      H2             11.9995374172        3.0180334627       -0.0550730754  SOLV      4632            0.0000000000
     14017      4644  TIP3      OH2            19.6243218745        4.8242700673        1.0799401866  SOLV      4633            0.0000000000
     14018      4644  TIP3      H1             19.5939878185        3.8497082529        0.9259154496  SOLV      4633            0.0000000000
     14019      4644  TIP3      H2             19.1592716348        5.1455615838        0.2772993624  SOLV      4633            0.0000000000
     14020      4645  TIP3      OH2            11.7344333670       -9.8239904987       19.0981010843  SOLV      4634            0.0000000000
     14021      4645  TIP3      H1             11.4179685164      -10.5639113998       19.6539455385  SOLV      4634            0.0000000000
     14022      4645  TIP3      H2             12.6506420107      -10.0702240726       18.9572137274  SOLV      4634            0.0000000000
     14023      4646  TIP3      OH2            22.5541377215       -9.1853365813       17.9934252233  SOLV      4635            0.0000000000
     14024      4646  TIP3      H1             22.7658983964       -9.5152545769       18.8915554528  SOLV      4635            0.0000000000
     14025      4646  TIP3      H2             23.4350645146       -9.2265258641       17.5604327840  SOLV      4635            0.0000000000
     14026      4647  TIP3      OH2            21.9398678225        6.2486110320       12.8918251267  SOLV      4636            0.0000000000
     14027      4647  TIP3      H1             21.1297306607        5.9470240428       12.4338617784  SOLV      4636            0.0000000000
     14028      4647  TIP3      H2             21.7348186524        7.1993961673       13.0014991297  SOLV      4636            0.0000000000
     14029      4648  TIP3      OH2            33.6686893639       -0.3218094203        4.6961256119  SOLV      4637            0.0000000000
     14030      4648  TIP3      H1             34.5806316547       -0.5248808068        4.9525111062  SOLV      4637            0.0000000000
     14031      4648  TIP3      H2             33.3823181413       -1.1763589281        4.3294825473  SOLV      4637            0.0000000000
     14032      4649  TIP3      OH2            27.5580147344       -1.1201750682        8.0648580354  SOLV      4638            0.0000000000
     14033      4649  TIP3      H1             27.8529864827       -1.8041426430        8.6928881815  SOLV      4638            0.0000000000
     14034      4649  TIP3      H2             28.3488980699       -0.5681237520        8.0068077777  SOLV      4638            0.0000000000
     14035      4650  TIP3      OH2            27.3545908348        3.0578570025        5.2644910465  SOLV      4639            0.0000000000
     14036      4650  TIP3      H1             27.2496785996        2.0808119144        5.2717024796  SOLV      4639            0.0000000000
     14037      4650  TIP3      H2             28.3217559219        3.1263567629        5.2143939747  SOLV      4639            0.0000000000
     14038      4651  TIP3      OH2            24.3686088939       -4.9597860361        3.0695759027  SOLV      4640            0.0000000000
     14039      4651  TIP3      H1             23.8810052299       -4.1389475297        3.2591311132  SOLV      4640            0.0000000000
     14040      4651  TIP3      H2             23.6676677602       -5.4747307606        2.6321109589  SOLV      4640            0.0000000000
     14041      4652  TIP3      OH2            24.9388166242       -2.0688167392        4.9392254822  SOLV      4641            0.0000000000
     14042      4652  TIP3      H1             25.4371999533       -2.8434584940        5.2883321898  SOLV      4641            0.0000000000
     14043      4652  TIP3      H2             25.5335064462       -1.7439849915        4.2524777055  SOLV      4641            0.0000000000
     14044      4653  TIP3      OH2            33.7910239034        7.2534064938        1.2824902946  SOLV      4642            0.0000000000
     14045      4653  TIP3      H1             34.2818056216        6.4237053967        1.2927931046  SOLV      4642            0.0000000000
     14046      4653  TIP3      H2             33.5330077591        7.3255844903        2.2116826611  SOLV      4642            0.0000000000
     14047      4654  TIP3      OH2            32.5064373201        2.1740452802        4.8455705227  SOLV      4643            0.0000000000
     14048      4654  TIP3      H1             32.8094356020        1.2488387578        4.6981610780  SOLV      4643            0.0000000000
     14049      4654  TIP3      H2             33.3260725810        2.6340986102        4.6218879493  SOLV      4643            0.0000000000
     14050      4655  TIP3      OH2            29.9441373978       -6.1433848992        4.8628111938  SOLV      4644            0.0000000000
     14051      4655  TIP3      H1             29.7909548303       -5.4220917485        4.2169492069  SOLV      4644            0.0000000000
     14052      4655  TIP3      H2             29.4663904237       -6.8788759812        4.4192953496  SOLV      4644            0.0000000000
     14053      4656  TIP3      OH2            26.3790939779       -4.1411214265        5.9553330271  SOLV      4645            0.0000000000
     14054      4656  TIP3      H1             27.1925456058       -4.3351673818        6.4576722730  SOLV      4645            0.0000000000
     14055      4656  TIP3      H2             26.5334299407       -4.6974727535        5.1641300274  SOLV      4645            0.0000000000
     14056      4657  TIP3      OH2            30.5942963606       -2.1416868987        3.9163027149  SOLV      4646            0.0000000000
     14057      4657  TIP3      H1             31.4982591540       -2.4639416926        4.1301417482  SOLV      4646            0.0000000000
     14058      4657  TIP3      H2             30.2028874123       -2.9653667195        3.5467812209  SOLV      4646            0.0000000000
     14059      4658  TIP3      OH2            29.9874335078       -6.2307606527        9.2649713564  SOLV      4647            0.0000000000
     14060      4658  TIP3      H1             29.3891979666       -5.9284965977        8.5576988636  SOLV      4647            0.0000000000
     14061      4658  TIP3      H2             29.4278890574       -6.0706497276       10.0533220049  SOLV      4647            0.0000000000
     14062      4659  TIP3      OH2            33.5680560093        2.3281091591       -0.8043710482  SOLV      4648            0.0000000000
     14063      4659  TIP3      H1             32.9005423809        2.0166687700       -1.4228416925  SOLV      4648            0.0000000000
     14064      4659  TIP3      H2             33.2275725388        3.2141894727       -0.5749209667  SOLV      4648            0.0000000000
     14065      4660  TIP3      OH2            31.1832089447        1.4671711483        7.1816265294  SOLV      4649            0.0000000000
     14066      4660  TIP3      H1             30.5210421324        2.1219532480        7.5008461577  SOLV      4649            0.0000000000
     14067      4660  TIP3      H2             31.5578891815        1.9236219338        6.4012211008  SOLV      4649            0.0000000000
     14068      4661  TIP3      OH2            28.7479688074       -5.1314090023        7.0571012275  SOLV      4650            0.0000000000
     14069      4661  TIP3      H1             29.4006411156       -4.4306377921        7.2758899213  SOLV      4650            0.0000000000
     14070      4661  TIP3      H2             29.2163353647       -5.5602726436        6.2999991278  SOLV      4650            0.0000000000
     14071      4662  TIP3      OH2            29.3943087393        3.3700142313        8.0768466666  SOLV      4651            0.0000000000
     14072      4662  TIP3      H1             29.0880702489        4.2368600852        7.7426083927  SOLV      4651            0.0000000000
     14073      4662  TIP3      H2             28.6256920452        3.1574604262        8.6506189932  SOLV      4651            0.0000000000
     14074      4663  TIP3      OH2            23.2980543311        0.3172234258        0.4667729657  SOLV      4652            0.0000000000
     14075      4663  TIP3      H1             22.8881440649        0.5428199966       -0.3897411523  SOLV      4652            0.0000000000
     14076      4663  TIP3      H2             23.5809294057        1.1987811633        0.7878785400  SOLV      4652            0.0000000000
     14077      4664  TIP3      OH2            32.4504229212       -1.9250587723       -1.0846367641  SOLV      4653            0.0000000000
     14078      4664  TIP3      H1             31.9446795758       -1.1177901871       -1.2299665794  SOLV      4653            0.0000000000
     14079      4664  TIP3      H2             32.8534255330       -2.0663284275       -1.9584632372  SOLV      4653            0.0000000000
     14080      4665  TIP3      OH2            28.6219399475       -0.6518503764        2.7462029122  SOLV      4654            0.0000000000
     14081      4665  TIP3      H1             28.2330363134       -1.2462066038        2.0672927785  SOLV      4654            0.0000000000
     14082      4665  TIP3      H2             29.3761334644       -1.1892969673        3.0731706594  SOLV      4654            0.0000000000
     14083      4666  TIP3      OH2            30.0312484968        3.5200689193        4.2074275559  SOLV      4655            0.0000000000
     14084      4666  TIP3      H1             29.7655980381        3.1605071889        3.3449520908  SOLV      4655            0.0000000000
     14085      4666  TIP3      H2             30.8697276900        3.0452909086        4.3801821695  SOLV      4655            0.0000000000
     14086      4667  TIP3      OH2            30.0558576262       -0.9711975035        6.3723607707  SOLV      4656            0.0000000000
     14087      4667  TIP3      H1             30.3059315766       -1.2400835665        5.4616721688  SOLV      4656            0.0000000000
     14088      4667  TIP3      H2             30.5094156996       -0.1136741559        6.4824040428  SOLV      4656            0.0000000000
     14089      4668  TIP3      OH2            34.5519049208        5.7698188101        4.0428825040  SOLV      4657            0.0000000000
     14090      4668  TIP3      H1             35.4015812162        5.9473196595        4.4708432639  SOLV      4657            0.0000000000
     14091      4668  TIP3      H2             34.6012889654        4.8065046151        3.9930311025  SOLV      4657            0.0000000000
     14092      4669  TIP3      OH2            31.4394838016        4.3389259522        9.6769925426  SOLV      4658            0.0000000000
     14093      4669  TIP3      H1             30.9213850615        5.0659768149       10.0780659673  SOLV      4658            0.0000000000
     14094      4669  TIP3      H2             30.7502168713        3.9117071789        9.1321229761  SOLV      4658            0.0000000000
     14095      4670  TIP3      OH2            29.0372803129        0.1451003974       10.6247778490  SOLV      4659            0.0000000000
     14096      4670  TIP3      H1             29.0679708250        1.0243359928       11.0534891211  SOLV      4659            0.0000000000
     14097      4670  TIP3      H2             28.0932855333       -0.0764388068       10.7733772023  SOLV      4659            0.0000000000
     14098      4671  TIP3      OH2            32.4027612018        4.9274580947       -0.4915440459  SOLV      4660            0.0000000000
     14099      4671  TIP3      H1             32.3372048554        5.6961331953        0.0796227116  SOLV      4660            0.0000000000
     14100      4671  TIP3      H2             31.6830613724        5.0842191573       -1.1222965769  SOLV      4660            0.0000000000
     14101      4672  TIP3      OH2            29.3898465421        6.2012829824       10.4458238957  SOLV      4661            0.0000000000
     14102      4672  TIP3      H1             28.9698834022        6.1913973897        9.5706801586  SOLV      4661            0.0000000000
     14103      4672  TIP3      H2             28.6216738082        6.0025421591       11.0310198940  SOLV      4661            0.0000000000
     14104      4673  TIP3      OH2            27.3753743938       -2.2495356227        0.7859921698  SOLV      4662            0.0000000000
     14105      4673  TIP3      H1             26.6675746805       -1.8136042180        0.2636543684  SOLV      4662            0.0000000000
     14106      4673  TIP3      H2             27.0016287933       -3.1273217922        0.9186306519  SOLV      4662            0.0000000000
     14107      4674  TIP3      OH2            25.1943158529        1.5724827399        9.9336859963  SOLV      4663            0.0000000000
     14108      4674  TIP3      H1             24.5435473496        1.3610371440        9.2346849050  SOLV      4663            0.0000000000
     14109      4674  TIP3      H2             25.5750111889        0.6967638208       10.1475036790  SOLV      4663            0.0000000000
     14110      4675  TIP3      OH2            23.7428387373        3.4988252461        6.2574894013  SOLV      4664            0.0000000000
     14111      4675  TIP3      H1             24.6988734484        3.4418685574        6.1260250339  SOLV      4664            0.0000000000
     14112      4675  TIP3      H2             23.6743077938        4.2823030229        6.8231252562  SOLV      4664            0.0000000000
     14113      4676  TIP3      OH2            30.9692818256        7.1504152236       -2.2830638669  SOLV      4665            0.0000000000
     14114      4676  TIP3      H1             30.4916818497        6.9992359566       -3.1192134955  SOLV      4665            0.0000000000
     14115      4676  TIP3      H2             30.6538043355        8.0361233273       -2.0224119397  SOLV      4665            0.0000000000
     14116      4677  TIP3      OH2            25.4125868012        5.6127838856        1.4787489211  SOLV      4666            0.0000000000
     14117      4677  TIP3      H1             25.8233044352        5.5239672163        2.3669633340  SOLV      4666            0.0000000000
     14118      4677  TIP3      H2             24.8946356368        4.7939446434        1.4271959105  SOLV      4666            0.0000000000
     14119      4678  TIP3      OH2            33.1790869518        6.0151162940       -5.9718896742  SOLV      4667            0.0000000000
     14120      4678  TIP3      H1             33.8893028745        5.3486899331       -6.0453480566  SOLV      4667            0.0000000000
     14121      4678  TIP3      H2             33.3133344203        6.2911559791       -5.0407975827  SOLV      4667            0.0000000000
     14122      4679  TIP3      OH2            33.3871029421        6.5943861795       -3.3197608358  SOLV      4668            0.0000000000
     14123      4679  TIP3      H1             32.5130011826        6.7567003260       -2.8960104401  SOLV      4668            0.0000000000
     14124      4679  TIP3      H2             33.8188449600        6.0620532244       -2.6377094286  SOLV      4668            0.0000000000
     14125      4680  TIP3      OH2            27.2376382579        3.3958362878        9.7313139207  SOLV      4669            0.0000000000
     14126      4680  TIP3      H1             27.7125477637        3.2655162560       10.5763390468  SOLV      4669            0.0000000000
     14127      4680  TIP3      H2             26.4870635765        2.7726384167        9.8283893702  SOLV      4669            0.0000000000
     14128      4681  TIP3      OH2            31.0646766862       -8.4956858672        7.9011930479  SOLV      4670            0.0000000000
     14129      4681  TIP3      H1             30.1747862258       -8.7346461546        7.5809580698  SOLV      4670            0.0000000000
     14130      4681  TIP3      H2             30.9092069649       -7.5891263127        8.2056338823  SOLV      4670            0.0000000000
     14131      4682  TIP3      OH2            30.5447396562       -3.2070264385        7.8293368048  SOLV      4671            0.0000000000
     14132      4682  TIP3      H1             30.0074133690       -3.0555359145        8.6371365727  SOLV      4671            0.0000000000
     14133      4682  TIP3      H2             30.3538707030       -2.3881666312        7.3174080374  SOLV      4671            0.0000000000
     14134      4683  TIP3      OH2            29.3305994340       -4.3462412293        2.9328663730  SOLV      4672            0.0000000000
     14135      4683  TIP3      H1             28.4124607760       -4.6521488779        3.0957176259  SOLV      4672            0.0000000000
     14136      4683  TIP3      H2             29.4975724256       -4.7416346166        2.0453454805  SOLV      4672            0.0000000000
     14137      4684  TIP3      OH2            28.7662852073       -2.9411608232        9.9207387482  SOLV      4673            0.0000000000
     14138      4684  TIP3      H1             28.8569477511       -2.3199904949       10.6561547090  SOLV      4673            0.0000000000
     14139      4684  TIP3      H2             28.5992222712       -3.7821413592       10.3965560353  SOLV      4673            0.0000000000
     14140      4685  TIP3      OH2            29.1985061374       -8.3433443164       -2.9553189107  SOLV      4674            0.0000000000
     14141      4685  TIP3      H1             29.1163204807       -8.2516787310       -1.9845366449  SOLV      4674            0.0000000000
     14142      4685  TIP3      H2             28.5220852444       -7.7226078662       -3.2668434726  SOLV      4674            0.0000000000
     14143      4686  TIP3      OH2            24.6446930072       -7.7157006369        5.7343267467  SOLV      4675            0.0000000000
     14144      4686  TIP3      H1             25.3802364945       -7.3495012220        6.2684332842  SOLV      4675            0.0000000000
     14145      4686  TIP3      H2             25.0753523940       -7.9877843057        4.9123063711  SOLV      4675            0.0000000000
     14146      4687  TIP3      OH2            24.2580242807       -7.9179849733        0.9032374858  SOLV      4676            0.0000000000
     14147      4687  TIP3      H1             24.7179494826       -7.5430441840        0.1201345519  SOLV      4676            0.0000000000
     14148      4687  TIP3      H2             23.6532664119       -7.1788858168        1.0997077228  SOLV      4676            0.0000000000
     14149      4688  TIP3      OH2            32.5168711416       -6.1918873373        3.8584664218  SOLV      4677            0.0000000000
     14150      4688  TIP3      H1             31.5805673189       -6.2260186208        4.1217507315  SOLV      4677            0.0000000000
     14151      4688  TIP3      H2             32.9322744861       -6.3782284535        4.7223612329  SOLV      4677            0.0000000000
     14152      4689  TIP3      OH2            26.9802461145       -5.5683512940        3.6359775260  SOLV      4678            0.0000000000
     14153      4689  TIP3      H1             26.0402445552       -5.4981430120        3.3476584311  SOLV      4678            0.0000000000
     14154      4689  TIP3      H2             27.2194304588       -6.4831338918        3.3927510494  SOLV      4678            0.0000000000
     14155      4690  TIP3      OH2            29.6681876520       -5.4508100744        0.4717827474  SOLV      4679            0.0000000000
     14156      4690  TIP3      H1             30.4786177789       -5.1969922417        0.0195114793  SOLV      4679            0.0000000000
     14157      4690  TIP3      H2             29.0066537916       -5.3655888565       -0.2522168636  SOLV      4679            0.0000000000
     14158      4691  TIP3      OH2            28.0525219078       -5.2799977521       -1.6752348525  SOLV      4680            0.0000000000
     14159      4691  TIP3      H1             27.3996272494       -5.7850637729       -2.1969042057  SOLV      4680            0.0000000000
     14160      4691  TIP3      H2             28.5826465067       -4.8908639365       -2.4003216860  SOLV      4680            0.0000000000
     14161      4692  TIP3      OH2            28.8719652280        2.6272723910       11.9745195582  SOLV      4681            0.0000000000
     14162      4692  TIP3      H1             29.6547692741        2.9440530155       12.4658266719  SOLV      4681            0.0000000000
     14163      4692  TIP3      H2             28.2115032144        2.6033880871       12.6962641932  SOLV      4681            0.0000000000
     14164      4693  TIP3      OH2            33.0379076274       -3.0582860095        4.6725412593  SOLV      4682            0.0000000000
     14165      4693  TIP3      H1             33.4628460351       -3.4371107654        3.8859576982  SOLV      4682            0.0000000000
     14166      4693  TIP3      H2             33.5642759713       -3.4522701704        5.3888455687  SOLV      4682            0.0000000000
     14167      4694  TIP3      OH2            28.6364378042       -7.9994344569        3.3478955657  SOLV      4683            0.0000000000
     14168      4694  TIP3      H1             28.2500642424       -8.7577620091        3.8376100904  SOLV      4683            0.0000000000
     14169      4694  TIP3      H2             29.3882085112       -8.4284109358        2.9112017294  SOLV      4683            0.0000000000
     14170      4695  TIP3      OH2            33.2160406936       -3.8564348116        7.7010808023  SOLV      4684            0.0000000000
     14171      4695  TIP3      H1             32.2580183940       -3.7398741215        7.5262383843  SOLV      4684            0.0000000000
     14172      4695  TIP3      H2             33.4517204597       -2.9787422007        8.0144877658  SOLV      4684            0.0000000000
     14173      4696  TIP3      OH2            30.5047956984        0.1469632938       -1.5956577989  SOLV      4685            0.0000000000
     14174      4696  TIP3      H1             29.8427028735       -0.5686680499       -1.7180519176  SOLV      4685            0.0000000000
     14175      4696  TIP3      H2             30.3341858393        0.4096149434       -0.6586516683  SOLV      4685            0.0000000000
     14176      4697  TIP3      OH2            34.8357666308        3.4007057746        8.7144201672  SOLV      4686            0.0000000000
     14177      4697  TIP3      H1             34.5719405627        2.7898269123        9.4053893307  SOLV      4686            0.0000000000
     14178      4697  TIP3      H2             34.0314596905        3.9127624746        8.5826527805  SOLV      4686            0.0000000000
     14179      4698  TIP3      OH2            27.5822263859        0.3138020913        5.1349969615  SOLV      4687            0.0000000000
     14180      4698  TIP3      H1             27.9126932405        0.0111198783        4.2639216584  SOLV      4687            0.0000000000
     14181      4698  TIP3      H2             27.9678268453       -0.3405437549        5.7357578678  SOLV      4687            0.0000000000
     14182      4699  TIP3      OH2            31.9407321333        1.6307047730       -3.3228984010  SOLV      4688            0.0000000000
     14183      4699  TIP3      H1             31.5190140294        2.5211961156       -3.2890430996  SOLV      4688            0.0000000000
     14184      4699  TIP3      H2             31.3355735592        1.1129934069       -2.7427044413  SOLV      4688            0.0000000000
     14185      4700  TIP3      OH2            26.4452292312       -0.5643390502       11.2973889364  SOLV      4689            0.0000000000
     14186      4700  TIP3      H1             26.5677803918       -0.6994881677       12.2566310485  SOLV      4689            0.0000000000
     14187      4700  TIP3      H2             25.7198608447       -1.1869202075       11.1059677190  SOLV      4689            0.0000000000
     14188      4701  TIP3      OH2            33.5498610112        0.4414147256       11.4205272846  SOLV      4690            0.0000000000
     14189      4701  TIP3      H1             32.7710561479       -0.0279937672       11.0632201368  SOLV      4690            0.0000000000
     14190      4701  TIP3      H2             34.1670843128       -0.3115677586       11.4960033910  SOLV      4690            0.0000000000
     14191      4702  TIP3      OH2            35.2214148762        6.6960761720        7.0258254408  SOLV      4691            0.0000000000
     14192      4702  TIP3      H1             35.5847714648        5.8368944737        6.8390875512  SOLV      4691            0.0000000000
     14193      4702  TIP3      H2             35.6396958719        6.8770108565        7.9151327473  SOLV      4691            0.0000000000
     14194      4703  TIP3      OH2            28.5561153087        3.3712507613        1.4824538759  SOLV      4692            0.0000000000
     14195      4703  TIP3      H1             28.4923073059        4.1683042321        0.9166837123  SOLV      4692            0.0000000000
     14196      4703  TIP3      H2             27.6293801883        3.1114131247        1.5299276794  SOLV      4692            0.0000000000
     14197      4704  TIP3      OH2            24.2199999231       -3.6629299577       -1.5026560495  SOLV      4693            0.0000000000
     14198      4704  TIP3      H1             24.6512943912       -2.8066834648       -1.2982968906  SOLV      4693            0.0000000000
     14199      4704  TIP3      H2             23.4306625792       -3.6133276630       -0.9188472933  SOLV      4693            0.0000000000
     14200      4705  TIP3      OH2            29.8532537389        1.0019105321        0.8810710792  SOLV      4694            0.0000000000
     14201      4705  TIP3      H1             29.4956139285        1.8890586333        1.0793399874  SOLV      4694            0.0000000000
     14202      4705  TIP3      H2             29.4592426496        0.4674943846        1.5962721863  SOLV      4694            0.0000000000
     14203      4706  TIP3      OH2            27.7629475969        5.6567092562       -0.0275191688  SOLV      4695            0.0000000000
     14204      4706  TIP3      H1             26.8815189418        5.7834926306        0.3781576490  SOLV      4695            0.0000000000
     14205      4706  TIP3      H2             28.1102990850        6.5791403024       -0.0065594305  SOLV      4695            0.0000000000
     14206      4707  TIP3      OH2            28.3466248144       -5.3916967200       11.3414527631  SOLV      4696            0.0000000000
     14207      4707  TIP3      H1             27.3752660330       -5.3150011778       11.4512681484  SOLV      4696            0.0000000000
     14208      4707  TIP3      H2             28.5744284409       -5.9997970497       12.0627723306  SOLV      4696            0.0000000000
     14209      4708  TIP3      OH2            25.6162968112        5.3525512145        7.6841176823  SOLV      4697            0.0000000000
     14210      4708  TIP3      H1             26.1656072492        4.6659330812        8.0945148782  SOLV      4697            0.0000000000
     14211      4708  TIP3      H2             25.8067836536        6.1129772242        8.2481731773  SOLV      4697            0.0000000000
     14212      4709  TIP3      OH2            28.4417218397        1.8868972101       -5.4907406477  SOLV      4698            0.0000000000
     14213      4709  TIP3      H1             28.7380297587        1.0021642926       -5.7645776569  SOLV      4698            0.0000000000
     14214      4709  TIP3      H2             28.2177844393        1.7367299484       -4.5502950296  SOLV      4698            0.0000000000
     14215      4710  TIP3      OH2            27.9559081381        1.8561366145       -2.7614965431  SOLV      4699            0.0000000000
     14216      4710  TIP3      H1             28.6899017657        1.5938018619       -2.1914885313  SOLV      4699            0.0000000000
     14217      4710  TIP3      H2             27.9638410829        2.8369528256       -2.6734033628  SOLV      4699            0.0000000000
     14218      4711  TIP3      OH2            25.2802216593       -1.2111437915       -0.7055533743  SOLV      4700            0.0000000000
     14219      4711  TIP3      H1             24.6032358799       -0.7543415049       -0.1609625630  SOLV      4700            0.0000000000
     14220      4711  TIP3      H2             25.4088100029       -0.5408595005       -1.4060476320  SOLV      4700            0.0000000000
     14221      4712  TIP3      OH2            30.6531284403        4.0139552023       -3.1531386977  SOLV      4701            0.0000000000
     14222      4712  TIP3      H1             29.7252497745        4.1830450313       -2.8888915297  SOLV      4701            0.0000000000
     14223      4712  TIP3      H2             30.7502123726        4.6787767927       -3.8547654202  SOLV      4701            0.0000000000
     14224      4713  TIP3      OH2            28.0446330212        4.5799542781       -2.5713514766  SOLV      4702            0.0000000000
     14225      4713  TIP3      H1             27.7567975963        5.2719085404       -3.2117251924  SOLV      4702            0.0000000000
     14226      4713  TIP3      H2             27.8698763943        5.0260119419       -1.7149743900  SOLV      4702            0.0000000000
     14227      4714  TIP3      OH2            29.0000748123       -8.2694001795       -0.1933521648  SOLV      4703            0.0000000000
     14228      4714  TIP3      H1             28.9403822990       -7.4000721364        0.2342953948  SOLV      4703            0.0000000000
     14229      4714  TIP3      H2             29.9384112349       -8.4811879121        0.0220459321  SOLV      4703            0.0000000000
     14230      4715  TIP3      OH2            25.2642053051        0.8039977128       -2.6824836415  SOLV      4704            0.0000000000
     14231      4715  TIP3      H1             25.9435386133        1.5005819138       -2.6287975486  SOLV      4704            0.0000000000
     14232      4715  TIP3      H2             25.6866886138        0.2311943886       -3.3596048834  SOLV      4704            0.0000000000
     14233      4716  TIP3      OH2            24.6653739108       -6.3806217144       -1.3237543384  SOLV      4705            0.0000000000
     14234      4716  TIP3      H1             24.6859370433       -5.4010245666       -1.3383691609  SOLV      4705            0.0000000000
     14235      4716  TIP3      H2             23.8990370039       -6.5683141560       -1.8698764922  SOLV      4705            0.0000000000
     14236      4717  TIP3      OH2            28.4140146213       -9.1226900871        7.3660590520  SOLV      4706            0.0000000000
     14237      4717  TIP3      H1             28.1789528325       -9.4801867425        6.4851973612  SOLV      4706            0.0000000000
     14238      4717  TIP3      H2             28.3554609581       -9.9224414735        7.9315183101  SOLV      4706            0.0000000000
     14239      4718  TIP3      OH2            23.8929536293        3.0286474539        1.1392922250  SOLV      4707            0.0000000000
     14240      4718  TIP3      H1             23.2621612920        3.3263468511        1.8050521681  SOLV      4707            0.0000000000
     14241      4718  TIP3      H2             23.5498664237        3.4791181655        0.3346019367  SOLV      4707            0.0000000000
     14242      4719  TIP3      OH2            25.5890057382        8.5221656331       11.8919835378  SOLV      4708            0.0000000000
     14243      4719  TIP3      H1             26.4437657697        8.5393851118       12.3790777957  SOLV      4708            0.0000000000
     14244      4719  TIP3      H2             25.3865234685        7.5725369100       11.9044192865  SOLV      4708            0.0000000000
     14245      4720  TIP3      OH2            30.3767419450        8.0194475144       12.3137377642  SOLV      4709            0.0000000000
     14246      4720  TIP3      H1             31.2907958088        7.6917642931       12.3952235737  SOLV      4709            0.0000000000
     14247      4720  TIP3      H2             30.0513200756        7.4265670862       11.6089051214  SOLV      4709            0.0000000000
     14248      4721  TIP3      OH2            30.0724225816        3.9459005363       -6.3440844013  SOLV      4710            0.0000000000
     14249      4721  TIP3      H1             29.5720998302        3.1642988389       -6.0142037849  SOLV      4710            0.0000000000
     14250      4721  TIP3      H2             30.8454312329        3.5224215856       -6.7746472437  SOLV      4710            0.0000000000
     14251      4722  TIP3      OH2            36.4427419475        7.1101338044        9.6291046021  SOLV      4711            0.0000000000
     14252      4722  TIP3      H1             36.2194937553        6.4960976753       10.3648358324  SOLV      4711            0.0000000000
     14253      4722  TIP3      H2             37.3967323640        6.9719572445        9.5637686516  SOLV      4711            0.0000000000
     14254      4723  TIP3      OH2            26.8504426226        2.5376323325       13.8873181536  SOLV      4712            0.0000000000
     14255      4723  TIP3      H1             27.0006857888        1.5780422760       13.9765030019  SOLV      4712            0.0000000000
     14256      4723  TIP3      H2             25.9665623195        2.5606336147       13.4598637123  SOLV      4712            0.0000000000
     14257      4724  TIP3      OH2            26.6569192305       -1.0266993700       -4.1518787332  SOLV      4713            0.0000000000
     14258      4724  TIP3      H1             27.2330052394       -1.2964029197       -3.4151571841  SOLV      4713            0.0000000000
     14259      4724  TIP3      H2             27.3195465809       -0.9775271127       -4.8758437149  SOLV      4713            0.0000000000
     14260      4725  TIP3      OH2            33.0582732924        3.3071413053       11.6115088983  SOLV      4714            0.0000000000
     14261      4725  TIP3      H1             32.4838365292        3.5869346451       10.8646435163  SOLV      4714            0.0000000000
     14262      4725  TIP3      H2             33.1473757117        2.3428722121       11.4797457803  SOLV      4714            0.0000000000
     14263      4726  TIP3      OH2            31.4237686837        0.9840060197       -6.0343638429  SOLV      4715            0.0000000000
     14264      4726  TIP3      H1             31.5224258754        1.1729043197       -5.0818231870  SOLV      4715            0.0000000000
     14265      4726  TIP3      H2             32.1022870073        0.2965105221       -6.1627448639  SOLV      4715            0.0000000000
     14266      4727  TIP3      OH2            28.0276231327       -0.0920157364       13.7537708459  SOLV      4716            0.0000000000
     14267      4727  TIP3      H1             28.7319396986       -0.7139559555       13.5401317349  SOLV      4716            0.0000000000
     14268      4727  TIP3      H2             28.3057124249        0.2144535629       14.6426993245  SOLV      4716            0.0000000000
     14269      4728  TIP3      OH2            28.6617124424       -1.8950548229       -1.9477322382  SOLV      4717            0.0000000000
     14270      4728  TIP3      H1             28.3872328327       -2.2843243090       -1.1010413732  SOLV      4717            0.0000000000
     14271      4728  TIP3      H2             29.0055301363       -2.6715784401       -2.4354589515  SOLV      4717            0.0000000000
     14272      4729  TIP3      OH2            31.4761715660       -1.1200579124       10.3482722291  SOLV      4718            0.0000000000
     14273      4729  TIP3      H1             30.6083225416       -0.6574753455       10.3880183335  SOLV      4718            0.0000000000
     14274      4729  TIP3      H2             31.8159049764       -0.8679348155        9.4671011932  SOLV      4718            0.0000000000
     14275      4730  TIP3      OH2            29.6125021059       -3.9999304985       -3.5305658938  SOLV      4719            0.0000000000
     14276      4730  TIP3      H1             29.2894521814       -4.0290407783       -4.4565171073  SOLV      4719            0.0000000000
     14277      4730  TIP3      H2             30.5654195909       -4.0264236033       -3.6781378320  SOLV      4719            0.0000000000
     14278      4731  TIP3      OH2            32.5029243308       -3.3559558242       11.6002041005  SOLV      4720            0.0000000000
     14279      4731  TIP3      H1             32.5359234518       -4.1795265014       11.0649398458  SOLV      4720            0.0000000000
     14280      4731  TIP3      H2             32.0536749008       -2.7299758371       10.9946146929  SOLV      4720            0.0000000000
     14281      4732  TIP3      OH2            32.5334012352       -5.4923673915        9.8221278256  SOLV      4721            0.0000000000
     14282      4732  TIP3      H1             32.8220666929       -5.1137293560        8.9675029642  SOLV      4721            0.0000000000
     14283      4732  TIP3      H2             31.6172257116       -5.7757591261        9.6047728188  SOLV      4721            0.0000000000
     14284      4733  TIP3      OH2            32.9752414051       -0.3343588840        8.1426879452  SOLV      4722            0.0000000000
     14285      4733  TIP3      H1             33.3535068253       -0.5085067420        7.2731196809  SOLV      4722            0.0000000000
     14286      4733  TIP3      H2             32.3873883390        0.4238367093        7.9337652430  SOLV      4722            0.0000000000
     14287      4734  TIP3      OH2            31.4378589378       -2.3606680038       13.9319305485  SOLV      4723            0.0000000000
     14288      4734  TIP3      H1             30.7550753147       -3.0359198916       14.1326853536  SOLV      4723            0.0000000000
     14289      4734  TIP3      H2             31.7483671509       -2.6703757385       13.0572978031  SOLV      4723            0.0000000000
     14290      4735  TIP3      OH2            33.7174435583       -7.9178151680       10.4975008429  SOLV      4724            0.0000000000
     14291      4735  TIP3      H1             33.3164349448       -7.0286662042       10.4363742158  SOLV      4724            0.0000000000
     14292      4735  TIP3      H2             32.9482036259       -8.4864165985       10.6597746926  SOLV      4724            0.0000000000
     14293      4736  TIP3      OH2            34.8036830675       -1.9389230768       12.1464204455  SOLV      4725            0.0000000000
     14294      4736  TIP3      H1             35.4018872155       -2.5203603127       12.6405410731  SOLV      4725            0.0000000000
     14295      4736  TIP3      H2             34.0019866649       -2.5046415775       12.0985072397  SOLV      4725            0.0000000000
     14296      4737  TIP3      OH2            29.8517972138       -4.5572162818       14.4873322546  SOLV      4726            0.0000000000
     14297      4737  TIP3      H1             29.8335594031       -5.4706125798       14.1417332165  SOLV      4726            0.0000000000
     14298      4737  TIP3      H2             30.2004729988       -4.7129788336       15.3912496821  SOLV      4726            0.0000000000
     14299      4738  TIP3      OH2            35.1850160027       -5.7998241395       13.7872953906  SOLV      4727            0.0000000000
     14300      4738  TIP3      H1             34.7497741444       -6.6395966073       13.6319780326  SOLV      4727            0.0000000000
     14301      4738  TIP3      H2             34.5038803828       -5.2695412608       14.2520078914  SOLV      4727            0.0000000000
     14302      4739  TIP3      OH2            27.8220742286        6.6021206712       -4.4413500524  SOLV      4728            0.0000000000
     14303      4739  TIP3      H1             28.7624332047        6.5698900157       -4.6897461134  SOLV      4728            0.0000000000
     14304      4739  TIP3      H2             27.4756325735        7.1216824484       -5.1923448130  SOLV      4728            0.0000000000
     14305      4740  TIP3      OH2            22.5724339415        0.4241848461       -2.3159623015  SOLV      4729            0.0000000000
     14306      4740  TIP3      H1             23.5193963684        0.6341802123       -2.4724286830  SOLV      4729            0.0000000000
     14307      4740  TIP3      H2             22.4954914031       -0.4472468291       -2.7614164815  SOLV      4729            0.0000000000
     14308      4741  TIP3      OH2            21.5878640838        6.5611373937        2.0047747522  SOLV      4730            0.0000000000
     14309      4741  TIP3      H1             20.9813380683        5.9525807418        1.5319102783  SOLV      4730            0.0000000000
     14310      4741  TIP3      H2             22.0966314726        5.9295096628        2.5536042965  SOLV      4730            0.0000000000
     14311      4742  TIP3      OH2            23.0931807299        4.9567417889        3.6886965746  SOLV      4731            0.0000000000
     14312      4742  TIP3      H1             22.9726827673        4.2721721358        4.3651223296  SOLV      4731            0.0000000000
     14313      4742  TIP3      H2             23.5916456207        5.6218133768        4.1973541853  SOLV      4731            0.0000000000
     14314      4743  TIP3      OH2            24.9406661764       -0.7831489232        7.3843210362  SOLV      4732            0.0000000000
     14315      4743  TIP3      H1             24.8842372300       -1.1817838036        6.4896769681  SOLV      4732            0.0000000000
     14316      4743  TIP3      H2             25.9141756463       -0.8242837316        7.5363048594  SOLV      4732            0.0000000000
     14317      4744  TIP3      OH2            27.2267093721       -3.8439928144       14.4029642700  SOLV      4733            0.0000000000
     14318      4744  TIP3      H1             28.1892279513       -4.0224161186       14.3549397998  SOLV      4733            0.0000000000
     14319      4744  TIP3      H2             26.8964359912       -4.7344176897       14.6333936868  SOLV      4733            0.0000000000
     14320      4745  TIP3      OH2            26.6858059214       -6.9801766777        7.4671928365  SOLV      4734            0.0000000000
     14321      4745  TIP3      H1             27.2545654797       -7.7764446989        7.5440608059  SOLV      4734            0.0000000000
     14322      4745  TIP3      H2             27.3625135645       -6.2901082893        7.3515011900  SOLV      4734            0.0000000000
     14323      4746  TIP3      OH2            24.2817817267       -4.2179071733        8.1328266762  SOLV      4735            0.0000000000
     14324      4746  TIP3      H1             24.8112015843       -4.3598483762        7.3280486299  SOLV      4735            0.0000000000
     14325      4746  TIP3      H2             24.8416462975       -3.6228491017        8.6340041713  SOLV      4735            0.0000000000
     14326      4747  TIP3      OH2            24.5934938861       -9.3258425110        3.1936281174  SOLV      4736            0.0000000000
     14327      4747  TIP3      H1             23.6635029971       -9.3796138666        3.4673393529  SOLV      4736            0.0000000000
     14328      4747  TIP3      H2             24.5386284662       -8.7420515923        2.4081401165  SOLV      4736            0.0000000000
     14329      4748  TIP3      OH2            26.8386388963       -8.4978242480       11.3402086161  SOLV      4737            0.0000000000
     14330      4748  TIP3      H1             26.3723289289       -8.5579166720       12.1904691379  SOLV      4737            0.0000000000
     14331      4748  TIP3      H2             26.1311589470       -8.1596225070       10.7532437561  SOLV      4737            0.0000000000
     14332      4749  TIP3      OH2            27.2082283246        5.7473297284       12.0975310232  SOLV      4738            0.0000000000
     14333      4749  TIP3      H1             26.2615164596        5.5589305522       11.9474544775  SOLV      4738            0.0000000000
     14334      4749  TIP3      H2             27.2843694163        5.6075147129       13.0492920013  SOLV      4738            0.0000000000
     14335      4750  TIP3      OH2            28.9001043236        6.0576073833        7.6052173664  SOLV      4739            0.0000000000
     14336      4750  TIP3      H1             28.4196088990        6.8123379549        7.2022739113  SOLV      4739            0.0000000000
     14337      4750  TIP3      H2             29.8033576507        6.2681654464        7.3567760918  SOLV      4739            0.0000000000
     14338      4751  TIP3      OH2            35.3455467315        9.5472688999        7.0778056207  SOLV      4740            0.0000000000
     14339      4751  TIP3      H1             36.3048445733        9.6713660608        7.0429374991  SOLV      4740            0.0000000000
     14340      4751  TIP3      H2             35.1264836272       10.4396738284        7.3574061796  SOLV      4740            0.0000000000
     14341      4752  TIP3      OH2            25.8084650176        8.6720567978        7.8704631433  SOLV      4741            0.0000000000
     14342      4752  TIP3      H1             24.8895204285        8.9287742221        7.6248621666  SOLV      4741            0.0000000000
     14343      4752  TIP3      H2             25.9408245056        9.2480924210        8.6344139591  SOLV      4741            0.0000000000
     14344      4753  TIP3      OH2            28.1193683716        8.3944936053        6.3767996380  SOLV      4742            0.0000000000
     14345      4753  TIP3      H1             27.2712084857        8.5425525453        6.8580687326  SOLV      4742            0.0000000000
     14346      4753  TIP3      H2             27.8976600821        8.7817158470        5.5029334074  SOLV      4742            0.0000000000
     14347      4754  TIP3      OH2            32.7321257874        8.6581924890        4.7020223066  SOLV      4743            0.0000000000
     14348      4754  TIP3      H1             31.9924833457        8.5597700290        4.0732120240  SOLV      4743            0.0000000000
     14349      4754  TIP3      H2             32.6697048339        9.6262373550        4.8623272353  SOLV      4743            0.0000000000
     14350      4755  TIP3      OH2            24.7981616401        6.5740126116        5.2886823255  SOLV      4744            0.0000000000
     14351      4755  TIP3      H1             25.0996032075        6.2771828041        6.1743116994  SOLV      4744            0.0000000000
     14352      4755  TIP3      H2             25.5195381808        6.1869718444        4.7423331925  SOLV      4744            0.0000000000
     14353      4756  TIP3      OH2            26.7443131694        5.3304708602        3.8662841639  SOLV      4745            0.0000000000
     14354      4756  TIP3      H1             26.9127143778        4.4870321144        4.3482699033  SOLV      4745            0.0000000000
     14355      4756  TIP3      H2             27.6568808369        5.6453384632        3.7062847667  SOLV      4745            0.0000000000
     14356      4757  TIP3      OH2            29.4053721936        6.2114208423        3.7174117527  SOLV      4746            0.0000000000
     14357      4757  TIP3      H1             29.7366018859        5.2894800735        3.7349120168  SOLV      4746            0.0000000000
     14358      4757  TIP3      H2             29.6404844577        6.5198870764        4.5962075079  SOLV      4746            0.0000000000
     14359      4758  TIP3      OH2            27.6260458484      -10.0760809718        4.8701581838  SOLV      4747            0.0000000000
     14360      4758  TIP3      H1             26.7016939135      -10.3963571258        4.8959955626  SOLV      4747            0.0000000000
     14361      4758  TIP3      H2             28.1034460177      -10.9339449348        4.8673657574  SOLV      4747            0.0000000000
     14362      4759  TIP3      OH2            25.6255574994      -11.3731704814        1.4112081690  SOLV      4748            0.0000000000
     14363      4759  TIP3      H1             25.8932722108      -10.8071951141        0.6641647127  SOLV      4748            0.0000000000
     14364      4759  TIP3      H2             25.3302372214      -10.7109113446        2.0661552047  SOLV      4748            0.0000000000
     14365      4760  TIP3      OH2            31.4321315496       -9.5457995744        3.6895591825  SOLV      4749            0.0000000000
     14366      4760  TIP3      H1             32.2906155532       -9.5306327889        3.2284406344  SOLV      4749            0.0000000000
     14367      4760  TIP3      H2             31.6836370943       -9.3163422905        4.5895172915  SOLV      4749            0.0000000000
     14368      4761  TIP3      OH2            22.6850667012        4.4021666356       -0.8493449621  SOLV      4750            0.0000000000
     14369      4761  TIP3      H1             21.8133814845        4.1170009058       -1.1868168730  SOLV      4750            0.0000000000
     14370      4761  TIP3      H2             22.6913576129        5.3108568478       -1.2154272667  SOLV      4750            0.0000000000
     14371      4762  TIP3      OH2            26.7426177945       -9.8201714267       -0.9779698501  SOLV      4751            0.0000000000
     14372      4762  TIP3      H1             27.2285937862      -10.4270283539       -1.5679801862  SOLV      4751            0.0000000000
     14373      4762  TIP3      H2             27.4728070962       -9.2684321011       -0.6268822805  SOLV      4751            0.0000000000
     14374      4763  TIP3      OH2            31.6942302402       -8.2760589296        0.3895378080  SOLV      4752            0.0000000000
     14375      4763  TIP3      H1             32.3648158470       -8.8394462082        0.8097540181  SOLV      4752            0.0000000000
     14376      4763  TIP3      H2             32.2252432849       -7.6979449051       -0.1499784049  SOLV      4752            0.0000000000
     14377      4764  TIP3      OH2            30.5032738604        6.2183638975       -4.9856930894  SOLV      4753            0.0000000000
     14378      4764  TIP3      H1             31.3504142446        6.4325762994       -5.4173589241  SOLV      4753            0.0000000000
     14379      4764  TIP3      H2             30.2189025776        5.4752014458       -5.5705188623  SOLV      4753            0.0000000000
     14380      4765  TIP3      OH2            29.7351556381       -7.2886341573       13.8327799379  SOLV      4754            0.0000000000
     14381      4765  TIP3      H1             29.4040748568       -8.0308892372       14.3656015300  SOLV      4754            0.0000000000
     14382      4765  TIP3      H2             30.6826976924       -7.2953421485       14.0838586699  SOLV      4754            0.0000000000
     14383      4766  TIP3      OH2            32.2527650074       -7.2880805576       14.9722425048  SOLV      4755            0.0000000000
     14384      4766  TIP3      H1             32.9089859910       -7.8289767309       14.5146515408  SOLV      4755            0.0000000000
     14385      4766  TIP3      H2             32.0026784555       -7.8829201580       15.7175716981  SOLV      4755            0.0000000000
     14386      4767  TIP3      OH2            23.4660305515        4.5044877223       -4.4937919603  SOLV      4756            0.0000000000
     14387      4767  TIP3      H1             23.4857020286        4.8292318833       -3.5825371224  SOLV      4756            0.0000000000
     14388      4767  TIP3      H2             24.3537570287        4.0897795562       -4.5953261220  SOLV      4756            0.0000000000
     14389      4768  TIP3      OH2           -22.8924580192       10.4604435331       12.3421412680  SOLV      4757            0.0000000000
     14390      4768  TIP3      H1            -23.2143955644       11.3493323175       12.0775739528  SOLV      4757            0.0000000000
     14391      4768  TIP3      H2            -23.6238597515        9.9148555685       12.0031739136  SOLV      4757            0.0000000000
     14392      4769  TIP3      OH2           -22.9245740828       10.4662241916       16.2608570822  SOLV      4758            0.0000000000
     14393      4769  TIP3      H1            -22.5313787099       10.1762797722       17.1050406994  SOLV      4758            0.0000000000
     14394      4769  TIP3      H2            -23.2887298557        9.6311487002       15.9213575872  SOLV      4758            0.0000000000
     14395      4770  TIP3      OH2           -20.4391047598       13.4845719990       13.0254345252  SOLV      4759            0.0000000000
     14396      4770  TIP3      H1            -20.5925624438       12.8078847667       13.6985794840  SOLV      4759            0.0000000000
     14397      4770  TIP3      H2            -20.1150336429       14.2341461921       13.5511983035  SOLV      4759            0.0000000000
     14398      4771  TIP3      OH2           -23.9558119909       18.0102165620       13.2296671098  SOLV      4760            0.0000000000
     14399      4771  TIP3      H1            -23.5265322884       17.4089563173       12.5818093796  SOLV      4760            0.0000000000
     14400      4771  TIP3      H2            -23.9053113634       17.4714271508       14.0227100064  SOLV      4760            0.0000000000
     14401      4772  TIP3      OH2           -24.8667144121       12.6949212401       16.6909466264  SOLV      4761            0.0000000000
     14402      4772  TIP3      H1            -24.5015387945       11.9329176437       16.2059572726  SOLV      4761            0.0000000000
     14403      4772  TIP3      H2            -24.0202117485       13.1424503200       16.9104343486  SOLV      4761            0.0000000000
     14404      4773  TIP3      OH2           -14.9870314859        5.9621463329       16.6269155054  SOLV      4762            0.0000000000
     14405      4773  TIP3      H1            -14.4978147906        6.6342885122       17.1385605763  SOLV      4762            0.0000000000
     14406      4773  TIP3      H2            -14.8658464996        6.2899019808       15.7225649826  SOLV      4762            0.0000000000
     14407      4774  TIP3      OH2           -20.7776988213        7.7124722256       16.9258849630  SOLV      4763            0.0000000000
     14408      4774  TIP3      H1            -20.3672162180        6.8499778025       17.1305617868  SOLV      4763            0.0000000000
     14409      4774  TIP3      H2            -21.1333701992        7.5340247019       16.0335631534  SOLV      4763            0.0000000000
     14410      4775  TIP3      OH2           -27.3180947981        4.3322805819       16.5050713409  SOLV      4764            0.0000000000
     14411      4775  TIP3      H1            -27.5112444907        5.0565454846       15.8763401781  SOLV      4764            0.0000000000
     14412      4775  TIP3      H2            -27.7108153099        3.5757021177       16.0246863185  SOLV      4764            0.0000000000
     14413      4776  TIP3      OH2           -20.4394396890        5.2138805844       12.8037127551  SOLV      4765            0.0000000000
     14414      4776  TIP3      H1            -19.7297375230        5.1008543089       13.4805595759  SOLV      4765            0.0000000000
     14415      4776  TIP3      H2            -19.9147450030        5.5736830694       12.0654746452  SOLV      4765            0.0000000000
     14416      4777  TIP3      OH2           -26.6154612878        8.3232197729       15.7014631463  SOLV      4766            0.0000000000
     14417      4777  TIP3      H1            -25.6740569957        8.0690048299       15.8234519794  SOLV      4766            0.0000000000
     14418      4777  TIP3      H2            -26.9859382948        7.4868599430       15.3385836579  SOLV      4766            0.0000000000
     14419      4778  TIP3      OH2           -14.0113555926        7.9356241546       18.3514341445  SOLV      4767            0.0000000000
     14420      4778  TIP3      H1            -14.8600821935        8.3904981575       18.1676890613  SOLV      4767            0.0000000000
     14421      4778  TIP3      H2            -13.7822597217        8.3078731425       19.2173595588  SOLV      4767            0.0000000000
     14422      4779  TIP3      OH2           -27.4352951721        4.0710570795       20.7429546651  SOLV      4768            0.0000000000
     14423      4779  TIP3      H1            -28.1594669603        4.3614206767       20.1568394206  SOLV      4768            0.0000000000
     14424      4779  TIP3      H2            -27.8550269993        4.2163834462       21.6231705974  SOLV      4768            0.0000000000
     14425      4780  TIP3      OH2           -24.0082756583       12.5724713782       10.9855867676  SOLV      4769            0.0000000000
     14426      4780  TIP3      H1            -24.3978775303       12.4499412587       10.1100106592  SOLV      4769            0.0000000000
     14427      4780  TIP3      H2            -24.4279497861       13.4178582968       11.2560077772  SOLV      4769            0.0000000000
     14428      4781  TIP3      OH2           -26.3747589488       12.1268640028       18.8553303588  SOLV      4770            0.0000000000
     14429      4781  TIP3      H1            -26.6442957364       12.9488990264       19.2798629623  SOLV      4770            0.0000000000
     14430      4781  TIP3      H2            -25.8314863443       12.4598985401       18.1007812676  SOLV      4770            0.0000000000
     14431      4782  TIP3      OH2           -18.4585460774        5.3166229231       14.6339594275  SOLV      4771            0.0000000000
     14432      4782  TIP3      H1            -18.5873648877        4.8576067810       15.4728851767  SOLV      4771            0.0000000000
     14433      4782  TIP3      H2            -17.9186812870        6.0860301221       14.9020634619  SOLV      4771            0.0000000000
     14434      4783  TIP3      OH2           -28.6437945409        5.4642941021       18.6017746341  SOLV      4772            0.0000000000
     14435      4783  TIP3      H1            -27.9433956017        6.0412002662       18.9603271750  SOLV      4772            0.0000000000
     14436      4783  TIP3      H2            -28.1342026146        4.9248350627       17.9584388695  SOLV      4772            0.0000000000
     14437      4784  TIP3      OH2           -19.8169518612       15.9220557889       14.6463335727  SOLV      4773            0.0000000000
     14438      4784  TIP3      H1            -20.7324436330       15.8500529192       14.9940375150  SOLV      4773            0.0000000000
     14439      4784  TIP3      H2            -19.8580784133       16.7815785971       14.1800455899  SOLV      4773            0.0000000000
     14440      4785  TIP3      OH2           -16.8311323355        4.8191860945       18.3204632556  SOLV      4774            0.0000000000
     14441      4785  TIP3      H1            -17.6991049941        5.1238895351       18.0163612580  SOLV      4774            0.0000000000
     14442      4785  TIP3      H2            -16.2308636788        5.1936411874       17.6327332366  SOLV      4774            0.0000000000
     14443      4786  TIP3      OH2           -23.6262886786        1.3405895680       18.0075996859  SOLV      4775            0.0000000000
     14444      4786  TIP3      H1            -23.8002575860        0.4056090353       18.2592955480  SOLV      4775            0.0000000000
     14445      4786  TIP3      H2            -24.3983463074        1.7992403944       18.4161489279  SOLV      4775            0.0000000000
     14446      4787  TIP3      OH2           -22.7937589135       16.4048726417       11.3685745217  SOLV      4776            0.0000000000
     14447      4787  TIP3      H1            -22.3026370461       15.5667187610       11.1909040326  SOLV      4776            0.0000000000
     14448      4787  TIP3      H2            -22.1635023842       17.0396324719       10.9562022554  SOLV      4776            0.0000000000
     14449      4788  TIP3      OH2           -21.3994840296       14.2162426349       10.5333300882  SOLV      4777            0.0000000000
     14450      4788  TIP3      H1            -21.7148735883       13.3980253963       10.1275283397  SOLV      4777            0.0000000000
     14451      4788  TIP3      H2            -20.9894620985       13.8813109107       11.3607178737  SOLV      4777            0.0000000000
     14452      4789  TIP3      OH2           -17.5399887588       14.9928504511       18.0914067875  SOLV      4778            0.0000000000
     14453      4789  TIP3      H1            -17.6334575982       14.2295508980       17.4805204425  SOLV      4778            0.0000000000
     14454      4789  TIP3      H2            -17.6970656196       15.7488187100       17.4860603093  SOLV      4778            0.0000000000
     14455      4790  TIP3      OH2           -24.5420252321        8.9266553934       10.7113216837  SOLV      4779            0.0000000000
     14456      4790  TIP3      H1            -25.3429292689        9.4612545977       10.5268196400  SOLV      4779            0.0000000000
     14457      4790  TIP3      H2            -24.1073382754        8.9172279197        9.8399671947  SOLV      4779            0.0000000000
     14458      4791  TIP3      OH2           -25.0256079956        6.8656642342        7.7952774726  SOLV      4780            0.0000000000
     14459      4791  TIP3      H1            -24.3405862623        7.3495100359        8.2905838037  SOLV      4780            0.0000000000
     14460      4791  TIP3      H2            -24.4614780325        6.2611134006        7.2708174881  SOLV      4780            0.0000000000
     14461      4792  TIP3      OH2           -15.6050436808       11.3570192530       16.5225206241  SOLV      4781            0.0000000000
     14462      4792  TIP3      H1            -16.4236917844       11.8954700999       16.5587682275  SOLV      4781            0.0000000000
     14463      4792  TIP3      H2            -15.2635234195       11.6211268628       15.6408792009  SOLV      4781            0.0000000000
     14464      4793  TIP3      OH2           -21.1267693357        9.7912018454       10.3614948128  SOLV      4782            0.0000000000
     14465      4793  TIP3      H1            -21.6669191565       10.0474492253       11.1451347265  SOLV      4782            0.0000000000
     14466      4793  TIP3      H2            -20.2844467086        9.5459125465       10.7982474061  SOLV      4782            0.0000000000
     14467      4794  TIP3      OH2           -18.7730705720       10.1177648937       19.5597121219  SOLV      4783            0.0000000000
     14468      4794  TIP3      H1            -18.7836867290       10.9454160080       20.0784223882  SOLV      4783            0.0000000000
     14469      4794  TIP3      H2            -19.6315676875       10.1826550288       19.0963344667  SOLV      4783            0.0000000000
     14470      4795  TIP3      OH2           -28.5781277431        9.8912361386       14.4416764211  SOLV      4784            0.0000000000
     14471      4795  TIP3      H1            -29.0577434085        9.4593759613       13.7220227493  SOLV      4784            0.0000000000
     14472      4795  TIP3      H2            -27.8289532290        9.2920121137       14.6240603746  SOLV      4784            0.0000000000
     14473      4796  TIP3      OH2           -27.1785417530       14.4397478300       15.9915090839  SOLV      4785            0.0000000000
     14474      4796  TIP3      H1            -27.6548876190       13.8455183606       15.4006521666  SOLV      4785            0.0000000000
     14475      4796  TIP3      H2            -26.3089164778       14.0169110470       16.0367153806  SOLV      4785            0.0000000000
     14476      4797  TIP3      OH2           -26.8231023189        9.4034612966       18.2493576566  SOLV      4786            0.0000000000
     14477      4797  TIP3      H1            -26.6265080157        9.2225493219       17.3072008117  SOLV      4786            0.0000000000
     14478      4797  TIP3      H2            -26.5272604802       10.3208951330       18.3781991839  SOLV      4786            0.0000000000
     14479      4798  TIP3      OH2           -22.2576652434       15.8647960862       15.8587560575  SOLV      4787            0.0000000000
     14480      4798  TIP3      H1            -22.2871609109       16.6478449526       16.4337761319  SOLV      4787            0.0000000000
     14481      4798  TIP3      H2            -22.3299369208       15.1180519264       16.4878725089  SOLV      4787            0.0000000000
     14482      4799  TIP3      OH2           -22.7168460129        8.3228849273        8.6574542319  SOLV      4788            0.0000000000
     14483      4799  TIP3      H1            -22.1232349752        8.9342314047        9.1516160117  SOLV      4788            0.0000000000
     14484      4799  TIP3      H2            -22.4678357451        8.5398594221        7.7258853754  SOLV      4788            0.0000000000
     14485      4800  TIP3      OH2           -25.2086358247       15.0341995693       11.3362642795  SOLV      4789            0.0000000000
     14486      4800  TIP3      H1            -24.4569565585       15.6457244577       11.4178435568  SOLV      4789            0.0000000000
     14487      4800  TIP3      H2            -25.9566781423       15.6227500086       11.1723422643  SOLV      4789            0.0000000000
     14488      4801  TIP3      OH2           -17.6228076168        0.7384978710        9.0864553790  SOLV      4790            0.0000000000
     14489      4801  TIP3      H1            -18.4104470645        0.9632552980        9.6244244043  SOLV      4790            0.0000000000
     14490      4801  TIP3      H2            -17.4557328624        1.5865401702        8.6292972422  SOLV      4790            0.0000000000
     14491      4802  TIP3      OH2           -19.5533545537       14.4205450800        4.6530272780  SOLV      4791            0.0000000000
     14492      4802  TIP3      H1            -19.4795468217       15.3843319767        4.4778527690  SOLV      4791            0.0000000000
     14493      4802  TIP3      H2            -18.6277604761       14.1304918304        4.5044578269  SOLV      4791            0.0000000000
     14494      4803  TIP3      OH2           -15.1789195162       18.4800789665       18.5815861866  SOLV      4792            0.0000000000
     14495      4803  TIP3      H1            -15.1736550519       17.5156763369       18.7312074115  SOLV      4792            0.0000000000
     14496      4803  TIP3      H2            -16.0159901683       18.7269816474       19.0309991929  SOLV      4792            0.0000000000
     14497      4804  TIP3      OH2           -24.0392201166       16.2095577620       20.0839817435  SOLV      4793            0.0000000000
     14498      4804  TIP3      H1            -23.8870397820       17.1788122649       20.2020148811  SOLV      4793            0.0000000000
     14499      4804  TIP3      H2            -24.9126959579       16.1361737109       20.4947241962  SOLV      4793            0.0000000000
     14500      4805  TIP3      OH2           -26.5116795179       17.6214404569        9.4212319654  SOLV      4794            0.0000000000
     14501      4805  TIP3      H1            -26.9228130279       17.5778851383        8.5406872145  SOLV      4794            0.0000000000
     14502      4805  TIP3      H2            -26.5948504296       18.5654668981        9.6593872101  SOLV      4794            0.0000000000
     14503      4806  TIP3      OH2           -24.5400096034       16.5820664121        5.8242915673  SOLV      4795            0.0000000000
     14504      4806  TIP3      H1            -23.9376299591       15.8945875513        5.4620768936  SOLV      4795            0.0000000000
     14505      4806  TIP3      H2            -24.1588551742       16.7206912049        6.7169991472  SOLV      4795            0.0000000000
     14506      4807  TIP3      OH2           -23.9643789151       17.1147562403        8.5013389232  SOLV      4796            0.0000000000
     14507      4807  TIP3      H1            -24.8356111644       17.1578245376        8.9499797626  SOLV      4796            0.0000000000
     14508      4807  TIP3      H2            -23.4019105866       16.7498520239        9.2022715378  SOLV      4796            0.0000000000
     14509      4808  TIP3      OH2           -16.3003273287        9.7448079811       21.3450351324  SOLV      4797            0.0000000000
     14510      4808  TIP3      H1            -17.1101702652        9.8328794721       20.8224099286  SOLV      4797            0.0000000000
     14511      4808  TIP3      H2            -16.1212780895        8.7841261489       21.2695497040  SOLV      4797            0.0000000000
     14512      4809  TIP3      OH2           -25.8767845790        2.5185724269       18.9884881497  SOLV      4798            0.0000000000
     14513      4809  TIP3      H1            -26.3764499727        1.6794882887       19.0319420302  SOLV      4798            0.0000000000
     14514      4809  TIP3      H2            -26.4240399156        3.0891314112       19.5615000656  SOLV      4798            0.0000000000
     14515      4810  TIP3      OH2           -20.9202268076        3.2783697777       21.3492391324  SOLV      4799            0.0000000000
     14516      4810  TIP3      H1            -20.2503281183        2.9603763432       21.9857063094  SOLV      4799            0.0000000000
     14517      4810  TIP3      H2            -21.7667756199        3.0549257148       21.7933574001  SOLV      4799            0.0000000000
     14518      4811  TIP3      OH2           -18.6157613988        7.4919041009       20.5204905249  SOLV      4800            0.0000000000
     14519      4811  TIP3      H1            -19.0809596591        7.5175868439       21.3875305495  SOLV      4800            0.0000000000
     14520      4811  TIP3      H2            -18.8084141478        8.3752431323       20.1496868332  SOLV      4800            0.0000000000
     14521      4812  TIP3      OH2           -21.9695601040        8.7319997090        6.0879730603  SOLV      4801            0.0000000000
     14522      4812  TIP3      H1            -22.3281676731        8.5617080232        5.1958842809  SOLV      4801            0.0000000000
     14523      4812  TIP3      H2            -21.1244448442        9.1682207327        5.8605433223  SOLV      4801            0.0000000000
     14524      4813  TIP3      OH2           -24.6822251203        2.4670381074        9.1490192943  SOLV      4802            0.0000000000
     14525      4813  TIP3      H1            -25.0579342385        2.4941064445       10.0509779776  SOLV      4802            0.0000000000
     14526      4813  TIP3      H2            -25.1718093780        1.6961875335        8.7968370181  SOLV      4802            0.0000000000
     14527      4814  TIP3      OH2           -26.7665771615        7.1555255831       19.7030811406  SOLV      4803            0.0000000000
     14528      4814  TIP3      H1            -27.3712914545        7.4153956941       20.4129780837  SOLV      4803            0.0000000000
     14529      4814  TIP3      H2            -26.7965116158        7.9723049597       19.1521925063  SOLV      4803            0.0000000000
     14530      4815  TIP3      OH2           -27.9485892711        6.2079190641       14.6432302450  SOLV      4804            0.0000000000
     14531      4815  TIP3      H1            -28.8525966663        6.2245891751       15.0378029532  SOLV      4804            0.0000000000
     14532      4815  TIP3      H2            -28.0688327777        5.6800788580       13.8272167740  SOLV      4804            0.0000000000
     14533      4816  TIP3      OH2           -23.2396373946        6.9151775886       12.0430134657  SOLV      4805            0.0000000000
     14534      4816  TIP3      H1            -23.7299705162        7.6446238337       11.6011052027  SOLV      4805            0.0000000000
     14535      4816  TIP3      H2            -22.6916461064        6.5771036811       11.3104225462  SOLV      4805            0.0000000000
     14536      4817  TIP3      OH2           -21.5062318737        9.8874112845       23.1961705192  SOLV      4806            0.0000000000
     14537      4817  TIP3      H1            -21.6340623880        8.9921080887       23.5693927625  SOLV      4806            0.0000000000
     14538      4817  TIP3      H2            -20.5332561709        9.9951914371       23.3524490369  SOLV      4806            0.0000000000
     14539      4818  TIP3      OH2           -21.6608036419        7.2087519755       14.3699134648  SOLV      4807            0.0000000000
     14540      4818  TIP3      H1            -22.3097904807        7.4610166551       13.6818326155  SOLV      4807            0.0000000000
     14541      4818  TIP3      H2            -21.3009262394        6.4092341065       13.9335446198  SOLV      4807            0.0000000000
     14542      4819  TIP3      OH2           -28.1388447277        2.3263661457        8.7983192408  SOLV      4808            0.0000000000
     14543      4819  TIP3      H1            -28.3428495882        2.2135017248        9.7492989030  SOLV      4808            0.0000000000
     14544      4819  TIP3      H2            -28.8977129312        2.8596180467        8.5073765871  SOLV      4808            0.0000000000
     14545      4820  TIP3      OH2           -21.5797609659        9.6641127125       18.6052754413  SOLV      4809            0.0000000000
     14546      4820  TIP3      H1            -21.2356780562        8.9641869922       17.9983859097  SOLV      4809            0.0000000000
     14547      4820  TIP3      H2            -21.8339745111        9.1134153390       19.3739259543  SOLV      4809            0.0000000000
     14548      4821  TIP3      OH2           -24.7414233774        4.3233963397       15.3590305596  SOLV      4810            0.0000000000
     14549      4821  TIP3      H1            -25.5403296738        4.3073364082       15.9264150217  SOLV      4810            0.0000000000
     14550      4821  TIP3      H2            -24.0340933913        4.1733917890       16.0121461148  SOLV      4810            0.0000000000
     14551      4822  TIP3      OH2           -27.9063023625        4.8054739689       12.2838060904  SOLV      4811            0.0000000000
     14552      4822  TIP3      H1            -26.9407233626        4.9678490495       12.2076214837  SOLV      4811            0.0000000000
     14553      4822  TIP3      H2            -28.2530230326        5.1400235712       11.4280315478  SOLV      4811            0.0000000000
     14554      4823  TIP3      OH2           -19.9932175104        5.0912851704       17.4132596067  SOLV      4812            0.0000000000
     14555      4823  TIP3      H1            -20.3503769290        5.2198340778       18.3179183682  SOLV      4812            0.0000000000
     14556      4823  TIP3      H2            -20.6561123073        4.4841846130       17.0407093213  SOLV      4812            0.0000000000
     14557      4824  TIP3      OH2           -29.4124740317        5.4504180089       10.1031825683  SOLV      4813            0.0000000000
     14558      4824  TIP3      H1            -30.0133574157        4.8850957625        9.5856978217  SOLV      4813            0.0000000000
     14559      4824  TIP3      H2            -28.8268859780        5.7547107576        9.3726361110  SOLV      4813            0.0000000000
     14560      4825  TIP3      OH2           -18.2226832855       21.9459748413       19.5892678028  SOLV      4814            0.0000000000
     14561      4825  TIP3      H1            -18.2667604130       22.2106634928       18.6518132154  SOLV      4814            0.0000000000
     14562      4825  TIP3      H2            -17.3892329827       22.3741989573       19.8693196267  SOLV      4814            0.0000000000
     14563      4826  TIP3      OH2           -24.0151435263        7.6669041220       16.3454233469  SOLV      4815            0.0000000000
     14564      4826  TIP3      H1            -23.3421389652        7.1553469551       15.8740521310  SOLV      4815            0.0000000000
     14565      4826  TIP3      H2            -24.0137564088        7.2347734419       17.2284587454  SOLV      4815            0.0000000000
     14566      4827  TIP3      OH2           -28.5369365365        2.4999419621       14.8655395872  SOLV      4816            0.0000000000
     14567      4827  TIP3      H1            -28.5936666773        1.7714169457       15.5258733935  SOLV      4816            0.0000000000
     14568      4827  TIP3      H2            -28.0284156181        2.0647821428       14.1671791028  SOLV      4816            0.0000000000
     14569      4828  TIP3      OH2           -24.1612338369        6.7017058783       18.9750223327  SOLV      4817            0.0000000000
     14570      4828  TIP3      H1            -25.0796069425        6.8417435105       19.2866244185  SOLV      4817            0.0000000000
     14571      4828  TIP3      H2            -23.6341948357        7.2015264396       19.6259936758  SOLV      4817            0.0000000000
     14572      4829  TIP3      OH2           -26.7600728451       10.4677192469       10.2369003605  SOLV      4818            0.0000000000
     14573      4829  TIP3      H1            -27.4907854069        9.8109673049       10.1585276776  SOLV      4818            0.0000000000
     14574      4829  TIP3      H2            -26.9377643619       10.8510773361       11.1305435906  SOLV      4818            0.0000000000
     14575      4830  TIP3      OH2           -17.9330482708       12.8481363181       16.4003856040  SOLV      4819            0.0000000000
     14576      4830  TIP3      H1            -17.6618085877       13.3448038271       15.5964613837  SOLV      4819            0.0000000000
     14577      4830  TIP3      H2            -18.7760490386       12.4356501228       16.1179223375  SOLV      4819            0.0000000000
     14578      4831  TIP3      OH2           -22.3999274215        3.7140361181        8.3390034873  SOLV      4820            0.0000000000
     14579      4831  TIP3      H1            -23.2770560971        3.4042154581        8.6661529032  SOLV      4820            0.0000000000
     14580      4831  TIP3      H2            -22.2517663027        4.5364690467        8.8458062821  SOLV      4820            0.0000000000
     14581      4832  TIP3      OH2           -23.0788890988       13.6220770801       20.1334994933  SOLV      4821            0.0000000000
     14582      4832  TIP3      H1            -22.8715321483       13.4944797456       21.0626987985  SOLV      4821            0.0000000000
     14583      4832  TIP3      H2            -23.3408674198       14.5646081887       20.1082100946  SOLV      4821            0.0000000000
     14584      4833  TIP3      OH2           -21.6718279477        5.9845716955        9.8255351252  SOLV      4822            0.0000000000
     14585      4833  TIP3      H1            -20.7116359494        6.0849106585        9.9815625260  SOLV      4822            0.0000000000
     14586      4833  TIP3      H2            -21.8852354319        6.7970454762        9.3235230566  SOLV      4822            0.0000000000
     14587      4834  TIP3      OH2           -25.4586458582       11.9893575080        8.4050294287  SOLV      4823            0.0000000000
     14588      4834  TIP3      H1            -25.9823267233       12.8192466468        8.4745382704  SOLV      4823            0.0000000000
     14589      4834  TIP3      H2            -25.9426491673       11.4010234067        9.0252311180  SOLV      4823            0.0000000000
     14590      4835  TIP3      OH2           -23.9407433482       11.0414333782       23.1318566929  SOLV      4824            0.0000000000
     14591      4835  TIP3      H1            -24.5089582275       10.4545887056       22.6006567908  SOLV      4824            0.0000000000
     14592      4835  TIP3      H2            -23.0675198365       10.6283401841       22.9690111057  SOLV      4824            0.0000000000
     14593      4836  TIP3      OH2           -21.3188165881       16.2551354850       19.1043004966  SOLV      4825            0.0000000000
     14594      4836  TIP3      H1            -22.2694235648       16.2358865740       19.2864522661  SOLV      4825            0.0000000000
     14595      4836  TIP3      H2            -21.0003524627       16.7954721844       19.8582902768  SOLV      4825            0.0000000000
     14596      4837  TIP3      OH2           -17.2453133403        7.0227291876        8.1791897640  SOLV      4826            0.0000000000
     14597      4837  TIP3      H1            -17.8630801795        6.5724207046        7.5542971674  SOLV      4826            0.0000000000
     14598      4837  TIP3      H2            -17.2838233410        7.9146636289        7.7663135003  SOLV      4826            0.0000000000
     14599      4838  TIP3      OH2           -15.0358519655       15.6091209228       18.9752569599  SOLV      4827            0.0000000000
     14600      4838  TIP3      H1            -16.0085997760       15.5096064425       18.8817813877  SOLV      4827            0.0000000000
     14601      4838  TIP3      H2            -14.7516355574       15.3073261590       18.0817792739  SOLV      4827            0.0000000000
     14602      4839  TIP3      OH2           -20.2090995571       15.1878487833        7.2793828523  SOLV      4828            0.0000000000
     14603      4839  TIP3      H1            -20.4793931580       14.4678825150        7.8635813103  SOLV      4828            0.0000000000
     14604      4839  TIP3      H2            -20.0630173685       14.7382235671        6.4261784604  SOLV      4828            0.0000000000
     14605      4840  TIP3      OH2           -20.2921454306       11.4950416353       15.5630782787  SOLV      4829            0.0000000000
     14606      4840  TIP3      H1            -21.2187168274       11.2204210552       15.6981702126  SOLV      4829            0.0000000000
     14607      4840  TIP3      H2            -19.9305016388       10.6902876140       15.1366784595  SOLV      4829            0.0000000000
     14608      4841  TIP3      OH2           -27.3301010780       11.6195810191       12.6248252832  SOLV      4830            0.0000000000
     14609      4841  TIP3      H1            -27.6912390525       12.5128201057       12.6429232581  SOLV      4830            0.0000000000
     14610      4841  TIP3      H2            -27.8622565312       11.1545423387       13.2980091825  SOLV      4830            0.0000000000
     14611      4842  TIP3      OH2           -25.7644485054       17.1621983676       17.9950034230  SOLV      4831            0.0000000000
     14612      4842  TIP3      H1            -25.2916538484       17.5791781373       17.2549290574  SOLV      4831            0.0000000000
     14613      4842  TIP3      H2            -25.1145908563       16.5527611515       18.3414270308  SOLV      4831            0.0000000000
     14614      4843  TIP3      OH2           -22.3790289408       13.5678520946       17.4688364271  SOLV      4832            0.0000000000
     14615      4843  TIP3      H1            -22.4593977729       13.4784122948       18.4436653432  SOLV      4832            0.0000000000
     14616      4843  TIP3      H2            -21.6157803972       13.0016113351       17.2825574449  SOLV      4832            0.0000000000
     14617      4844  TIP3      OH2           -22.6092440199       12.5054103483        6.2982832939  SOLV      4833            0.0000000000
     14618      4844  TIP3      H1            -22.0939150366       12.2471816013        7.0968309625  SOLV      4833            0.0000000000
     14619      4844  TIP3      H2            -23.4884237336       12.1667610161        6.5275026428  SOLV      4833            0.0000000000
     14620      4845  TIP3      OH2           -19.9298830299       18.8718433893       17.9452027187  SOLV      4834            0.0000000000
     14621      4845  TIP3      H1            -20.7409626908       18.3376897701       17.8514862472  SOLV      4834            0.0000000000
     14622      4845  TIP3      H2            -20.0377005030       19.5000964279       17.1959117681  SOLV      4834            0.0000000000
     14623      4846  TIP3      OH2           -19.2636258387       17.1727557873        4.4476697467  SOLV      4835            0.0000000000
     14624      4846  TIP3      H1            -18.9023079719       17.9008570496        3.9164348220  SOLV      4835            0.0000000000
     14625      4846  TIP3      H2            -20.0575671526       17.6229447012        4.8078093901  SOLV      4835            0.0000000000
     14626      4847  TIP3      OH2           -21.0107373658       11.8015263920        8.4392927615  SOLV      4836            0.0000000000
     14627      4847  TIP3      H1            -21.1084335993       11.1255484368        9.1394516191  SOLV      4836            0.0000000000
     14628      4847  TIP3      H2            -20.0410510630       11.7684729480        8.3011876505  SOLV      4836            0.0000000000
     14629      4848  TIP3      OH2           -28.8324776167       11.9980565396        6.2053112095  SOLV      4837            0.0000000000
     14630      4848  TIP3      H1            -28.7594602777       11.0833677697        5.8486322799  SOLV      4837            0.0000000000
     14631      4848  TIP3      H2            -28.8123600956       11.8110346450        7.1689270338  SOLV      4837            0.0000000000
     14632      4849  TIP3      OH2           -29.0357080895       11.9041405320        8.9311530064  SOLV      4838            0.0000000000
     14633      4849  TIP3      H1            -28.2081270224       12.0763155751        9.3880449998  SOLV      4838            0.0000000000
     14634      4849  TIP3      H2            -29.5045623731       12.7614386122        9.0240281503  SOLV      4838            0.0000000000
     14635      4850  TIP3      OH2           -20.7395677389        5.6915447658       20.0189886582  SOLV      4839            0.0000000000
     14636      4850  TIP3      H1            -19.8723219931        6.0382522889       20.2956077839  SOLV      4839            0.0000000000
     14637      4850  TIP3      H2            -20.8098114939        4.8566384513       20.5350617544  SOLV      4839            0.0000000000
     14638      4851  TIP3      OH2           -21.8234311666        3.1165537157       11.6573131421  SOLV      4840            0.0000000000
     14639      4851  TIP3      H1            -22.0072067732        3.4568411409       10.7708719053  SOLV      4840            0.0000000000
     14640      4851  TIP3      H2            -21.3928740796        3.8949133720       12.0775898149  SOLV      4840            0.0000000000
     14641      4852  TIP3      OH2           -26.9805515717       14.2436422328        8.5839223807  SOLV      4841            0.0000000000
     14642      4852  TIP3      H1            -27.5062075254       14.7782733085        9.1881116139  SOLV      4841            0.0000000000
     14643      4852  TIP3      H2            -26.8269369632       14.8606113136        7.8527915903  SOLV      4841            0.0000000000
     14644      4853  TIP3      OH2           -25.1068529119        4.9582918449       12.6802573587  SOLV      4842            0.0000000000
     14645      4853  TIP3      H1            -24.4472387543        5.6609047163       12.4918067157  SOLV      4842            0.0000000000
     14646      4853  TIP3      H2            -24.9932815606        4.8537165387       13.6508575530  SOLV      4842            0.0000000000
     14647      4854  TIP3      OH2           -22.2563751925        7.9897094738       20.6791735354  SOLV      4843            0.0000000000
     14648      4854  TIP3      H1            -22.0042403651        8.2536135882       21.5724807455  SOLV      4843            0.0000000000
     14649      4854  TIP3      H2            -21.7467103899        7.1574950575       20.5598247095  SOLV      4843            0.0000000000
     14650      4855  TIP3      OH2           -23.5424446192        2.1249026230       13.6433064809  SOLV      4844            0.0000000000
     14651      4855  TIP3      H1            -23.6011972274        2.8941796350       14.2377985408  SOLV      4844            0.0000000000
     14652      4855  TIP3      H2            -22.9163967465        2.4613457426       12.9636206403  SOLV      4844            0.0000000000
     14653      4856  TIP3      OH2           -28.3754446581        2.1590253622       11.5576248452  SOLV      4845            0.0000000000
     14654      4856  TIP3      H1            -28.3419833848        3.0749219387       11.8898563062  SOLV      4845            0.0000000000
     14655      4856  TIP3      H2            -27.4203574581        1.9428090944       11.5854201942  SOLV      4845            0.0000000000
     14656      4857  TIP3      OH2           -15.9396899523        7.0901608386       20.5598223342  SOLV      4846            0.0000000000
     14657      4857  TIP3      H1            -16.9217749988        7.0611638974       20.5911751074  SOLV      4846            0.0000000000
     14658      4857  TIP3      H2            -15.7844763048        6.6591218082       19.7083556172  SOLV      4846            0.0000000000
     14659      4858  TIP3      OH2           -19.4295061098        9.0560188156       14.3908956166  SOLV      4847            0.0000000000
     14660      4858  TIP3      H1            -20.1852571283        8.4523718107       14.5067010411  SOLV      4847            0.0000000000
     14661      4858  TIP3      H2            -18.7176979097        8.5867116658       14.8798454024  SOLV      4847            0.0000000000
     14662      4859  TIP3      OH2           -19.6930567913       18.6143526391       13.8579244811  SOLV      4848            0.0000000000
     14663      4859  TIP3      H1            -20.1084211473       19.0958360905       13.1053793294  SOLV      4848            0.0000000000
     14664      4859  TIP3      H2            -18.7452827871       18.8067533120       13.6704557126  SOLV      4848            0.0000000000
     14665      4860  TIP3      OH2           -29.7499908626        1.0688940417       19.3441486873  SOLV      4849            0.0000000000
     14666      4860  TIP3      H1            -29.5430049499        1.1124380976       18.3931480863  SOLV      4849            0.0000000000
     14667      4860  TIP3      H2            -28.8877151684        0.7928644367       19.6777574067  SOLV      4849            0.0000000000
     14668      4861  TIP3      OH2           -27.2959791358       14.2169006954        5.5632142255  SOLV      4850            0.0000000000
     14669      4861  TIP3      H1            -27.8393888222       13.4421042738        5.8355929435  SOLV      4850            0.0000000000
     14670      4861  TIP3      H2            -26.5108966308       13.7600281654        5.2098873341  SOLV      4850            0.0000000000
     14671      4862  TIP3      OH2           -20.7423458744       17.5495261677       21.4631454957  SOLV      4851            0.0000000000
     14672      4862  TIP3      H1            -20.6104383466       16.7866223560       22.0725396655  SOLV      4851            0.0000000000
     14673      4862  TIP3      H2            -19.9703598688       18.1105317802       21.6764520764  SOLV      4851            0.0000000000
     14674      4863  TIP3      OH2           -23.0307420139       14.6689256837        4.5256453719  SOLV      4852            0.0000000000
     14675      4863  TIP3      H1            -22.6039952690       14.0246246780        5.1240098203  SOLV      4852            0.0000000000
     14676      4863  TIP3      H2            -22.4567439693       14.6416855147        3.7354179565  SOLV      4852            0.0000000000
     14677      4864  TIP3      OH2           -24.3101157144       13.7497254649       23.1957363088  SOLV      4853            0.0000000000
     14678      4864  TIP3      H1            -25.0720689330       13.7666840511       22.6116820571  SOLV      4853            0.0000000000
     14679      4864  TIP3      H2            -24.1848847103       12.7772469298       23.3008085146  SOLV      4853            0.0000000000
     14680      4865  TIP3      OH2           -25.5751140324       11.4405855390        5.7198142637  SOLV      4854            0.0000000000
     14681      4865  TIP3      H1            -25.6460871785       11.5533669648        6.6893181167  SOLV      4854            0.0000000000
     14682      4865  TIP3      H2            -25.6674588501       10.4655632203        5.6424888913  SOLV      4854            0.0000000000
     14683      4866  TIP3      OH2           -19.6957905536       14.0136445656       19.5006105524  SOLV      4855            0.0000000000
     14684      4866  TIP3      H1            -18.9032696615       14.3657611156       19.0477647534  SOLV      4855            0.0000000000
     14685      4866  TIP3      H2            -20.3412930882       14.7157259302       19.2926368038  SOLV      4855            0.0000000000
     14686      4867  TIP3      OH2           -28.5851432716        8.4308427764        9.9527922325  SOLV      4856            0.0000000000
     14687      4867  TIP3      H1            -29.1019755368        7.8023754955       10.4649351629  SOLV      4856            0.0000000000
     14688      4867  TIP3      H2            -28.2675987420        7.8595392531        9.2245168571  SOLV      4856            0.0000000000
     14689      4868  TIP3      OH2           -26.0854244538        9.0728812791       22.1312890592  SOLV      4857            0.0000000000
     14690      4868  TIP3      H1            -26.7500660342        9.7247196101       22.3855057962  SOLV      4857            0.0000000000
     14691      4868  TIP3      H2            -25.6930541109        9.4530887365       21.3152582003  SOLV      4857            0.0000000000
     14692      4869  TIP3      OH2           -27.7640454881        6.4833955702        8.1905655516  SOLV      4858            0.0000000000
     14693      4869  TIP3      H1            -28.0460055800        6.4893947773        7.2507713411  SOLV      4858            0.0000000000
     14694      4869  TIP3      H2            -26.7895170247        6.5291371988        8.0925177285  SOLV      4858            0.0000000000
     14695      4870  TIP3      OH2           -20.7223594800       12.9009706769       24.1690455617  SOLV      4859            0.0000000000
     14696      4870  TIP3      H1            -19.7751044858       13.1054407967       23.6194475370  SOLV      4859            0.0000000000
     14697      4870  TIP3      H2            -21.1119699420       12.1162209500       23.4698562383  SOLV      4859            0.0000000000
     14698      4871  TIP3      OH2           -19.6420883953        9.7068642867        4.9271094159  SOLV      4860            0.0000000000
     14699      4871  TIP3      H1            -19.8264602637        9.2809742842        4.0670401813  SOLV      4860            0.0000000000
     14700      4871  TIP3      H2            -19.9537672150       10.6184438083        4.7152327881  SOLV      4860            0.0000000000
     14701      4872  TIP3      OH2           -24.7836225431        6.9716583349       23.2579948057  SOLV      4861            0.0000000000
     14702      4872  TIP3      H1            -24.8403156066        6.1557301093       22.7146099061  SOLV      4861            0.0000000000
     14703      4872  TIP3      H2            -25.3238054631        7.5897997319       22.7188809342  SOLV      4861            0.0000000000
     14704      4873  TIP3      OH2           -24.8720166463        4.9080225528       21.3310752218  SOLV      4862            0.0000000000
     14705      4873  TIP3      H1            -24.5541667574        5.1624558100       20.4511581257  SOLV      4862            0.0000000000
     14706      4873  TIP3      H2            -25.7940031669        4.6337560447       21.1269585523  SOLV      4862            0.0000000000
     14707      4874  TIP3      OH2           -24.6151291427       10.4074567775       20.2836673097  SOLV      4863            0.0000000000
     14708      4874  TIP3      H1            -23.7873672133       10.2656243757       19.8095857924  SOLV      4863            0.0000000000
     14709      4874  TIP3      H2            -25.0497829275       11.0944832669       19.7463965985  SOLV      4863            0.0000000000
     14710      4875  TIP3      OH2           -18.7015222705        9.8944513411       23.9790501267  SOLV      4864            0.0000000000
     14711      4875  TIP3      H1            -18.2056559132        9.0825487684       24.0761779216  SOLV      4864            0.0000000000
     14712      4875  TIP3      H2            -18.0450917853       10.4741914518       23.5681553266  SOLV      4864            0.0000000000
     14713      4876  TIP3      OH2           -18.3930687747       12.4346075029       21.2694317507  SOLV      4865            0.0000000000
     14714      4876  TIP3      H1            -18.9583327683       13.0205050954       20.7173335022  SOLV      4865            0.0000000000
     14715      4876  TIP3      H2            -17.5079523650       12.6659811612       20.9048033156  SOLV      4865            0.0000000000
     14716      4877  TIP3      OH2           -25.6128982520        8.5382676684       25.5133653681  SOLV      4866            0.0000000000
     14717      4877  TIP3      H1            -26.3144221607        7.8973396095       25.8048661834  SOLV      4866            0.0000000000
     14718      4877  TIP3      H2            -25.3626813184        8.1138597547       24.6688283728  SOLV      4866            0.0000000000
     14719      4878  TIP3      OH2           -23.5009676007        2.6250580681       22.1669491543  SOLV      4867            0.0000000000
     14720      4878  TIP3      H1            -24.0230976150        3.4088486058       21.8936850285  SOLV      4867            0.0000000000
     14721      4878  TIP3      H2            -24.1611350419        1.9093906989       22.0212683319  SOLV      4867            0.0000000000
     14722      4879  TIP3      OH2           -22.3546633816        7.6028184613       24.2889442337  SOLV      4868            0.0000000000
     14723      4879  TIP3      H1            -22.5419284951        7.3376279356       25.2124456858  SOLV      4868            0.0000000000
     14724      4879  TIP3      H2            -23.2049431912        7.3340358003       23.8758412703  SOLV      4868            0.0000000000
     14725      4880  TIP3      OH2           -19.8879841737        7.1878072874       22.8867491334  SOLV      4869            0.0000000000
     14726      4880  TIP3      H1            -20.6222748487        7.1481563235       23.5262703102  SOLV      4869            0.0000000000
     14727      4880  TIP3      H2            -19.1302139153        6.8926141436       23.4350116696  SOLV      4869            0.0000000000
     14728      4881  TIP3      OH2           -17.6187469335        6.5092347976       24.3734359926  SOLV      4870            0.0000000000
     14729      4881  TIP3      H1            -17.5058663508        5.5427365902       24.4958774223  SOLV      4870            0.0000000000
     14730      4881  TIP3      H2            -17.6552454998        6.8354382748       25.2938042482  SOLV      4870            0.0000000000
     14731      4882  TIP3      OH2           -22.6929805893        2.5174959732       24.7760727368  SOLV      4871            0.0000000000
     14732      4882  TIP3      H1            -21.9883192030        1.8554018299       24.6297329205  SOLV      4871            0.0000000000
     14733      4882  TIP3      H2            -23.0630093528        2.5711284177       23.8681844669  SOLV      4871            0.0000000000
     14734      4883  TIP3      OH2           -21.8798562125        4.7373970403       26.1731989014  SOLV      4872            0.0000000000
     14735      4883  TIP3      H1            -22.1805200009        4.0131406170       25.5833491104  SOLV      4872            0.0000000000
     14736      4883  TIP3      H2            -22.6609291238        5.3301082928       26.1865256763  SOLV      4872            0.0000000000
     14737      4884  TIP3      OH2           -17.1343365183       19.4718206711       13.4956338926  SOLV      4873            0.0000000000
     14738      4884  TIP3      H1            -16.8613969420       19.8449184381       14.3517039651  SOLV      4873            0.0000000000
     14739      4884  TIP3      H2            -16.4974446539       19.8726491092       12.8841185483  SOLV      4873            0.0000000000
     14740      4885  TIP3      OH2           -16.8964856441       19.7047485186       16.3441824469  SOLV      4874            0.0000000000
     14741      4885  TIP3      H1            -17.3082835787       18.8177626348       16.2746912411  SOLV      4874            0.0000000000
     14742      4885  TIP3      H2            -16.1076789992       19.4778031950       16.8618043079  SOLV      4874            0.0000000000
     14743      4886  TIP3      OH2           -16.4002923104       16.4694761135       22.0175368495  SOLV      4875            0.0000000000
     14744      4886  TIP3      H1            -17.0928786058       16.5896672317       22.6931932848  SOLV      4875            0.0000000000
     14745      4886  TIP3      H2            -15.9300280307       17.3261816203       22.0560552864  SOLV      4875            0.0000000000
     14746      4887  TIP3      OH2           -18.2211594677       11.5877778419        8.1932873603  SOLV      4876            0.0000000000
     14747      4887  TIP3      H1            -17.5675570975       12.2528548675        7.8958549334  SOLV      4876            0.0000000000
     14748      4887  TIP3      H2            -17.7669365606       11.2123676953        8.9791851491  SOLV      4876            0.0000000000
     14749      4888  TIP3      OH2           -16.9459945636       10.2586792756       10.2432319139  SOLV      4877            0.0000000000
     14750      4888  TIP3      H1            -17.6147125327        9.8619798293       10.8428985419  SOLV      4877            0.0000000000
     14751      4888  TIP3      H2            -16.2930907475       10.6393129458       10.8682782928  SOLV      4877            0.0000000000
     14752      4889  TIP3      OH2           -16.4096077098       14.2137388766       14.5500113874  SOLV      4878            0.0000000000
     14753      4889  TIP3      H1            -15.8501721905       13.5501576767       14.1010301171  SOLV      4878            0.0000000000
     14754      4889  TIP3      H2            -16.4042131937       14.9541300155       13.9109564880  SOLV      4878            0.0000000000
     14755      4890  TIP3      OH2           -18.1367297504       17.1873810165       16.5109460046  SOLV      4879            0.0000000000
     14756      4890  TIP3      H1            -18.8615981677       17.6154180285       17.0001652080  SOLV      4879            0.0000000000
     14757      4890  TIP3      H2            -18.6147355064       16.7302739162       15.7866235192  SOLV      4879            0.0000000000
     14758      4891  TIP3      OH2           -17.5883931924        9.3576586512        6.6960271909  SOLV      4880            0.0000000000
     14759      4891  TIP3      H1            -18.3139387562        9.3789481890        6.0298102183  SOLV      4880            0.0000000000
     14760      4891  TIP3      H2            -17.8530038262       10.1269165870        7.2416049359  SOLV      4880            0.0000000000
     14761      4892  TIP3      OH2           -18.8941892868        6.0592864910        6.2533248945  SOLV      4881            0.0000000000
     14762      4892  TIP3      H1            -19.2945534848        6.4504047632        5.4688598538  SOLV      4881            0.0000000000
     14763      4892  TIP3      H2            -19.1578850357        5.1195151226        6.1525919503  SOLV      4881            0.0000000000
     14764      4893  TIP3      OH2           -18.8543412514        8.8742069870       11.6943247966  SOLV      4882            0.0000000000
     14765      4893  TIP3      H1            -18.7695945213        7.9091334873       11.6370465354  SOLV      4882            0.0000000000
     14766      4893  TIP3      H2            -19.0099984598        9.0142664356       12.6541315817  SOLV      4882            0.0000000000
     14767      4894  TIP3      OH2           -15.9303342721       13.1129284116       20.3029848214  SOLV      4883            0.0000000000
     14768      4894  TIP3      H1            -15.2342586654       12.4256243642       20.1947653462  SOLV      4883            0.0000000000
     14769      4894  TIP3      H2            -15.6472238015       13.7890148576       19.6696096222  SOLV      4883            0.0000000000
     14770      4895  TIP3      OH2           -14.1525610098       11.0921593322       20.3999102028  SOLV      4884            0.0000000000
     14771      4895  TIP3      H1            -14.8970438314       10.5810477486       20.7823670950  SOLV      4884            0.0000000000
     14772      4895  TIP3      H2            -13.4135507879       10.4637005631       20.5448253494  SOLV      4884            0.0000000000
     14773      4896  TIP3      OH2           -19.4504088869        3.3662441610        6.1799624205  SOLV      4885            0.0000000000
     14774      4896  TIP3      H1            -18.6223684632        3.1595585259        6.6598663937  SOLV      4885            0.0000000000
     14775      4896  TIP3      H2            -20.0808158764        2.7250802527        6.5443542282  SOLV      4885            0.0000000000
     14776      4897  TIP3      OH2           -18.8724233933        6.0215953836       10.5925858889  SOLV      4886            0.0000000000
     14777      4897  TIP3      H1            -18.4362613983        5.1491332183       10.7367702164  SOLV      4886            0.0000000000
     14778      4897  TIP3      H2            -18.3015772224        6.3814253989        9.8898289157  SOLV      4886            0.0000000000
     14779      4898  TIP3      OH2           -17.3026889969        7.7462700995       15.5714369361  SOLV      4887            0.0000000000
     14780      4898  TIP3      H1            -16.4495502224        7.9995619152       15.1482462063  SOLV      4887            0.0000000000
     14781      4898  TIP3      H2            -17.1298946726        8.0889926709       16.4691030371  SOLV      4887            0.0000000000
     14782      4899  TIP3      OH2           -16.5210379621        9.1640786720       17.8924673385  SOLV      4888            0.0000000000
     14783      4899  TIP3      H1            -17.2858891567        9.5106160985       18.3866855955  SOLV      4888            0.0000000000
     14784      4899  TIP3      H2            -16.1963810457        9.9747582867       17.4384808769  SOLV      4888            0.0000000000
     14785      4900  TIP3      OH2           -12.0434565622        5.1340874834       23.4454601556  SOLV      4889            0.0000000000
     14786      4900  TIP3      H1            -11.4502199765        4.4869714179       23.0046362416  SOLV      4889            0.0000000000
     14787      4900  TIP3      H2            -12.3573811753        5.6615452039       22.6782269907  SOLV      4889            0.0000000000
     14788      4901  TIP3      OH2           -17.7510075770        3.5137397490       11.0023256850  SOLV      4890            0.0000000000
     14789      4901  TIP3      H1            -17.2988054158        3.3598905318       11.8602740576  SOLV      4890            0.0000000000
     14790      4901  TIP3      H2            -18.3877459456        2.7683492637       11.0002054469  SOLV      4890            0.0000000000
     14791      4902  TIP3      OH2           -13.3789385674        6.4567628586       21.4828047057  SOLV      4891            0.0000000000
     14792      4902  TIP3      H1            -14.2589397582        6.8712649829       21.5761142886  SOLV      4891            0.0000000000
     14793      4902  TIP3      H2            -13.6293570034        5.6738366468       20.9495765541  SOLV      4891            0.0000000000
     14794      4903  TIP3      OH2           -16.9895964803        2.8313609828        7.3456965192  SOLV      4892            0.0000000000
     14795      4903  TIP3      H1            -16.5965468714        2.1160672290        6.8105769350  SOLV      4892            0.0000000000
     14796      4903  TIP3      H2            -16.3121020128        3.5312748597        7.3037830174  SOLV      4892            0.0000000000
     14797      4904  TIP3      OH2           -21.3161488075       18.1891835440       10.0198363746  SOLV      4893            0.0000000000
     14798      4904  TIP3      H1            -20.7960901985       18.0768001788        9.1972007519  SOLV      4893            0.0000000000
     14799      4904  TIP3      H2            -20.8112490355       18.8823122162       10.4757805593  SOLV      4893            0.0000000000
     14800      4905  TIP3      OH2           -23.7786248338       18.8648895443       20.4822625959  SOLV      4894            0.0000000000
     14801      4905  TIP3      H1            -23.3740823058       18.8435039356       21.3818107544  SOLV      4894            0.0000000000
     14802      4905  TIP3      H2            -23.2043489457       19.5203472016       20.0376271914  SOLV      4894            0.0000000000
     14803      4906  TIP3      OH2           -22.1829935466       20.6483726780       19.1778225942  SOLV      4895            0.0000000000
     14804      4906  TIP3      H1            -21.4429871627       20.1678188928       18.7778690204  SOLV      4895            0.0000000000
     14805      4906  TIP3      H2            -21.7065277292       21.1903458099       19.8500595276  SOLV      4895            0.0000000000
     14806      4907  TIP3      OH2           -14.4046683296        4.0926918861       20.4408635761  SOLV      4896            0.0000000000
     14807      4907  TIP3      H1            -15.2049843888        4.1130333487       19.8928131034  SOLV      4896            0.0000000000
     14808      4907  TIP3      H2            -14.0112618931        3.2319621054       20.1773014420  SOLV      4896            0.0000000000
     14809      4908  TIP3      OH2           -25.0920557212       19.2691836189       16.1324055516  SOLV      4897            0.0000000000
     14810      4908  TIP3      H1            -25.3376005645       19.4036040446       15.2045355693  SOLV      4897            0.0000000000
     14811      4908  TIP3      H2            -25.0055753758       20.1912753944       16.4456750431  SOLV      4897            0.0000000000
     14812      4909  TIP3      OH2           -22.4536004231       18.5391325525       16.7180596475  SOLV      4898            0.0000000000
     14813      4909  TIP3      H1            -23.3730270937       18.7870076089       16.5089724293  SOLV      4898            0.0000000000
     14814      4909  TIP3      H2            -21.9570784946       19.2121369063       16.2156669962  SOLV      4898            0.0000000000
     14815      4910  TIP3      OH2           -20.5099508783       20.4191916015       15.7679847479  SOLV      4899            0.0000000000
     14816      4910  TIP3      H1            -20.6080913040       21.2895836161       15.3191912185  SOLV      4899            0.0000000000
     14817      4910  TIP3      H2            -20.1933937456       19.8597716413       15.0247843985  SOLV      4899            0.0000000000
     14818      4911  TIP3      OH2           -22.3083202590        3.2591003991       16.5005015057  SOLV      4900            0.0000000000
     14819      4911  TIP3      H1            -22.7161133774        2.5482354837       17.0448166705  SOLV      4900            0.0000000000
     14820      4911  TIP3      H2            -21.5725002991        2.7858599106       16.0742087904  SOLV      4900            0.0000000000
     14821      4912  TIP3      OH2           -17.0934193489        2.0529403518       15.5265057211  SOLV      4901            0.0000000000
     14822      4912  TIP3      H1            -16.7678364180        2.5945981874       14.7673623365  SOLV      4901            0.0000000000
     14823      4912  TIP3      H2            -18.0503147174        2.2470668868       15.4908560554  SOLV      4901            0.0000000000
     14824      4913  TIP3      OH2           -16.1922084090        3.1486553349       13.2506626706  SOLV      4902            0.0000000000
     14825      4913  TIP3      H1            -15.4850334518        2.5364731453       12.9367566899  SOLV      4902            0.0000000000
     14826      4913  TIP3      H2            -15.7737874791        4.0201478936       13.0530177565  SOLV      4902            0.0000000000
     14827      4914  TIP3      OH2           -28.9985329504        0.6003250571       16.6937099606  SOLV      4903            0.0000000000
     14828      4914  TIP3      H1            -29.8529222247        0.2407814381       16.3701924849  SOLV      4903            0.0000000000
     14829      4914  TIP3      H2            -28.4945851084       -0.2180304806       16.8650682519  SOLV      4903            0.0000000000
     14830      4915  TIP3      OH2           -25.4340556131        0.7076153445       15.4216243949  SOLV      4904            0.0000000000
     14831      4915  TIP3      H1            -24.7474800659        1.1956315650       14.9406961000  SOLV      4904            0.0000000000
     14832      4915  TIP3      H2            -25.2896519166        0.9906491133       16.3333625382  SOLV      4904            0.0000000000
     14833      4916  TIP3      OH2           -19.9179645812        2.1604903681       15.3090991788  SOLV      4905            0.0000000000
     14834      4916  TIP3      H1            -19.9291808923        1.7313095077       14.4474071606  SOLV      4905            0.0000000000
     14835      4916  TIP3      H2            -20.0286529890        1.3824249972       15.9113270244  SOLV      4905            0.0000000000
     14836      4917  TIP3      OH2           -19.6050251440        1.4330152579       10.9634905697  SOLV      4906            0.0000000000
     14837      4917  TIP3      H1            -20.4579520960        1.8598009633       11.1680251425  SOLV      4906            0.0000000000
     14838      4917  TIP3      H2            -19.7452539325        0.5526722625       11.3781463562  SOLV      4906            0.0000000000
     14839      4918  TIP3      OH2           -30.5352214221        0.0918640229       11.2067132121  SOLV      4907            0.0000000000
     14840      4918  TIP3      H1            -30.3607242331        0.0319879558       10.2564022789  SOLV      4907            0.0000000000
     14841      4918  TIP3      H2            -29.9671322888        0.8349045091       11.4623514858  SOLV      4907            0.0000000000
     14842      4919  TIP3      OH2           -25.6248906533        2.4311354194       11.7622393158  SOLV      4908            0.0000000000
     14843      4919  TIP3      H1            -25.0544292501        1.9604007821       12.3948593556  SOLV      4908            0.0000000000
     14844      4919  TIP3      H2            -25.4398245534        3.3574549568       12.0291921829  SOLV      4908            0.0000000000
     14845      4920  TIP3      OH2           -27.1742402565       16.7464661906        6.6760242330  SOLV      4909            0.0000000000
     14846      4920  TIP3      H1            -26.2569672371       16.8631986508        6.3457651379  SOLV      4909            0.0000000000
     14847      4920  TIP3      H2            -27.3972617561       15.9109561740        6.2118672266  SOLV      4909            0.0000000000
     14848      4921  TIP3      OH2           -19.8489590306       17.8556076227        7.7045707068  SOLV      4910            0.0000000000
     14849      4921  TIP3      H1            -19.9334317490       16.8802634073        7.5803052124  SOLV      4910            0.0000000000
     14850      4921  TIP3      H2            -20.3038479414       18.1791531584        6.9004582869  SOLV      4910            0.0000000000
     14851      4922  TIP3      OH2           -27.7156062120        2.9567512783       25.9292326155  SOLV      4911            0.0000000000
     14852      4922  TIP3      H1            -27.7935981774        2.0103487441       26.0852029594  SOLV      4911            0.0000000000
     14853      4922  TIP3      H2            -26.7478967843        3.1062166179       26.0541130862  SOLV      4911            0.0000000000
     14854      4923  TIP3      OH2           -25.0909702382        3.1240089952       26.6098468120  SOLV      4912            0.0000000000
     14855      4923  TIP3      H1            -24.3320667515        2.8121521244       26.0948119841  SOLV      4912            0.0000000000
     14856      4923  TIP3      H2            -24.8607808156        2.8092733304       27.5135649860  SOLV      4912            0.0000000000
     14857      4924  TIP3      OH2           -16.9665769998        3.7970098354       24.6149416176  SOLV      4913            0.0000000000
     14858      4924  TIP3      H1            -16.7440783833        3.4997281834       25.5222400460  SOLV      4913            0.0000000000
     14859      4924  TIP3      H2            -16.0840379946        3.7672342822       24.1848151606  SOLV      4913            0.0000000000
     14860      4925  TIP3      OH2           -17.6691667153       19.2495711479       19.5786280590  SOLV      4914            0.0000000000
     14861      4925  TIP3      H1            -18.4305449881       18.9686488953       19.0310334489  SOLV      4914            0.0000000000
     14862      4925  TIP3      H2            -17.8284263403       20.2154081235       19.6092749269  SOLV      4914            0.0000000000
     14863      4926  TIP3      OH2            -4.9386989472       13.0096061648        7.1701114246  SOLV      4915            0.0000000000
     14864      4926  TIP3      H1             -5.2521663059       13.9151724497        6.9632904793  SOLV      4915            0.0000000000
     14865      4926  TIP3      H2             -5.6936080524       12.4916864422        6.8421390940  SOLV      4915            0.0000000000
     14866      4927  TIP3      OH2            -4.9464002801       13.0403803941       11.1171569818  SOLV      4916            0.0000000000
     14867      4927  TIP3      H1             -4.5764252154       12.8119219698       11.9921588972  SOLV      4916            0.0000000000
     14868      4927  TIP3      H2             -5.3401930383       12.1992261868       10.8424882774  SOLV      4916            0.0000000000
     14869      4928  TIP3      OH2           -12.0066836471       11.8893167887       14.7464697270  SOLV      4917            0.0000000000
     14870      4928  TIP3      H1            -11.7045645458       11.2129174130       15.3855587244  SOLV      4917            0.0000000000
     14871      4928  TIP3      H2            -11.2466852789       12.4859624843       14.7455680034  SOLV      4917            0.0000000000
     14872      4929  TIP3      OH2            -2.4767652790       16.0544521197        7.8997896370  SOLV      4918            0.0000000000
     14873      4929  TIP3      H1             -2.6299409581       15.3864610275        8.5829660733  SOLV      4918            0.0000000000
     14874      4929  TIP3      H2             -2.1816573938       16.8184987214        8.4237977542  SOLV      4918            0.0000000000
     14875      4930  TIP3      OH2           -12.2437350384       16.0240607372       11.8867834780  SOLV      4919            0.0000000000
     14876      4930  TIP3      H1            -12.3274264645       15.0483249830       11.9022186160  SOLV      4919            0.0000000000
     14877      4930  TIP3      H2            -11.2744081658       16.1197782440       11.8707465821  SOLV      4919            0.0000000000
     14878      4931  TIP3      OH2           -15.1807510375        8.1590083460        9.7038636398  SOLV      4920            0.0000000000
     14879      4931  TIP3      H1            -15.7025006345        8.9605272697        9.9031840444  SOLV      4920            0.0000000000
     14880      4931  TIP3      H2            -15.8734771509        7.6129495277        9.2902881941  SOLV      4920            0.0000000000
     14881      4932  TIP3      OH2           -14.6090512939       10.9852050024       11.5581975352  SOLV      4921            0.0000000000
     14882      4932  TIP3      H1            -14.0799924736       10.2158160551       11.8667385976  SOLV      4921            0.0000000000
     14883      4932  TIP3      H2            -13.9571828332       11.4899204793       11.0551914269  SOLV      4921            0.0000000000
     14884      4933  TIP3      OH2            -5.9591152088       20.6464980419        8.0455277550  SOLV      4922            0.0000000000
     14885      4933  TIP3      H1             -5.5624783416       19.9252206579        7.5144633486  SOLV      4922            0.0000000000
     14886      4933  TIP3      H2             -6.0667306157       20.2236735314        8.9032709109  SOLV      4922            0.0000000000
     14887      4934  TIP3      OH2            -6.9773003073       15.2762504392       11.5083913489  SOLV      4923            0.0000000000
     14888      4934  TIP3      H1             -6.5376992905       14.5075287941       11.1050800895  SOLV      4923            0.0000000000
     14889      4934  TIP3      H2             -6.1731982836       15.7706805455       11.7755357414  SOLV      4923            0.0000000000
     14890      4935  TIP3      OH2             3.2115842770        8.4493652710       11.5025045271  SOLV      4924            0.0000000000
     14891      4935  TIP3      H1              3.4951023679        9.2922262473       11.9098811305  SOLV      4924            0.0000000000
     14892      4935  TIP3      H2              3.4493260435        8.5986365824       10.5701383513  SOLV      4924            0.0000000000
     14893      4936  TIP3      OH2            -2.8844770292       10.2354780778       11.8058703333  SOLV      4925            0.0000000000
     14894      4936  TIP3      H1             -2.4036097332        9.4152364715       12.0247941520  SOLV      4925            0.0000000000
     14895      4936  TIP3      H2             -3.1712810551       10.0468065851       10.8922878599  SOLV      4925            0.0000000000
     14896      4937  TIP3      OH2            -9.6798788018        6.7600834832       11.4546470013  SOLV      4926            0.0000000000
     14897      4937  TIP3      H1             -9.7622782488        7.5165751062       10.8339918008  SOLV      4926            0.0000000000
     14898      4937  TIP3      H2            -10.5452879848        6.3411632297       11.3741491505  SOLV      4926            0.0000000000
     14899      4938  TIP3      OH2            -2.4916534846        7.8088847876        7.6621313797  SOLV      4927            0.0000000000
     14900      4938  TIP3      H1             -1.7870303983        7.6673700663        8.3380361496  SOLV      4927            0.0000000000
     14901      4938  TIP3      H2             -1.9486172175        8.1447703143        6.9259926219  SOLV      4927            0.0000000000
     14902      4939  TIP3      OH2           -13.1240756055        8.8864601392       12.5390009726  SOLV      4928            0.0000000000
     14903      4939  TIP3      H1            -12.2999819896        8.7344727412       13.0409050098  SOLV      4928            0.0000000000
     14904      4939  TIP3      H2            -13.0348927340        8.2147852774       11.8410713420  SOLV      4928            0.0000000000
     14905      4940  TIP3      OH2            -8.6995229361       10.8687425733       10.4966867943  SOLV      4929            0.0000000000
     14906      4940  TIP3      H1             -7.7530927282       10.6472195849       10.6347335842  SOLV      4929            0.0000000000
     14907      4940  TIP3      H2             -9.0695017335       10.0065150471       10.2240626676  SOLV      4929            0.0000000000
     14908      4941  TIP3      OH2             3.9360791996       10.5661641592       13.1910610644  SOLV      4930            0.0000000000
     14909      4941  TIP3      H1              3.0740374423       11.0069951671       13.0329725926  SOLV      4930            0.0000000000
     14910      4941  TIP3      H2              4.1518150376       10.9007808624       14.0758159949  SOLV      4930            0.0000000000
     14911      4942  TIP3      OH2            -9.5326626218        6.7407519187       15.8445834730  SOLV      4931            0.0000000000
     14912      4942  TIP3      H1            -10.0546106026        7.2406179147       15.1865993644  SOLV      4931            0.0000000000
     14913      4942  TIP3      H2            -10.0612742392        6.9266926866       16.6561242806  SOLV      4931            0.0000000000
     14914      4943  TIP3      OH2            -6.1021864407       15.1828480186        5.8903518411  SOLV      4932            0.0000000000
     14915      4943  TIP3      H1             -6.4565131669       15.0829388616        4.9968142369  SOLV      4932            0.0000000000
     14916      4943  TIP3      H2             -6.5378280722       16.0149330654        6.1720624112  SOLV      4932            0.0000000000
     14917      4944  TIP3      OH2            -8.4606445163       14.4570732744       13.7245468138  SOLV      4933            0.0000000000
     14918      4944  TIP3      H1             -9.0471917672       15.1513752057       14.1044471248  SOLV      4933            0.0000000000
     14919      4944  TIP3      H2             -7.9909916417       14.9516374058       13.0255297237  SOLV      4933            0.0000000000
     14920      4945  TIP3      OH2            -0.5040213293        7.8967899878        9.4900761535  SOLV      4934            0.0000000000
     14921      4945  TIP3      H1             -0.5769456592        7.4294712200       10.3309328976  SOLV      4934            0.0000000000
     14922      4945  TIP3      H2              0.0503237047        8.6627310339        9.7382029593  SOLV      4934            0.0000000000
     14923      4946  TIP3      OH2           -10.7569264832        7.9297660869       13.6827274951  SOLV      4935            0.0000000000
     14924      4946  TIP3      H1            -10.2210831586        8.7170199882       13.9484346874  SOLV      4935            0.0000000000
     14925      4946  TIP3      H2            -10.1822785456        7.5737637367       12.9684567139  SOLV      4935            0.0000000000
     14926      4947  TIP3      OH2           -10.1761170918       16.4149545967       14.7255613610  SOLV      4936            0.0000000000
     14927      4947  TIP3      H1            -10.3692503339       17.3222101097       14.4160989624  SOLV      4936            0.0000000000
     14928      4947  TIP3      H2            -10.9522215206       16.2740345628       15.3063598232  SOLV      4936            0.0000000000
     14929      4948  TIP3      OH2           -16.2483758777       13.3180655246        7.1034074891  SOLV      4937            0.0000000000
     14930      4948  TIP3      H1            -16.6457119268       13.5657207945        6.2487273156  SOLV      4937            0.0000000000
     14931      4948  TIP3      H2            -15.9543009819       14.1907416492        7.4429725812  SOLV      4937            0.0000000000
     14932      4949  TIP3      OH2            -1.8423509187       18.4936889942        9.4895553510  SOLV      4938            0.0000000000
     14933      4949  TIP3      H1             -2.7370424375       18.4066758625        9.8933183571  SOLV      4938            0.0000000000
     14934      4949  TIP3      H2             -1.9206721931       19.3646827351        9.0528069401  SOLV      4938            0.0000000000
     14935      4950  TIP3      OH2             1.1490864497        7.4324179063       13.1609755926  SOLV      4939            0.0000000000
     14936      4950  TIP3      H1              0.2784115997        7.7142188986       12.8356530179  SOLV      4939            0.0000000000
     14937      4950  TIP3      H2              1.7505878736        7.7513355820       12.4552751138  SOLV      4939            0.0000000000
     14938      4951  TIP3      OH2            -5.8587305673        3.8972437438       13.0717813886  SOLV      4940            0.0000000000
     14939      4951  TIP3      H1             -5.9916962838        2.9355013541       13.2108919667  SOLV      4940            0.0000000000
     14940      4951  TIP3      H2             -6.7050191595        4.2368745323       13.4257921119  SOLV      4940            0.0000000000
     14941      4952  TIP3      OH2            -4.8557897926       18.9218940189        6.1805302915  SOLV      4941            0.0000000000
     14942      4952  TIP3      H1             -4.3373534747       18.1007058531        6.0051691844  SOLV      4941            0.0000000000
     14943      4952  TIP3      H2             -4.2369396142       19.5830953819        5.7977569045  SOLV      4941            0.0000000000
     14944      4953  TIP3      OH2            -3.3982746297       16.7583886212        5.3836309252  SOLV      4942            0.0000000000
     14945      4953  TIP3      H1             -3.7296735691       15.9318981127        5.0095033657  SOLV      4942            0.0000000000
     14946      4953  TIP3      H2             -2.9999091450       16.4466429382        6.2267134880  SOLV      4942            0.0000000000
     14947      4954  TIP3      OH2             0.4252077643       17.5784105639       12.9500960786  SOLV      4943            0.0000000000
     14948      4954  TIP3      H1              0.3006536190       16.8035272223       12.3603590138  SOLV      4943            0.0000000000
     14949      4954  TIP3      H2              0.2487013636       18.3243907222       12.3392533545  SOLV      4943            0.0000000000
     14950      4955  TIP3      OH2            -6.6558717347       11.5144613935        5.5449094720  SOLV      4944            0.0000000000
     14951      4955  TIP3      H1             -7.4416862550       12.0595188603        5.3367362971  SOLV      4944            0.0000000000
     14952      4955  TIP3      H2             -6.1916057085       11.4989501646        4.6882574611  SOLV      4944            0.0000000000
     14953      4956  TIP3      OH2            -7.0723986169        9.4034447886        2.6769964064  SOLV      4945            0.0000000000
     14954      4956  TIP3      H1             -6.3711941762        9.9132358395        3.1216632242  SOLV      4945            0.0000000000
     14955      4956  TIP3      H2             -6.5340165102        8.7345631885        2.2119881051  SOLV      4945            0.0000000000
     14956      4957  TIP3      OH2             2.3860856126       13.9901346955       11.4421970348  SOLV      4946            0.0000000000
     14957      4957  TIP3      H1              1.5454878191       14.4977934229       11.4711520396  SOLV      4946            0.0000000000
     14958      4957  TIP3      H2              2.6861671102       14.2074668389       10.5336509751  SOLV      4946            0.0000000000
     14959      4958  TIP3      OH2            -3.1593469163       12.3551939836        5.2143877756  SOLV      4947            0.0000000000
     14960      4958  TIP3      H1             -3.6996959243       12.6070787158        6.0005971142  SOLV      4947            0.0000000000
     14961      4958  TIP3      H2             -2.3182904059       12.1057950589        5.6521844530  SOLV      4947            0.0000000000
     14962      4959  TIP3      OH2            -0.8280037059       12.7230694369       14.4434080117  SOLV      4948            0.0000000000
     14963      4959  TIP3      H1             -0.8545509532       13.5490262802       14.9629373914  SOLV      4948            0.0000000000
     14964      4959  TIP3      H2             -1.6905946754       12.7748647738       13.9849616067  SOLV      4948            0.0000000000
     14965      4960  TIP3      OH2           -10.8405107815       12.2819981677        9.4345795344  SOLV      4949            0.0000000000
     14966      4960  TIP3      H1            -11.2197392144       11.6838627207        8.7602134394  SOLV      4949            0.0000000000
     14967      4960  TIP3      H2            -10.0501916782       11.7853598586        9.7369569378  SOLV      4949            0.0000000000
     14968      4961  TIP3      OH2            -9.5423292427       16.4476465268       10.8666485418  SOLV      4950            0.0000000000
     14969      4961  TIP3      H1             -9.6996131074       16.1154275131        9.9722344676  SOLV      4950            0.0000000000
     14970      4961  TIP3      H2             -8.6507624619       16.0915472767       11.0644976003  SOLV      4950            0.0000000000
     14971      4962  TIP3      OH2            -9.5509631387       12.0843555772       12.8915069273  SOLV      4951            0.0000000000
     14972      4962  TIP3      H1             -9.1359429384       11.8460308061       12.0391831841  SOLV      4951            0.0000000000
     14973      4962  TIP3      H2             -9.0857445866       12.9162732943       13.1329026668  SOLV      4951            0.0000000000
     14974      4963  TIP3      OH2            -4.2284744393       18.4266511969       10.7483209123  SOLV      4952            0.0000000000
     14975      4963  TIP3      H1             -4.3585436172       19.2127064744       11.3071258048  SOLV      4952            0.0000000000
     14976      4963  TIP3      H2             -4.3769256076       17.6862900283       11.3717217720  SOLV      4952            0.0000000000
     14977      4964  TIP3      OH2            -8.0976141557       17.8324159076       16.0340050018  SOLV      4953            0.0000000000
     14978      4964  TIP3      H1             -8.6800644094       18.3101600698       16.6540645057  SOLV      4953            0.0000000000
     14979      4964  TIP3      H2             -8.6817620381       17.1062026593       15.7565963876  SOLV      4953            0.0000000000
     14980      4965  TIP3      OH2            -4.7856908793       10.9136548863        3.5268997112  SOLV      4954            0.0000000000
     14981      4965  TIP3      H1             -4.1857614248       11.5178671529        4.0224959876  SOLV      4954            0.0000000000
     14982      4965  TIP3      H2             -4.5227969354       11.1243217608        2.5972697596  SOLV      4954            0.0000000000
     14983      4966  TIP3      OH2           -10.5570032998       13.1064583138       17.2465525084  SOLV      4955            0.0000000000
     14984      4966  TIP3      H1            -10.4660231857       14.0040564506       17.6281059613  SOLV      4955            0.0000000000
     14985      4966  TIP3      H2            -11.5083597464       12.9446949671       17.3992448357  SOLV      4955            0.0000000000
     14986      4967  TIP3      OH2            -7.3028018243       17.6784968991        6.2519410165  SOLV      4956            0.0000000000
     14987      4967  TIP3      H1             -6.4786021378       18.1901494485        6.3269185971  SOLV      4956            0.0000000000
     14988      4967  TIP3      H2             -7.9018300053       18.3094947116        5.8300301504  SOLV      4956            0.0000000000
     14989      4968  TIP3      OH2           -10.2242329865       19.3566227397       17.0900105763  SOLV      4957            0.0000000000
     14990      4968  TIP3      H1            -10.5233545284       19.2930370026       16.1653193732  SOLV      4957            0.0000000000
     14991      4968  TIP3      H2            -11.0282970790       19.1018425543       17.5943181880  SOLV      4957            0.0000000000
     14992      4969  TIP3      OH2             0.3678064778        3.2628753836        4.0982986141  SOLV      4958            0.0000000000
     14993      4969  TIP3      H1             -0.4569835797        3.4550333570        4.5852562455  SOLV      4958            0.0000000000
     14994      4969  TIP3      H2              0.4014059804        3.9636899678        3.4464376738  SOLV      4958            0.0000000000
     14995      4970  TIP3      OH2           -12.1763350626       10.6676736212        7.4255274540  SOLV      4959            0.0000000000
     14996      4970  TIP3      H1            -12.7962384291       11.2389380742        6.9243238617  SOLV      4959            0.0000000000
     14997      4970  TIP3      H2            -12.7173515856        9.8791233177        7.5322785862  SOLV      4959            0.0000000000
     14998      4971  TIP3      OH2            -1.5918383472       16.9899480768       -0.4935221273  SOLV      4960            0.0000000000
     14999      4971  TIP3      H1             -1.5182275618       17.9554658057       -0.6531792002  SOLV      4960            0.0000000000
     15000      4971  TIP3      H2             -0.6647872215       16.7020950302       -0.6377145112  SOLV      4960            0.0000000000
     15001      4972  TIP3      OH2           -14.3840427953       14.6143184663       16.5482167082  SOLV      4961            0.0000000000
     15002      4972  TIP3      H1            -15.0317838184       14.3833808125       15.8535638247  SOLV      4961            0.0000000000
     15003      4972  TIP3      H2            -14.0005619338       13.7449530990       16.7902945911  SOLV      4961            0.0000000000
     15004      4973  TIP3      OH2           -15.8015727000       16.4943238327       12.8922977661  SOLV      4962            0.0000000000
     15005      4973  TIP3      H1            -14.8450353852       16.4493105299       12.7540276384  SOLV      4962            0.0000000000
     15006      4973  TIP3      H2            -15.8784201635       17.2936633853       13.4357246031  SOLV      4962            0.0000000000
     15007      4974  TIP3      OH2             2.8003367725       21.0705839977       13.4494911440  SOLV      4963            0.0000000000
     15008      4974  TIP3      H1              2.8065505532       20.1083387292       13.6126010886  SOLV      4963            0.0000000000
     15009      4974  TIP3      H2              1.9670869099       21.3180934719       13.9103132196  SOLV      4963            0.0000000000
     15010      4975  TIP3      OH2            -6.0950023463       18.9761447028       14.6553709391  SOLV      4964            0.0000000000
     15011      4975  TIP3      H1             -6.1265260214       19.8828585877       15.0264145743  SOLV      4964            0.0000000000
     15012      4975  TIP3      H2             -6.8169008192       18.5504666114       15.1791497997  SOLV      4964            0.0000000000
     15013      4976  TIP3      OH2            -8.4722144050       20.1466557532        4.3096749152  SOLV      4965            0.0000000000
     15014      4976  TIP3      H1             -8.9573133212       19.9760997323        3.4828415668  SOLV      4965            0.0000000000
     15015      4976  TIP3      H2             -8.8135202674       21.0187807681        4.5778843914  SOLV      4965            0.0000000000
     15016      4977  TIP3      OH2           -14.1231321518       18.6425960351        8.1551845967  SOLV      4966            0.0000000000
     15017      4977  TIP3      H1            -13.6533495676       18.5598554057        9.0160199828  SOLV      4966            0.0000000000
     15018      4977  TIP3      H2            -14.6364784646       17.8209581337        8.1408785240  SOLV      4966            0.0000000000
     15019      4978  TIP3      OH2            -6.4985031623       19.2005198770        0.6659807127  SOLV      4967            0.0000000000
     15020      4978  TIP3      H1             -5.9246571176       18.4843877092        0.3141003981  SOLV      4967            0.0000000000
     15021      4978  TIP3      H2             -6.1435183858       19.3051449831        1.5742469135  SOLV      4967            0.0000000000
     15022      4979  TIP3      OH2            -5.9646258003       19.6959995431        3.3523699315  SOLV      4968            0.0000000000
     15023      4979  TIP3      H1             -6.8478009714       19.7786511424        3.7780599302  SOLV      4968            0.0000000000
     15024      4979  TIP3      H2             -5.4420538709       19.3249739033        4.0807064566  SOLV      4968            0.0000000000
     15025      4980  TIP3      OH2             1.7019510706       12.3300207539       16.2006223221  SOLV      4969            0.0000000000
     15026      4980  TIP3      H1              0.8643785428       12.4281609118       15.7240818687  SOLV      4969            0.0000000000
     15027      4980  TIP3      H2              1.8644523264       11.3684923332       16.1139468596  SOLV      4969            0.0000000000
     15028      4981  TIP3      OH2           -12.3287402238       16.4518306816       16.4254739283  SOLV      4970            0.0000000000
     15029      4981  TIP3      H1            -11.7952127116       16.2334997686       17.2189543738  SOLV      4970            0.0000000000
     15030      4981  TIP3      H2            -13.0648133358       15.8110185945       16.4964366002  SOLV      4970            0.0000000000
     15031      4982  TIP3      OH2            -8.2944418992        4.6770259371       14.2730441999  SOLV      4971            0.0000000000
     15032      4982  TIP3      H1             -9.1429389006        4.1942237811       14.0834505235  SOLV      4971            0.0000000000
     15033      4982  TIP3      H2             -8.6255626884        5.4944718040       14.6986584061  SOLV      4971            0.0000000000
     15034      4983  TIP3      OH2            -2.9533922277        5.7752163957       16.2462262101  SOLV      4972            0.0000000000
     15035      4983  TIP3      H1             -2.2493928701        5.5251444813       16.8794347907  SOLV      4972            0.0000000000
     15036      4983  TIP3      H2             -3.7742040927        5.5919749204       16.7466301761  SOLV      4972            0.0000000000
     15037      4984  TIP3      OH2            -0.6489091343       10.0963389633       15.3997114024  SOLV      4973            0.0000000000
     15038      4984  TIP3      H1             -1.1397809543       10.0537963255       16.2515419007  SOLV      4973            0.0000000000
     15039      4984  TIP3      H2             -0.8835105768       10.9824998863       15.0633605255  SOLV      4973            0.0000000000
     15040      4985  TIP3      OH2            -3.9789706073       11.3074511484        0.9806986588  SOLV      4974            0.0000000000
     15041      4985  TIP3      H1             -4.3616725971       11.1244624637        0.1013735490  SOLV      4974            0.0000000000
     15042      4985  TIP3      H2             -3.1425917916       11.7461384173        0.7283856392  SOLV      4974            0.0000000000
     15043      4986  TIP3      OH2            -6.7986266845        5.3543378846        4.2120041117  SOLV      4975            0.0000000000
     15044      4986  TIP3      H1             -7.2188947631        5.0859257518        5.0406743747  SOLV      4975            0.0000000000
     15045      4986  TIP3      H2             -7.0963102719        4.6716327760        3.6025395897  SOLV      4975            0.0000000000
     15046      4987  TIP3      OH2            -9.0321429515        9.8821205541       14.4027736339  SOLV      4976            0.0000000000
     15047      4987  TIP3      H1             -9.2541989590       10.1978748241       15.2986819035  SOLV      4976            0.0000000000
     15048      4987  TIP3      H2             -9.1962303845       10.6980048909       13.8783066358  SOLV      4976            0.0000000000
     15049      4988  TIP3      OH2           -10.2411615967        8.6749113845        9.6327752528  SOLV      4977            0.0000000000
     15050      4988  TIP3      H1            -11.1964428686        8.4981481615        9.7363236956  SOLV      4977            0.0000000000
     15051      4988  TIP3      H2            -10.1016262849        8.4303303863        8.6984284421  SOLV      4977            0.0000000000
     15052      4989  TIP3      OH2            -5.2463227045        9.5467574456        6.8680670123  SOLV      4978            0.0000000000
     15053      4989  TIP3      H1             -5.7496571530       10.2552089151        6.4088930570  SOLV      4978            0.0000000000
     15054      4989  TIP3      H2             -4.6976242500        9.1879721689        6.1429108103  SOLV      4978            0.0000000000
     15055      4990  TIP3      OH2            -3.3718576403       12.2247129908       17.5988320598  SOLV      4979            0.0000000000
     15056      4990  TIP3      H1             -3.7757576609       11.6476826204       18.2772240193  SOLV      4979            0.0000000000
     15057      4990  TIP3      H2             -2.4814753804       12.3534565872       17.9687584089  SOLV      4979            0.0000000000
     15058      4991  TIP3      OH2            -3.7402393805        9.7509041692        9.2467772878  SOLV      4980            0.0000000000
     15059      4991  TIP3      H1             -4.3451592346       10.0472289027        8.5361526624  SOLV      4980            0.0000000000
     15060      4991  TIP3      H2             -3.3525411371        8.9779566541        8.7835490874  SOLV      4980            0.0000000000
     15061      4992  TIP3      OH2           -10.9078286935       10.0963479389       16.5901413015  SOLV      4981            0.0000000000
     15062      4992  TIP3      H1            -10.3462707723       10.7063166220       17.0926732722  SOLV      4981            0.0000000000
     15063      4992  TIP3      H2            -10.9294683032        9.3057034359       17.1572577743  SOLV      4981            0.0000000000
     15064      4993  TIP3      OH2           -10.2712016546        4.7909130863        3.9987502111  SOLV      4982            0.0000000000
     15065      4993  TIP3      H1            -10.5385771116        3.9713580864        3.6049582714  SOLV      4982            0.0000000000
     15066      4993  TIP3      H2            -10.8755702950        5.4397773387        3.5620957212  SOLV      4982            0.0000000000
     15067      4994  TIP3      OH2           -14.8900689742        5.3179665563       12.3476554519  SOLV      4983            0.0000000000
     15068      4994  TIP3      H1            -14.0661290243        5.5396204344       12.8327609551  SOLV      4983            0.0000000000
     15069      4994  TIP3      H2            -14.5776711699        4.8610614397       11.5491789923  SOLV      4983            0.0000000000
     15070      4995  TIP3      OH2           -15.2430065503        5.1489358305        7.5777842456  SOLV      4984            0.0000000000
     15071      4995  TIP3      H1            -14.8742833450        5.5354752681        6.7509300095  SOLV      4984            0.0000000000
     15072      4995  TIP3      H2            -15.8907259838        5.8495265156        7.7929687863  SOLV      4984            0.0000000000
     15073      4996  TIP3      OH2            -3.6077230688       12.2443244905       13.4485750173  SOLV      4985            0.0000000000
     15074      4996  TIP3      H1             -3.2894871560       11.5167578637       12.8651818666  SOLV      4985            0.0000000000
     15075      4996  TIP3      H2             -3.9166564383       11.7228066763       14.2188303166  SOLV      4985            0.0000000000
     15076      4997  TIP3      OH2            -7.0551835988        6.8298321826       10.1635334337  SOLV      4986            0.0000000000
     15077      4997  TIP3      H1             -7.6902642912        6.7752483232       10.8987701881  SOLV      4986            0.0000000000
     15078      4997  TIP3      H2             -6.2180442200        6.5840166775       10.6031855090  SOLV      4986            0.0000000000
     15079      4998  TIP3      OH2           -12.6687442987        7.3024936736       10.1770151874  SOLV      4987            0.0000000000
     15080      4998  TIP3      H1            -13.5545059567        7.7119622852       10.0114294340  SOLV      4987            0.0000000000
     15081      4998  TIP3      H2            -12.8568176226        6.4075897890        9.8767000208  SOLV      4987            0.0000000000
     15082      4999  TIP3      OH2            -9.7421427762        7.4001688249        7.2245099259  SOLV      4988            0.0000000000
     15083      4999  TIP3      H1             -8.8990370539        7.8412539390        6.9800933867  SOLV      4988            0.0000000000
     15084      4999  TIP3      H2            -10.3095448948        7.6244703110        6.4383803741  SOLV      4988            0.0000000000
     15085      5000  TIP3      OH2            -1.8779178426        7.6687291699       12.2310337778  SOLV      4989            0.0000000000
     15086      5000  TIP3      H1             -2.2043884385        7.7835609594       13.1554852697  SOLV      4989            0.0000000000
     15087      5000  TIP3      H2             -2.5313473182        7.0510526816       11.8779409337  SOLV      4989            0.0000000000
     15088      5001  TIP3      OH2           -11.3230132807        7.6442585799        5.0351965268  SOLV      4990            0.0000000000
     15089      5001  TIP3      H1            -12.0356453612        7.2585727185        4.4881310361  SOLV      4990            0.0000000000
     15090      5001  TIP3      H2            -10.8133595268        8.1018462472        4.3299280614  SOLV      4990            0.0000000000
     15091      5002  TIP3      OH2            -0.2452010037       24.5361284375       14.4508617257  SOLV      4991            0.0000000000
     15092      5002  TIP3      H1             -0.2594771691       24.7616200915       13.5040264865  SOLV      4991            0.0000000000
     15093      5002  TIP3      H2              0.5765262802       24.9844883550       14.7418992317  SOLV      4991            0.0000000000
     15094      5003  TIP3      OH2           -10.6524768381       15.5736640347       18.5289420423  SOLV      4992            0.0000000000
     15095      5003  TIP3      H1             -9.7269695536       15.8135320519       18.7884043939  SOLV      4992            0.0000000000
     15096      5003  TIP3      H2            -11.0940280277       15.6716884902       19.3876084279  SOLV      4992            0.0000000000
     15097      5004  TIP3      OH2            -6.0673939124       10.1745982590       11.1481081958  SOLV      4993            0.0000000000
     15098      5004  TIP3      H1             -5.2920949386        9.8352273035       10.6733919782  SOLV      4993            0.0000000000
     15099      5004  TIP3      H2             -5.9792648078        9.7483341503       12.0185857522  SOLV      4993            0.0000000000
     15100      5005  TIP3      OH2            -6.3194252381        9.1921859509       14.1481367897  SOLV      4994            0.0000000000
     15101      5005  TIP3      H1             -7.1837900142        9.6363679005       14.2479122125  SOLV      4994            0.0000000000
     15102      5005  TIP3      H2             -5.7062903703        9.8091778833       14.5981132770  SOLV      4994            0.0000000000
     15103      5006  TIP3      OH2            -8.9501495528       13.0293105149        5.0121212620  SOLV      4995            0.0000000000
     15104      5006  TIP3      H1             -9.6898124676       12.3998640280        4.8796510181  SOLV      4995            0.0000000000
     15105      5006  TIP3      H2             -9.1569478638       13.3771771504        5.9144523910  SOLV      4995            0.0000000000
     15106      5007  TIP3      OH2             0.0331515494       15.4163831602       11.2700739475  SOLV      4996            0.0000000000
     15107      5007  TIP3      H1              0.2846852134       15.9208073458       10.4672221996  SOLV      4996            0.0000000000
     15108      5007  TIP3      H2             -0.8153988134       15.0034912955       10.9997004559  SOLV      4996            0.0000000000
     15109      5008  TIP3      OH2            -4.4310093003        6.4017211991        3.2279593557  SOLV      4997            0.0000000000
     15110      5008  TIP3      H1             -5.2669453492        6.0458331496        3.6007887819  SOLV      4997            0.0000000000
     15111      5008  TIP3      H2             -4.2516395577        7.1781265253        3.7907269965  SOLV      4997            0.0000000000
     15112      5009  TIP3      OH2            -4.9714277541       16.2282338168       14.9943892782  SOLV      4998            0.0000000000
     15113      5009  TIP3      H1             -4.7917022635       15.9524006566       15.9014375460  SOLV      4998            0.0000000000
     15114      5009  TIP3      H2             -5.3837881886       17.0978568129       15.1169502257  SOLV      4998            0.0000000000
     15115      5010  TIP3      OH2            -3.6863857287        8.6105918205        4.7235285713  SOLV      4999            0.0000000000
     15116      5010  TIP3      H1             -2.7218888305        8.6909198309        4.8730298109  SOLV      4999            0.0000000000
     15117      5010  TIP3      H2             -3.8872175986        9.4185692537        4.2108781711  SOLV      4999            0.0000000000
     15118      5011  TIP3      OH2           -12.0548100242       13.2094187818       11.7627653763  SOLV      5000            0.0000000000
     15119      5011  TIP3      H1            -11.6332613400       12.9695889736       10.9123473809  SOLV      5000            0.0000000000
     15120      5011  TIP3      H2            -11.4853478096       12.7394380270       12.3941983635  SOLV      5000            0.0000000000
     15121      5012  TIP3      OH2            -7.4726469351       14.5508275383        3.2786894541  SOLV      5001            0.0000000000
     15122      5012  TIP3      H1             -7.9682333120       15.4022692901        3.3139846477  SOLV      5001            0.0000000000
     15123      5012  TIP3      H2             -8.0162931750       13.9923271121        3.8758711769  SOLV      5001            0.0000000000
     15124      5013  TIP3      OH2           -13.2260889250       12.5229185670       17.9777605382  SOLV      5002            0.0000000000
     15125      5013  TIP3      H1            -12.9540541854       12.3832631929       18.9062969847  SOLV      5002            0.0000000000
     15126      5013  TIP3      H2            -13.8413020742       11.7846379545       17.8405389663  SOLV      5002            0.0000000000
     15127      5014  TIP3      OH2            -3.3547029426       18.8844968119       13.9549800275  SOLV      5003            0.0000000000
     15128      5014  TIP3      H1             -4.3229520688       18.8472592067       14.0728747079  SOLV      5003            0.0000000000
     15129      5014  TIP3      H2             -3.0973952016       19.3934564901       14.7523560014  SOLV      5003            0.0000000000
     15130      5015  TIP3      OH2             0.6842487811        9.6206711775        3.0276763420  SOLV      5004            0.0000000000
     15131      5015  TIP3      H1              0.1113411182        9.1603727316        2.3719298524  SOLV      5004            0.0000000000
     15132      5015  TIP3      H2              0.6300852378       10.5231869613        2.6438884164  SOLV      5004            0.0000000000
     15133      5016  TIP3      OH2             2.9256152188       18.1734794025       13.8392713428  SOLV      5005            0.0000000000
     15134      5016  TIP3      H1              1.9491178383       18.0969540896       13.7529234275  SOLV      5005            0.0000000000
     15135      5016  TIP3      H2              3.1960205881       17.8709403627       12.9431423924  SOLV      5005            0.0000000000
     15136      5017  TIP3      OH2            -2.2287421227       17.7612256342        2.1548813129  SOLV      5006            0.0000000000
     15137      5017  TIP3      H1             -2.5155670560       17.0673612634        2.7637025869  SOLV      5006            0.0000000000
     15138      5017  TIP3      H2             -2.1074677129       17.2834137353        1.3142991511  SOLV      5006            0.0000000000
     15139      5018  TIP3      OH2            -2.3014286263       14.0651230302       10.3944883941  SOLV      5007            0.0000000000
     15140      5018  TIP3      H1             -3.2290716845       13.8146272941       10.5693468198  SOLV      5007            0.0000000000
     15141      5018  TIP3      H2             -1.9659924633       13.2431645774        9.9844777086  SOLV      5007            0.0000000000
     15142      5019  TIP3      OH2           -10.9802636578       16.3362383795        8.0330836407  SOLV      5008            0.0000000000
     15143      5019  TIP3      H1            -10.9971313532       17.1476065987        7.4906633898  SOLV      5008            0.0000000000
     15144      5019  TIP3      H2            -11.9205392428       16.1811049444        8.1673276545  SOLV      5008            0.0000000000
     15145      5020  TIP3      OH2           -15.3036535265        9.3455042230        5.1431881373  SOLV      5009            0.0000000000
     15146      5020  TIP3      H1            -14.8838637655       10.2097120865        5.3376985831  SOLV      5009            0.0000000000
     15147      5020  TIP3      H2            -16.1062734718        9.4007015221        5.7081023270  SOLV      5009            0.0000000000
     15148      5021  TIP3      OH2            -9.7421456883       13.9369920310        7.4371672811  SOLV      5010            0.0000000000
     15149      5021  TIP3      H1            -10.0329866766       14.8525937992        7.6256264969  SOLV      5010            0.0000000000
     15150      5021  TIP3      H2            -10.0656406790       13.4677616465        8.2264827055  SOLV      5010            0.0000000000
     15151      5022  TIP3      OH2            -8.2859306291       19.7238437931       12.7170216900  SOLV      5011            0.0000000000
     15152      5022  TIP3      H1             -7.8622714317       20.4482212827       12.2142690570  SOLV      5011            0.0000000000
     15153      5022  TIP3      H2             -7.5230282692       19.3644847867       13.2021327478  SOLV      5011            0.0000000000
     15154      5023  TIP3      OH2           -11.8244595663       18.7051699373        6.5620736400  SOLV      5012            0.0000000000
     15155      5023  TIP3      H1            -12.6838346097       18.8026619333        7.0174089074  SOLV      5012            0.0000000000
     15156      5023  TIP3      H2            -11.4910517548       19.6305335747        6.5984874191  SOLV      5012            0.0000000000
     15157      5024  TIP3      OH2            -4.4558925130       16.1272009422       12.3282104668  SOLV      5013            0.0000000000
     15158      5024  TIP3      H1             -4.5789472477       16.1223677412       13.3061299636  SOLV      5013            0.0000000000
     15159      5024  TIP3      H2             -3.6619333618       15.5846108837       12.2386151122  SOLV      5013            0.0000000000
     15160      5025  TIP3      OH2            -4.6495409984       15.0694127055        1.1653854077  SOLV      5014            0.0000000000
     15161      5025  TIP3      H1             -4.1144956733       14.8162373593        1.9534317957  SOLV      5014            0.0000000000
     15162      5025  TIP3      H2             -5.5245962562       14.7508329205        1.4349246133  SOLV      5014            0.0000000000
     15163      5026  TIP3      OH2            -1.9565241029       21.4000643086       12.8323399195  SOLV      5015            0.0000000000
     15164      5026  TIP3      H1             -2.7371588329       20.8139486970       12.8011120604  SOLV      5015            0.0000000000
     15165      5026  TIP3      H2             -2.1495144356       22.0188371022       12.0948347328  SOLV      5015            0.0000000000
     15166      5027  TIP3      OH2            -1.3086961181       19.7546981036       -0.6863353920  SOLV      5016            0.0000000000
     15167      5027  TIP3      H1             -0.9326935955       20.5107433234       -1.1662656857  SOLV      5016            0.0000000000
     15168      5027  TIP3      H2             -2.1106276063       20.1828461150       -0.3198426921  SOLV      5016            0.0000000000
     15169      5028  TIP3      OH2           -11.1142310352        7.4325732279       18.0038482134  SOLV      5017            0.0000000000
     15170      5028  TIP3      H1            -12.0768552845        7.5041723974       18.1531015834  SOLV      5017            0.0000000000
     15171      5028  TIP3      H2            -10.8144240536        6.9863293681       18.8164679409  SOLV      5017            0.0000000000
     15172      5029  TIP3      OH2            -3.0464196715       14.3624064848        3.2922146845  SOLV      5018            0.0000000000
     15173      5029  TIP3      H1             -3.1465766130       13.6872543501        3.9932785247  SOLV      5018            0.0000000000
     15174      5029  TIP3      H2             -2.0745317800       14.3375821981        3.1685620429  SOLV      5018            0.0000000000
     15175      5030  TIP3      OH2           -13.9271117587       18.3737063122       14.3033697216  SOLV      5019            0.0000000000
     15176      5030  TIP3      H1            -13.3814220701       17.6643478079       14.6801439953  SOLV      5019            0.0000000000
     15177      5030  TIP3      H2            -13.5983274822       19.1395653354       14.7905946578  SOLV      5019            0.0000000000
     15178      5031  TIP3      OH2           -11.0466652600       14.8229725005        1.1570555043  SOLV      5020            0.0000000000
     15179      5031  TIP3      H1            -10.9269725569       13.8929152593        0.8921990300  SOLV      5020            0.0000000000
     15180      5031  TIP3      H2            -11.2598783292       14.7283941344        2.1064609491  SOLV      5020            0.0000000000
     15181      5032  TIP3      OH2           -11.6161934596       14.8773517116        3.8782739364  SOLV      5021            0.0000000000
     15182      5032  TIP3      H1            -10.8505077499       14.6275402234        4.4106360093  SOLV      5021            0.0000000000
     15183      5032  TIP3      H2            -11.5961285186       15.8594901380        3.9545450903  SOLV      5021            0.0000000000
     15184      5033  TIP3      OH2           -14.2434387398       11.8078269965        5.9446276430  SOLV      5022            0.0000000000
     15185      5033  TIP3      H1            -14.9202263809       12.2631022361        6.4905974327  SOLV      5022            0.0000000000
     15186      5033  TIP3      H2            -14.1141061516       12.4799720022        5.2464320559  SOLV      5022            0.0000000000
     15187      5034  TIP3      OH2            -2.6523563076        8.1003534079       14.7910587666  SOLV      5023            0.0000000000
     15188      5034  TIP3      H1             -1.9103675204        8.5611281226       15.2176164466  SOLV      5023            0.0000000000
     15189      5034  TIP3      H2             -2.7835209659        7.3220037477       15.3735729593  SOLV      5023            0.0000000000
     15190      5035  TIP3      OH2            -3.9627204403        5.8110411855        6.3922048558  SOLV      5024            0.0000000000
     15191      5035  TIP3      H1             -3.9587061571        6.0260846751        5.4498093360  SOLV      5024            0.0000000000
     15192      5035  TIP3      H2             -3.4829974232        6.5758320274        6.7770986843  SOLV      5024            0.0000000000
     15193      5036  TIP3      OH2            -8.9239316440       16.8342317740        3.3475850113  SOLV      5025            0.0000000000
     15194      5036  TIP3      H1             -9.7961594477       17.0866310459        3.7093278152  SOLV      5025            0.0000000000
     15195      5036  TIP3      H2             -8.7571752058       17.5897682973        2.7653414881  SOLV      5025            0.0000000000
     15196      5037  TIP3      OH2            -7.0424906989        7.6436458153        7.5340283046  SOLV      5026            0.0000000000
     15197      5037  TIP3      H1             -6.3682231753        8.3280316727        7.3192918879  SOLV      5026            0.0000000000
     15198      5037  TIP3      H2             -6.8922804001        7.5268340150        8.4987028460  SOLV      5026            0.0000000000
     15199      5038  TIP3      OH2            -4.3250778792       10.6376821350       15.5504736341  SOLV      5027            0.0000000000
     15200      5038  TIP3      H1             -4.0855506107       11.2378292425       16.2938364935  SOLV      5027            0.0000000000
     15201      5038  TIP3      H2             -3.7864114932        9.8575882655       15.7510361486  SOLV      5027            0.0000000000
     15202      5039  TIP3      OH2            -5.3410513111        4.6333435774        8.4305823998  SOLV      5028            0.0000000000
     15203      5039  TIP3      H1             -5.0934346565        5.0858443920        9.2580101578  SOLV      5028            0.0000000000
     15204      5039  TIP3      H2             -4.7461798810        5.0688708372        7.7760631607  SOLV      5028            0.0000000000
     15205      5040  TIP3      OH2           -11.4657785784       17.5982999145        4.0570221256  SOLV      5029            0.0000000000
     15206      5040  TIP3      H1            -11.7463770584       18.3062512328        3.4341212215  SOLV      5029            0.0000000000
     15207      5040  TIP3      H2            -11.6193957785       18.0342340770        4.9241190897  SOLV      5029            0.0000000000
     15208      5041  TIP3      OH2           -10.4986615323        4.7191748542        6.7529200107  SOLV      5030            0.0000000000
     15209      5041  TIP3      H1            -11.0704674479        5.3869228367        6.3269689355  SOLV      5030            0.0000000000
     15210      5041  TIP3      H2            -10.0608123747        4.3740985514        5.9539531084  SOLV      5030            0.0000000000
     15211      5042  TIP3      OH2             2.0113299742        9.6535815865       15.3962449032  SOLV      5031            0.0000000000
     15212      5042  TIP3      H1              1.0289110671        9.6557997113       15.4559639858  SOLV      5031            0.0000000000
     15213      5042  TIP3      H2              2.1247563596        9.2078540319       14.5471304800  SOLV      5031            0.0000000000
     15214      5043  TIP3      OH2            -1.4463997574       11.5857226486        9.2596012110  SOLV      5032            0.0000000000
     15215      5043  TIP3      H1             -2.2018797936       10.9890843120        9.3958501964  SOLV      5032            0.0000000000
     15216      5043  TIP3      H2             -0.7290359637       11.1255554453        9.7477282859  SOLV      5032            0.0000000000
     15217      5044  TIP3      OH2           -14.2803129638       13.8175771667        3.9638528836  SOLV      5033            0.0000000000
     15218      5044  TIP3      H1            -13.5678326258       14.4810342959        4.0333896966  SOLV      5033            0.0000000000
     15219      5044  TIP3      H2            -13.8731232462       13.2324460581        3.2873536504  SOLV      5033            0.0000000000
     15220      5045  TIP3      OH2           -14.8879887154        6.6285465910        5.3331088779  SOLV      5034            0.0000000000
     15221      5045  TIP3      H1            -14.8954683281        7.6097044641        5.3092416406  SOLV      5034            0.0000000000
     15222      5045  TIP3      H2            -15.5199407232        6.4163973069        4.6433396105  SOLV      5034            0.0000000000
     15223      5046  TIP3      OH2            -1.7397455290       21.2068624384        8.7215987181  SOLV      5035            0.0000000000
     15224      5046  TIP3      H1             -2.1636988400       21.6777996158        7.9694940351  SOLV      5035            0.0000000000
     15225      5046  TIP3      H2             -0.7933530894       21.3923047445        8.5257913022  SOLV      5035            0.0000000000
     15226      5047  TIP3      OH2           -15.6701017795       16.0004563327        7.7840789885  SOLV      5036            0.0000000000
     15227      5047  TIP3      H1            -16.2718528824       16.3313225888        8.4613492391  SOLV      5036            0.0000000000
     15228      5047  TIP3      H2            -15.9904911782       16.4736782297        6.9853035377  SOLV      5036            0.0000000000
     15229      5048  TIP3      OH2           -13.8922726952       21.4459287759       18.4239411887  SOLV      5037            0.0000000000
     15230      5048  TIP3      H1            -13.0342019511       21.4727364707       18.9051891374  SOLV      5037            0.0000000000
     15231      5048  TIP3      H2            -14.0368776554       20.4842362854       18.3936197101  SOLV      5037            0.0000000000
     15232      5049  TIP3      OH2            -9.2189196813       21.0745657984       18.9802123203  SOLV      5038            0.0000000000
     15233      5049  TIP3      H1             -8.2978209413       20.7930155051       19.0827596725  SOLV      5038            0.0000000000
     15234      5049  TIP3      H2             -9.5090723981       20.4657585875       18.2666111312  SOLV      5038            0.0000000000
     15235      5050  TIP3      OH2            -9.4198996573       16.8373509406        0.2267810170  SOLV      5039            0.0000000000
     15236      5050  TIP3      H1             -9.9583973091       16.1163623462        0.6298929691  SOLV      5039            0.0000000000
     15237      5050  TIP3      H2             -8.6617413181       16.3303325151       -0.1146049421  SOLV      5039            0.0000000000
     15238      5051  TIP3      OH2            -2.8615711677       20.2103130579       16.3198379765  SOLV      5040            0.0000000000
     15239      5051  TIP3      H1             -2.8990115116       19.4945082498       16.9954152300  SOLV      5040            0.0000000000
     15240      5051  TIP3      H2             -2.0719226958       20.7101593424       16.6040184261  SOLV      5040            0.0000000000
     15241      5052  TIP3      OH2            -5.0612568035       17.2142889034       -0.5969281856  SOLV      5041            0.0000000000
     15242      5052  TIP3      H1             -4.6798594727       16.5524765770        0.0146956042  SOLV      5041            0.0000000000
     15243      5052  TIP3      H2             -4.4665485904       17.1641864932       -1.3681203376  SOLV      5041            0.0000000000
     15244      5053  TIP3      OH2           -12.7325398891       15.5600279704       20.5781515934  SOLV      5042            0.0000000000
     15245      5053  TIP3      H1            -12.5037872437       14.6132128978       20.5616484533  SOLV      5042            0.0000000000
     15246      5053  TIP3      H2            -13.5726097851       15.5699716248       20.0733366350  SOLV      5042            0.0000000000
     15247      5054  TIP3      OH2           -12.9253761746       11.9556305953        2.5117253349  SOLV      5043            0.0000000000
     15248      5054  TIP3      H1            -12.3294312202       11.6946199646        3.2375017924  SOLV      5043            0.0000000000
     15249      5054  TIP3      H2            -12.2750965546       12.0143969168        1.7760309697  SOLV      5043            0.0000000000
     15250      5055  TIP3      OH2            -7.7308510322       14.0239787609        0.5854413455  SOLV      5044            0.0000000000
     15251      5055  TIP3      H1             -7.7455726968       14.1467886319        1.5558947839  SOLV      5044            0.0000000000
     15252      5055  TIP3      H2             -7.7316453890       13.0424945105        0.5261829421  SOLV      5044            0.0000000000
     15253      5056  TIP3      OH2            -1.7268436498       16.5120566973       14.3609557108  SOLV      5045            0.0000000000
     15254      5056  TIP3      H1             -0.9828904329       16.9607548976       13.9158996193  SOLV      5045            0.0000000000
     15255      5056  TIP3      H2             -2.4396705963       17.1630069909       14.2273856031  SOLV      5045            0.0000000000
     15256      5057  TIP3      OH2           -11.5140945699       12.8626812617       20.3668606362  SOLV      5046            0.0000000000
     15257      5057  TIP3      H1            -10.6698312539       12.6072863947       19.9760675586  SOLV      5046            0.0000000000
     15258      5057  TIP3      H2            -11.2275095345       13.1797510850       21.2514116323  SOLV      5046            0.0000000000
     15259      5058  TIP3      OH2           -10.9339542255       11.0960173783        4.6367619392  SOLV      5047            0.0000000000
     15260      5058  TIP3      H1            -11.1846493430       10.6763954058        5.4746422547  SOLV      5047            0.0000000000
     15261      5058  TIP3      H2            -10.5193294887       10.3557691188        4.1433642318  SOLV      5047            0.0000000000
     15262      5059  TIP3      OH2            -8.3427993397       11.4791212015       16.7908760202  SOLV      5048            0.0000000000
     15263      5059  TIP3      H1             -8.9206332743       12.2491586812       16.9764080963  SOLV      5048            0.0000000000
     15264      5059  TIP3      H2             -7.6904953331       11.8866667933       16.1744129918  SOLV      5048            0.0000000000
     15265      5060  TIP3      OH2            -9.8386731879        9.0216729337        3.1521629563  SOLV      5049            0.0000000000
     15266      5060  TIP3      H1            -10.1116286542        9.0503735908        2.2104509808  SOLV      5049            0.0000000000
     15267      5060  TIP3      H2             -8.8640787251        9.0626035464        3.0452338252  SOLV      5049            0.0000000000
     15268      5061  TIP3      OH2            -2.9307095588       15.7798967835       18.2832733118  SOLV      5050            0.0000000000
     15269      5061  TIP3      H1             -2.2366613724       15.3615108584       17.7652809413  SOLV      5050            0.0000000000
     15270      5061  TIP3      H2             -3.0805634330       15.1221199250       18.9865714857  SOLV      5050            0.0000000000
     15271      5062  TIP3      OH2            -1.6747667191       12.2923431549       -0.2227660332  SOLV      5051            0.0000000000
     15272      5062  TIP3      H1             -1.8740656274       11.8517897402       -1.0723518316  SOLV      5051            0.0000000000
     15273      5062  TIP3      H2             -1.9953327647       13.1995174895       -0.4386825215  SOLV      5051            0.0000000000
     15274      5063  TIP3      OH2            -6.9475514852        9.6068227586       18.2484657397  SOLV      5052            0.0000000000
     15275      5063  TIP3      H1             -6.8930839527        8.8249938390       17.6658554919  SOLV      5052            0.0000000000
     15276      5063  TIP3      H2             -7.3790323810       10.2644401739       17.6598622909  SOLV      5052            0.0000000000
     15277      5064  TIP3      OH2            -6.9037158667        7.4572863998       16.3082217170  SOLV      5053            0.0000000000
     15278      5064  TIP3      H1             -6.6034353652        7.9231691511       15.5007573280  SOLV      5053            0.0000000000
     15279      5064  TIP3      H2             -7.8417864308        7.2739775235       16.0945275568  SOLV      5053            0.0000000000
     15280      5065  TIP3      OH2            -6.7631039613       12.6210480380       14.8801701292  SOLV      5054            0.0000000000
     15281      5065  TIP3      H1             -5.8617147718       12.9123172501       14.7052091751  SOLV      5054            0.0000000000
     15282      5065  TIP3      H2             -7.2926066554       13.3584762938       14.5116042362  SOLV      5054            0.0000000000
     15283      5066  TIP3      OH2            -0.8230620556       12.4503666347       18.8467735377  SOLV      5055            0.0000000000
     15284      5066  TIP3      H1             -0.3221157537       11.6273556559       18.9420854473  SOLV      5055            0.0000000000
     15285      5066  TIP3      H2             -0.1628047598       13.0441846745       18.4600005421  SOLV      5055            0.0000000000
     15286      5067  TIP3      OH2            -0.4324565540       15.0189144945       16.2069448362  SOLV      5056            0.0000000000
     15287      5067  TIP3      H1             -1.0079442081       15.5769418384       15.6302405522  SOLV      5056            0.0000000000
     15288      5067  TIP3      H2              0.4460591007       15.2295052645       15.8181559925  SOLV      5056            0.0000000000
     15289      5068  TIP3      OH2            -8.1915909886       10.6676654624       20.5643592133  SOLV      5057            0.0000000000
     15290      5068  TIP3      H1             -8.8505082281        9.9563156127       20.6947563169  SOLV      5057            0.0000000000
     15291      5068  TIP3      H2             -7.8172226768       10.4365384909       19.6923868145  SOLV      5057            0.0000000000
     15292      5069  TIP3      OH2            -5.5583901156        5.1286705247       17.0797496887  SOLV      5058            0.0000000000
     15293      5069  TIP3      H1             -6.0474307050        5.9339232679       16.7973496564  SOLV      5058            0.0000000000
     15294      5069  TIP3      H2             -6.2135320472        4.4270209524       16.9307133317  SOLV      5058            0.0000000000
     15295      5070  TIP3      OH2            -4.3155228802       10.1260331805       19.1339232610  SOLV      5059            0.0000000000
     15296      5070  TIP3      H1             -4.4544286271       10.0945743035       20.0959182254  SOLV      5059            0.0000000000
     15297      5070  TIP3      H2             -5.2216860692        9.9136286864       18.8277754076  SOLV      5059            0.0000000000
     15298      5071  TIP3      OH2            -1.9693203334        9.5203256367       17.6709846099  SOLV      5060            0.0000000000
     15299      5071  TIP3      H1             -2.7242695504        9.6420040800       18.2819949206  SOLV      5060            0.0000000000
     15300      5071  TIP3      H2             -1.2410995645        9.2821174183       18.2783434007  SOLV      5060            0.0000000000
     15301      5072  TIP3      OH2             0.3550116184        9.0745835534       19.2186870214  SOLV      5061            0.0000000000
     15302      5072  TIP3      H1              0.4886187495        8.1134592116       19.3594079557  SOLV      5061            0.0000000000
     15303      5072  TIP3      H2              0.3077345898        9.4184750193       20.1348778326  SOLV      5061            0.0000000000
     15304      5073  TIP3      OH2            -9.8120241226        8.4973209651       21.1786386880  SOLV      5062            0.0000000000
     15305      5073  TIP3      H1             -9.7563863123        7.5767159286       20.8462650413  SOLV      5062            0.0000000000
     15306      5073  TIP3      H2             -9.4103544290        8.3890389191       22.0631368712  SOLV      5062            0.0000000000
     15307      5074  TIP3      OH2            -4.6932987784        5.1547505812       19.6782893443  SOLV      5063            0.0000000000
     15308      5074  TIP3      H1             -4.0097526061        4.4625997452       19.5824620298  SOLV      5063            0.0000000000
     15309      5074  TIP3      H2             -5.0579743715        5.1631154503       18.7696129321  SOLV      5063            0.0000000000
     15310      5075  TIP3      OH2            -4.0234546692        7.3191876078       21.2174787325  SOLV      5064            0.0000000000
     15311      5075  TIP3      H1             -4.2390591280        6.6151831248       20.5677892216  SOLV      5064            0.0000000000
     15312      5075  TIP3      H2             -4.7893342940        7.9279596038       21.1246974076  SOLV      5064            0.0000000000
     15313      5076  TIP3      OH2           -11.7394122643       19.6233565380        2.1804965636  SOLV      5065            0.0000000000
     15314      5076  TIP3      H1            -10.7922742082       19.5320874917        1.9678611383  SOLV      5065            0.0000000000
     15315      5076  TIP3      H2            -12.0303559209       20.1489524988        1.4119671992  SOLV      5065            0.0000000000
     15316      5077  TIP3      OH2           -16.9785318357       13.4366664304        4.3004907073  SOLV      5066            0.0000000000
     15317      5077  TIP3      H1            -16.0281674703       13.6459243899        4.1611047285  SOLV      5066            0.0000000000
     15318      5077  TIP3      H2            -17.0454395148       12.5560874458        3.8717110709  SOLV      5066            0.0000000000
     15319      5078  TIP3      OH2           -17.8064864117       19.5415496593        8.5023872960  SOLV      5067            0.0000000000
     15320      5078  TIP3      H1            -18.4635535146       18.9391613297        8.0912650201  SOLV      5067            0.0000000000
     15321      5078  TIP3      H2            -17.3633583140       18.9306841633        9.1280951019  SOLV      5067            0.0000000000
     15322      5079  TIP3      OH2           -16.4597833361       17.9708928860       10.3343112195  SOLV      5068            0.0000000000
     15323      5079  TIP3      H1            -16.5940287763       17.3046159715       11.0275638144  SOLV      5068            0.0000000000
     15324      5079  TIP3      H2            -15.9314578318       18.6265325415       10.8261695940  SOLV      5068            0.0000000000
     15325      5080  TIP3      OH2             0.8306534479       22.0519884906        8.3641000268  SOLV      5069            0.0000000000
     15326      5080  TIP3      H1              1.0878360773       22.3594639507        9.2521362523  SOLV      5069            0.0000000000
     15327      5080  TIP3      H2              1.4991282259       22.4663052113        7.7984044401  SOLV      5069            0.0000000000
     15328      5081  TIP3      OH2             1.1044050673       22.2576037761       11.1927238703  SOLV      5070            0.0000000000
     15329      5081  TIP3      H1              0.6372549078       21.3953459380       11.1458195992  SOLV      5070            0.0000000000
     15330      5081  TIP3      H2              1.8386088544       22.0089780368       11.7778548433  SOLV      5070            0.0000000000
     15331      5082  TIP3      OH2             1.5717180926       19.0597750870       16.8990185453  SOLV      5071            0.0000000000
     15332      5082  TIP3      H1              0.8580321641       19.1588560414       17.5599186511  SOLV      5071            0.0000000000
     15333      5082  TIP3      H2              2.0104716192       19.9329505159       16.9492666010  SOLV      5071            0.0000000000
     15334      5083  TIP3      OH2            -0.2599648283       14.1683905153        3.0676781693  SOLV      5072            0.0000000000
     15335      5083  TIP3      H1              0.4039445322       14.8251754585        2.7767944058  SOLV      5072            0.0000000000
     15336      5083  TIP3      H2              0.1838273015       13.7865586669        3.8575475228  SOLV      5072            0.0000000000
     15337      5084  TIP3      OH2             1.0039930335       12.8399276186        5.1187510983  SOLV      5073            0.0000000000
     15338      5084  TIP3      H1              0.3404422990       12.4276086910        5.7130261912  SOLV      5073            0.0000000000
     15339      5084  TIP3      H2              1.6665510388       13.1900933879        5.7503165990  SOLV      5073            0.0000000000
     15340      5085  TIP3      OH2             1.5787691052       16.7919920313        9.4249030955  SOLV      5074            0.0000000000
     15341      5085  TIP3      H1              2.1175339451       16.1128364096        8.9748704644  SOLV      5074            0.0000000000
     15342      5085  TIP3      H2              1.5389243158       17.5038297995        8.7574305198  SOLV      5074            0.0000000000
     15343      5086  TIP3      OH2            -0.1814901757       19.7746874382       11.3557471354  SOLV      5075            0.0000000000
     15344      5086  TIP3      H1             -0.8960757731       20.1786500176       11.8838178075  SOLV      5075            0.0000000000
     15345      5086  TIP3      H2             -0.6814000548       19.3125391245       10.6494176285  SOLV      5075            0.0000000000
     15346      5087  TIP3      OH2             0.3528464710       11.9457530968        1.5664404949  SOLV      5076            0.0000000000
     15347      5087  TIP3      H1             -0.3768861732       11.9686171540        0.9050474465  SOLV      5076            0.0000000000
     15348      5087  TIP3      H2              0.0935474148       12.7122003031        2.1190970291  SOLV      5076            0.0000000000
     15349      5088  TIP3      OH2            -0.8549574454        8.6378107619        0.9922826914  SOLV      5077            0.0000000000
     15350      5088  TIP3      H1             -1.4838055360        8.9164300915        0.3192390294  SOLV      5077            0.0000000000
     15351      5088  TIP3      H2             -1.1212053078        7.6988106394        1.1188451166  SOLV      5077            0.0000000000
     15352      5089  TIP3      OH2            -0.9009491316       11.4335267347        6.5543082884  SOLV      5078            0.0000000000
     15353      5089  TIP3      H1             -0.7984358011       10.4703473740        6.4895828725  SOLV      5078            0.0000000000
     15354      5089  TIP3      H2             -1.0388280099       11.5646870956        7.5182466211  SOLV      5078            0.0000000000
     15355      5090  TIP3      OH2           -14.6263670832       12.1631653366       14.0650614071  SOLV      5079            0.0000000000
     15356      5090  TIP3      H1            -14.6590655030       11.8151610186       13.1499807021  SOLV      5079            0.0000000000
     15357      5090  TIP3      H2            -13.6507291030       12.1608631202       14.2215080869  SOLV      5079            0.0000000000
     15358      5091  TIP3      OH2             2.0343655464       15.6727605489       15.1609631736  SOLV      5080            0.0000000000
     15359      5091  TIP3      H1              2.7328215658       14.9933804324       15.0280327744  SOLV      5080            0.0000000000
     15360      5091  TIP3      H2              2.2846249499       16.3567354062       14.5210415673  SOLV      5080            0.0000000000
     15361      5092  TIP3      OH2             3.8381790967       13.6519954980       15.1791898248  SOLV      5081            0.0000000000
     15362      5092  TIP3      H1              3.0938554509       13.1733136197       15.6048138142  SOLV      5081            0.0000000000
     15363      5092  TIP3      H2              4.5719976465       13.0319184412       15.3748610346  SOLV      5081            0.0000000000
     15364      5093  TIP3      OH2            -1.5538782580        6.0261830891        1.3261573529  SOLV      5082            0.0000000000
     15365      5093  TIP3      H1             -0.8673227929        5.3651488353        1.2267504371  SOLV      5082            0.0000000000
     15366      5093  TIP3      H2             -2.3304794031        5.4861889079        1.5342857185  SOLV      5082            0.0000000000
     15367      5094  TIP3      OH2            -0.9071591120        8.5963961072        5.4569498203  SOLV      5083            0.0000000000
     15368      5094  TIP3      H1             -0.4827968561        7.7174554039        5.6116716013  SOLV      5083            0.0000000000
     15369      5094  TIP3      H2             -0.3202691997        8.9413106317        4.7593451248  SOLV      5083            0.0000000000
     15370      5095  TIP3      OH2             0.6824595060       10.2811230580       10.4672982477  SOLV      5084            0.0000000000
     15371      5095  TIP3      H1              1.5410563883       10.5194496181       10.0462329335  SOLV      5084            0.0000000000
     15372      5095  TIP3      H2              0.8387940440       10.6616936529       11.3531679291  SOLV      5084            0.0000000000
     15373      5096  TIP3      OH2             1.4181971264       11.7598147987       12.7616463234  SOLV      5085            0.0000000000
     15374      5096  TIP3      H1              0.6567633051       12.0955820602       13.2714990581  SOLV      5085            0.0000000000
     15375      5096  TIP3      H2              1.7403682533       12.5783231962       12.3247195614  SOLV      5085            0.0000000000
     15376      5097  TIP3      OH2           -12.4776638290        8.9659592538       20.7437975706  SOLV      5086            0.0000000000
     15377      5097  TIP3      H1            -11.5002074265        8.9628935937       20.8420019088  SOLV      5086            0.0000000000
     15378      5097  TIP3      H2            -12.6902796964        8.1040107986       21.1549890203  SOLV      5086            0.0000000000
     15379      5098  TIP3      OH2             5.8919596129        7.6986007690       18.3134037933  SOLV      5087            0.0000000000
     15380      5098  TIP3      H1              6.5079509494        7.0633291126       17.8943966856  SOLV      5087            0.0000000000
     15381      5098  TIP3      H2              5.5948911434        8.2297166562       17.5426325852  SOLV      5087            0.0000000000
     15382      5099  TIP3      OH2             0.1454481478        6.0949388263        5.8881913650  SOLV      5088            0.0000000000
     15383      5099  TIP3      H1              0.6512702698        5.9250497661        6.7108445947  SOLV      5088            0.0000000000
     15384      5099  TIP3      H2             -0.4374412647        5.3072535830        5.8763830784  SOLV      5088            0.0000000000
     15385      5100  TIP3      OH2           -12.6783277067        5.8589521304       13.8886975342  SOLV      5089            0.0000000000
     15386      5100  TIP3      H1            -12.3146763838        5.1270596936       14.4485082623  SOLV      5089            0.0000000000
     15387      5100  TIP3      H2            -12.0361525426        6.5550408232       13.9959100289  SOLV      5089            0.0000000000
     15388      5101  TIP3      OH2           -14.8252604370        8.6234103532       14.8174358891  SOLV      5090            0.0000000000
     15389      5101  TIP3      H1            -14.3271816227        8.6442948710       13.9785003725  SOLV      5090            0.0000000000
     15390      5101  TIP3      H2            -14.5439856207        9.4452390864       15.2334798559  SOLV      5090            0.0000000000
     15391      5102  TIP3      OH2             4.5816624588        9.0405232713       16.3498537466  SOLV      5091            0.0000000000
     15392      5102  TIP3      H1              3.7238682039        9.4671987844       16.5461430965  SOLV      5091            0.0000000000
     15393      5102  TIP3      H2              4.2731534256        8.3029541461       15.7892867469  SOLV      5091            0.0000000000
     15394      5103  TIP3      OH2           -14.9692629403        3.8302228429        9.9166861797  SOLV      5092            0.0000000000
     15395      5103  TIP3      H1            -15.8998822275        3.6716496982       10.1601747854  SOLV      5092            0.0000000000
     15396      5103  TIP3      H2            -15.0633483749        4.3459778936        9.0899248932  SOLV      5092            0.0000000000
     15397      5104  TIP3      OH2            -3.3742617127       20.7563801320        4.8907602904  SOLV      5093            0.0000000000
     15398      5104  TIP3      H1             -2.8292685980       20.6513130337        4.0847363822  SOLV      5093            0.0000000000
     15399      5104  TIP3      H2             -2.8612035583       21.4076454529        5.3973460080  SOLV      5093            0.0000000000
     15400      5105  TIP3      OH2           -12.4138584135       18.8558704697       18.7254499637  SOLV      5094            0.0000000000
     15401      5105  TIP3      H1            -13.3251316322       18.5266680012       18.6112561460  SOLV      5094            0.0000000000
     15402      5105  TIP3      H2            -12.1864147016       18.5398113469       19.6059072144  SOLV      5094            0.0000000000
     15403      5106  TIP3      OH2           -10.5701497492       19.1438104918       14.2345448853  SOLV      5095            0.0000000000
     15404      5106  TIP3      H1            -11.0092567189       19.9231140824       13.8364690021  SOLV      5095            0.0000000000
     15405      5106  TIP3      H2             -9.6926047988       19.2460879592       13.8115854053  SOLV      5095            0.0000000000
     15406      5107  TIP3      OH2            -6.1754181379       21.5875795303       15.6196957494  SOLV      5096            0.0000000000
     15407      5107  TIP3      H1             -5.7500925650       21.5274119352       16.5012836777  SOLV      5096            0.0000000000
     15408      5107  TIP3      H2             -5.5018408049       22.0932496299       15.1172992037  SOLV      5096            0.0000000000
     15409      5108  TIP3      OH2            -4.3696115174       23.1057188964       14.2172221632  SOLV      5097            0.0000000000
     15410      5108  TIP3      H1             -3.6843379561       22.5742052504       13.7871395542  SOLV      5097            0.0000000000
     15411      5108  TIP3      H2             -3.8244114170       23.6676461022       14.8102884772  SOLV      5097            0.0000000000
     15412      5109  TIP3      OH2             3.5978624541        6.6612829150       15.1823027866  SOLV      5098            0.0000000000
     15413      5109  TIP3      H1              2.7029181781        6.5546508955       14.8150586143  SOLV      5098            0.0000000000
     15414      5109  TIP3      H2              3.9532023944        5.7475385218       15.0811078213  SOLV      5098            0.0000000000
     15415      5110  TIP3      OH2           -13.8237738820       21.6459544682       14.4640823838  SOLV      5099            0.0000000000
     15416      5110  TIP3      H1            -14.7289214244       21.9616575224       14.2399438263  SOLV      5099            0.0000000000
     15417      5110  TIP3      H2            -13.6741314081       22.1203878665       15.2874005642  SOLV      5099            0.0000000000
     15418      5111  TIP3      OH2           -11.4511446672       21.4898972290       13.0607842177  SOLV      5100            0.0000000000
     15419      5111  TIP3      H1            -12.3303825612       21.5918664347       13.4875659680  SOLV      5100            0.0000000000
     15420      5111  TIP3      H2            -11.6405848206       21.8055272018       12.1545370789  SOLV      5100            0.0000000000
     15421      5112  TIP3      OH2            -7.2047146586       21.7297787880       11.0296745334  SOLV      5101            0.0000000000
     15422      5112  TIP3      H1             -7.9036091698       21.9078460662       10.3736267826  SOLV      5101            0.0000000000
     15423      5112  TIP3      H2             -7.0861380980       22.6128360070       11.4357909254  SOLV      5101            0.0000000000
     15424      5113  TIP3      OH2            -4.5094245812       21.1377960804       11.5563768144  SOLV      5102            0.0000000000
     15425      5113  TIP3      H1             -5.4522057546       21.2980192063       11.3551206962  SOLV      5102            0.0000000000
     15426      5113  TIP3      H2             -4.0777097214       21.8609766591       11.0751920537  SOLV      5102            0.0000000000
     15427      5114  TIP3      OH2            -2.4609407507       23.0373263929       10.6597776488  SOLV      5103            0.0000000000
     15428      5114  TIP3      H1             -2.5978441912       23.8811659649       10.1796499322  SOLV      5103            0.0000000000
     15429      5114  TIP3      H2             -2.1937810469       22.4354383626        9.9302953347  SOLV      5103            0.0000000000
     15430      5115  TIP3      OH2           -14.7232948042       19.5841015587       11.8859448193  SOLV      5104            0.0000000000
     15431      5115  TIP3      H1            -14.4497673841       19.3076314470       12.7872362754  SOLV      5104            0.0000000000
     15432      5115  TIP3      H2            -13.9776980911       19.1952680974       11.3739952068  SOLV      5104            0.0000000000
     15433      5116  TIP3      OH2           -12.7341624794       18.3517915433       10.5067504441  SOLV      5105            0.0000000000
     15434      5116  TIP3      H1            -12.5900743138       17.4993515219       10.9804693387  SOLV      5105            0.0000000000
     15435      5116  TIP3      H2            -11.8201292847       18.7096592704       10.4917174541  SOLV      5105            0.0000000000
     15436      5117  TIP3      OH2           -10.0668583567       19.2422559918       10.5777097895  SOLV      5106            0.0000000000
     15437      5117  TIP3      H1             -9.7815965650       18.3107237262       10.4956501407  SOLV      5106            0.0000000000
     15438      5117  TIP3      H2             -9.5688489664       19.4887008130       11.3807443043  SOLV      5106            0.0000000000
     15439      5118  TIP3      OH2            -4.5835156511        5.6667220315       11.0545901943  SOLV      5107            0.0000000000
     15440      5118  TIP3      H1             -4.8495360684        5.0506019517       11.7693081986  SOLV      5107            0.0000000000
     15441      5118  TIP3      H2             -3.6870052565        5.3502267907       10.8332986381  SOLV      5107            0.0000000000
     15442      5119  TIP3      OH2             0.8262700677        4.7220691010       10.4672065881  SOLV      5108            0.0000000000
     15443      5119  TIP3      H1              1.1911898316        5.1882574537        9.6813424614  SOLV      5108            0.0000000000
     15444      5119  TIP3      H2             -0.1280936941        4.8696287523       10.3589896323  SOLV      5108            0.0000000000
     15445      5120  TIP3      OH2             1.7777584372        5.6408023184        8.0807729276  SOLV      5109            0.0000000000
     15446      5120  TIP3      H1              2.5032216472        5.0919267290        7.7053675637  SOLV      5109            0.0000000000
     15447      5120  TIP3      H2              2.1514480782        6.5399919347        7.9273976468  SOLV      5109            0.0000000000
     15448      5121  TIP3      OH2           -13.9915203688        1.6518146374        8.0816882317  SOLV      5110            0.0000000000
     15449      5121  TIP3      H1            -13.7243555124        2.1712692498        7.3026826667  SOLV      5110            0.0000000000
     15450      5121  TIP3      H2            -14.1718214752        2.3348684141        8.7494363768  SOLV      5110            0.0000000000
     15451      5122  TIP3      OH2            -2.0577600349        4.7123902570       10.1806967761  SOLV      5111            0.0000000000
     15452      5122  TIP3      H1             -1.9124613016        4.2847556791        9.3279073055  SOLV      5111            0.0000000000
     15453      5122  TIP3      H2             -2.1033019025        3.9237107285       10.7781690614  SOLV      5111            0.0000000000
     15454      5123  TIP3      OH2            -1.6658746187        3.9508346746        5.8610976677  SOLV      5112            0.0000000000
     15455      5123  TIP3      H1             -2.5855500185        4.2557921230        5.8706752893  SOLV      5112            0.0000000000
     15456      5123  TIP3      H2             -1.7596180634        3.0850622176        6.3187530096  SOLV      5112            0.0000000000
     15457      5124  TIP3      OH2           -16.8462796719       17.4078402202        5.7817438617  SOLV      5113            0.0000000000
     15458      5124  TIP3      H1            -17.7059365631       17.0865300402        5.4491166597  SOLV      5113            0.0000000000
     15459      5124  TIP3      H2            -16.9067279551       18.3371690378        5.4884794647  SOLV      5113            0.0000000000
     15460      5125  TIP3      OH2           -12.9227077058        3.1187275593        5.7043713675  SOLV      5114            0.0000000000
     15461      5125  TIP3      H1            -12.4851561749        2.4811081150        5.0987912758  SOLV      5114            0.0000000000
     15462      5125  TIP3      H2            -12.1690977695        3.4853144774        6.1828330089  SOLV      5114            0.0000000000
     15463      5126  TIP3      OH2            -7.5499389791        5.0651200239        6.9679560285  SOLV      5115            0.0000000000
     15464      5126  TIP3      H1             -6.8053944390        4.5853910290        7.3986556577  SOLV      5115            0.0000000000
     15465      5126  TIP3      H2             -7.1054745159        5.9428289542        6.8720139292  SOLV      5115            0.0000000000
     15466      5127  TIP3      OH2            -9.0850604470       19.1475155491        1.6422939766  SOLV      5116            0.0000000000
     15467      5127  TIP3      H1             -8.2141038076       19.3909067960        1.2640464225  SOLV      5116            0.0000000000
     15468      5127  TIP3      H2             -9.3106695824       18.4011661401        1.0405068285  SOLV      5116            0.0000000000
     15469      5128  TIP3      OH2            -1.8751557736       20.4298007538        2.5792506649  SOLV      5117            0.0000000000
     15470      5128  TIP3      H1             -1.9573292962       19.4524610340        2.4658221078  SOLV      5117            0.0000000000
     15471      5128  TIP3      H2             -2.3498870962       20.7430355933        1.7829360173  SOLV      5117            0.0000000000
     15472      5129  TIP3      OH2            -9.8020299012        5.8515707632       20.4376927116  SOLV      5118            0.0000000000
     15473      5129  TIP3      H1            -10.1449169681        5.0302197911       20.8266899690  SOLV      5118            0.0000000000
     15474      5129  TIP3      H2             -8.8585743579        5.7889225884       20.6898532075  SOLV      5118            0.0000000000
     15475      5130  TIP3      OH2            -7.3044419248        5.7017171004       21.6222982159  SOLV      5119            0.0000000000
     15476      5130  TIP3      H1             -6.4466698101        5.5047319788       21.2085215686  SOLV      5119            0.0000000000
     15477      5130  TIP3      H2             -7.4012957206        4.9607923962       22.2522854652  SOLV      5119            0.0000000000
     15478      5131  TIP3      OH2           -16.0698490256       17.5366748088        2.1685059991  SOLV      5120            0.0000000000
     15479      5131  TIP3      H1            -16.0052846151       17.7569179083        3.1071096347  SOLV      5120            0.0000000000
     15480      5131  TIP3      H2            -15.2014859066       17.0989000700        1.9995878385  SOLV      5120            0.0000000000
     15481      5132  TIP3      OH2             0.9868630893        6.3590556488       19.4986887753  SOLV      5121            0.0000000000
     15482      5132  TIP3      H1              1.1756839273        6.0566626221       20.4131156143  SOLV      5121            0.0000000000
     15483      5132  TIP3      H2              1.8772339474        6.3137738719       19.0904952680  SOLV      5121            0.0000000000
     15484      5133  TIP3      OH2             0.3154613452       21.8303106017       14.4338353529  SOLV      5122            0.0000000000
     15485      5133  TIP3      H1             -0.4723517885       21.5335149215       13.9326880035  SOLV      5122            0.0000000000
     15486      5133  TIP3      H2              0.1232586805       22.7859544193       14.5102026556  SOLV      5122            0.0000000000
     15487      5134  TIP3      OH2            13.0256502891       15.5604838772        2.0833566219  SOLV      5123            0.0000000000
     15488      5134  TIP3      H1             12.7069282577       16.4636089056        1.8747533860  SOLV      5123            0.0000000000
     15489      5134  TIP3      H2             12.2889293814       15.0399447291        1.7161874876  SOLV      5123            0.0000000000
     15490      5135  TIP3      OH2            12.7550280073       15.5163783115        6.0047076199  SOLV      5124            0.0000000000
     15491      5135  TIP3      H1             13.2326607724       15.3338637030        6.8345729843  SOLV      5124            0.0000000000
     15492      5135  TIP3      H2             12.3841723072       14.6444384507        5.7907178004  SOLV      5124            0.0000000000
     15493      5136  TIP3      OH2             5.9685818488       14.4680439674        9.5712819777  SOLV      5125            0.0000000000
     15494      5136  TIP3      H1              6.2718528366       13.7846804381       10.1966919220  SOLV      5125            0.0000000000
     15495      5136  TIP3      H2              6.7570083365       15.0235618679        9.5099267849  SOLV      5125            0.0000000000
     15496      5137  TIP3      OH2            15.5026337248       18.6431806104        2.7421483026  SOLV      5126            0.0000000000
     15497      5137  TIP3      H1             15.3889701055       17.9282924711        3.3792183722  SOLV      5126            0.0000000000
     15498      5137  TIP3      H2             15.8304057291       19.3657397811        3.3029480022  SOLV      5126            0.0000000000
     15499      5138  TIP3      OH2             5.7466697001       18.6266304466        6.7592285830  SOLV      5127            0.0000000000
     15500      5138  TIP3      H1              5.6536933728       17.6493309450        6.7682452181  SOLV      5127            0.0000000000
     15501      5138  TIP3      H2              6.7157611376       18.7069492658        6.7103165691  SOLV      5127            0.0000000000
     15502      5139  TIP3      OH2             2.7941217544       10.6601603163        4.5814765715  SOLV      5128            0.0000000000
     15503      5139  TIP3      H1              2.2704440454       11.4590072320        4.7651905553  SOLV      5128            0.0000000000
     15504      5139  TIP3      H2              2.1169039070       10.0965755735        4.1691498115  SOLV      5128            0.0000000000
     15505      5140  TIP3      OH2             3.3504685535       13.5060566102        6.4405547158  SOLV      5129            0.0000000000
     15506      5140  TIP3      H1              3.8557985711       12.7280675757        6.7669472987  SOLV      5129            0.0000000000
     15507      5140  TIP3      H2              3.9561265454       13.8728473325        5.7844597445  SOLV      5129            0.0000000000
     15508      5141  TIP3      OH2            12.0170686794       23.2122571811        2.9395223763  SOLV      5130            0.0000000000
     15509      5141  TIP3      H1             12.4035149901       22.5057720777        2.3793297216  SOLV      5130            0.0000000000
     15510      5141  TIP3      H2             11.8760215256       22.7465111487        3.7685726274  SOLV      5130            0.0000000000
     15511      5142  TIP3      OH2            10.9971774104       17.8388779051        6.3869207562  SOLV      5131            0.0000000000
     15512      5142  TIP3      H1             11.4091201764       17.0403990135        6.0032150864  SOLV      5131            0.0000000000
     15513      5142  TIP3      H2             11.8155967631       18.3339044353        6.5969555356  SOLV      5131            0.0000000000
     15514      5143  TIP3      OH2            21.1466045799       10.9957836921        6.4129844517  SOLV      5132            0.0000000000
     15515      5143  TIP3      H1             21.3690056087       11.8517102246        6.8348747517  SOLV      5132            0.0000000000
     15516      5143  TIP3      H2             21.4039390270       11.1772952012        5.4882048208  SOLV      5132            0.0000000000
     15517      5144  TIP3      OH2            15.0985164220       12.7966964274        6.7361862088  SOLV      5133            0.0000000000
     15518      5144  TIP3      H1             15.4453427204       11.9245997157        6.9537123500  SOLV      5133            0.0000000000
     15519      5144  TIP3      H2             14.7386020090       12.6507687810        5.8366301457  SOLV      5133            0.0000000000
     15520      5145  TIP3      OH2             8.5754213581        9.4148139033        6.2979899861  SOLV      5134            0.0000000000
     15521      5145  TIP3      H1              8.3214312733       10.1398873543        5.6881430451  SOLV      5134            0.0000000000
     15522      5145  TIP3      H2              8.0659235601        8.6729829232        5.8965961602  SOLV      5134            0.0000000000
     15523      5146  TIP3      OH2            15.6104468337       10.5868911203        2.6109456358  SOLV      5135            0.0000000000
     15524      5146  TIP3      H1             16.5671321283       10.5856199507        2.4938248728  SOLV      5135            0.0000000000
     15525      5146  TIP3      H2             15.3389342612       10.8897396609        1.7286816824  SOLV      5135            0.0000000000
     15526      5147  TIP3      OH2             4.8456072266       11.4372682134        7.4389906277  SOLV      5136            0.0000000000
     15527      5147  TIP3      H1              5.6800554679       11.2323814538        7.9008870141  SOLV      5136            0.0000000000
     15528      5147  TIP3      H2              4.9600223530       10.8875202755        6.6346312276  SOLV      5136            0.0000000000
     15529      5148  TIP3      OH2             9.2012105107       13.4246194703        5.4122353450  SOLV      5137            0.0000000000
     15530      5148  TIP3      H1             10.1444121110       13.1812096062        5.5131355105  SOLV      5137            0.0000000000
     15531      5148  TIP3      H2              8.8122291788       12.5887139600        5.0745254008  SOLV      5137            0.0000000000
     15532      5149  TIP3      OH2            21.7211869270       13.1367859358        8.1789049921  SOLV      5138            0.0000000000
     15533      5149  TIP3      H1             21.0190152895       13.7409066371        7.8526481437  SOLV      5138            0.0000000000
     15534      5149  TIP3      H2             22.1163394185       13.6639718877        8.8909536847  SOLV      5138            0.0000000000
     15535      5150  TIP3      OH2             8.4720713023        9.2697961933       10.7102036468  SOLV      5139            0.0000000000
     15536      5150  TIP3      H1              7.8841845140        9.6242096242       10.0160867025  SOLV      5139            0.0000000000
     15537      5150  TIP3      H2              7.9255072918        9.4443625868       11.5059063971  SOLV      5139            0.0000000000
     15538      5151  TIP3      OH2            11.8319581588       17.7204794073        0.7979244827  SOLV      5140            0.0000000000
     15539      5151  TIP3      H1             11.5181268223       17.6192107035       -0.1093382298  SOLV      5140            0.0000000000
     15540      5151  TIP3      H2             11.4059577473       18.5650055701        1.0524545834  SOLV      5140            0.0000000000
     15541      5152  TIP3      OH2             9.5439667621       17.0293003345        8.6019800585  SOLV      5141            0.0000000000
     15542      5152  TIP3      H1              8.9357829764       17.7204728041        8.9486154379  SOLV      5141            0.0000000000
     15543      5152  TIP3      H2              9.9820546926       17.4989397259        7.8632297025  SOLV      5141            0.0000000000
     15544      5153  TIP3      OH2             7.2232514082       10.4005324693        8.5042438276  SOLV      5142            0.0000000000
     15545      5153  TIP3      H1              7.8308607567       11.1377788267        8.7335734241  SOLV      5142            0.0000000000
     15546      5153  TIP3      H2              7.7201838029        9.9946630088        7.7580204511  SOLV      5142            0.0000000000
     15547      5154  TIP3      OH2             7.8429899856       19.0076488892        9.5911385505  SOLV      5143            0.0000000000
     15548      5154  TIP3      H1              7.5859872437       19.8900537363        9.2517555574  SOLV      5143            0.0000000000
     15549      5154  TIP3      H2              7.0586394963       18.8237247660       10.1521242617  SOLV      5143            0.0000000000
     15550      5155  TIP3      OH2             1.7183177712       15.8988338602        1.9706333451  SOLV      5144            0.0000000000
     15551      5155  TIP3      H1              1.3145234842       16.1604311945        1.1245925341  SOLV      5144            0.0000000000
     15552      5155  TIP3      H2              2.0256321862       16.7613785651        2.3197690000  SOLV      5144            0.0000000000
     15553      5156  TIP3      OH2            16.0949692416       21.1132227992        4.3320356048  SOLV      5145            0.0000000000
     15554      5156  TIP3      H1             15.2031081916       20.9680401806        4.7250839947  SOLV      5145            0.0000000000
     15555      5156  TIP3      H2             15.9628614417       21.9740716270        3.8934909691  SOLV      5145            0.0000000000
     15556      5157  TIP3      OH2            18.7987077806        9.8582416324        7.2658041589  SOLV      5146            0.0000000000
     15557      5157  TIP3      H1             18.5025470963       10.5624208798        7.8657313545  SOLV      5146            0.0000000000
     15558      5157  TIP3      H2             19.6783160836       10.2261357272        6.9946955810  SOLV      5146            0.0000000000
     15559      5158  TIP3      OH2            12.0120212346        6.4451277163        7.9208547588  SOLV      5147            0.0000000000
     15560      5158  TIP3      H1             11.8384884196        5.4943503840        8.0745289070  SOLV      5147            0.0000000000
     15561      5158  TIP3      H2             11.2197777335        6.8326200081        8.3553540605  SOLV      5147            0.0000000000
     15562      5159  TIP3      OH2            13.0940729355       21.5045908842        1.0653005049  SOLV      5148            0.0000000000
     15563      5159  TIP3      H1             13.5961169838       20.6726653060        0.8833329155  SOLV      5148            0.0000000000
     15564      5159  TIP3      H2             13.7118367188       22.1507530754        0.6548055211  SOLV      5148            0.0000000000
     15565      5160  TIP3      OH2            14.5229024932       19.3407692440        0.2564101415  SOLV      5149            0.0000000000
     15566      5160  TIP3      H1             14.3239687058       18.5057673865       -0.1890850631  SOLV      5149            0.0000000000
     15567      5160  TIP3      H2             14.9279741431       19.0244416092        1.0954883083  SOLV      5149            0.0000000000
     15568      5161  TIP3      OH2            18.3411983826       19.9260253360        7.5814715687  SOLV      5150            0.0000000000
     15569      5161  TIP3      H1             18.5344685415       19.1513807006        7.0115909106  SOLV      5150            0.0000000000
     15570      5161  TIP3      H2             18.2210365597       20.6492560157        6.9343122867  SOLV      5150            0.0000000000
     15571      5162  TIP3      OH2            11.3328421980       14.0839669917        0.4427065416  SOLV      5151            0.0000000000
     15572      5162  TIP3      H1             10.5396155940       14.6079877673        0.2124954945  SOLV      5151            0.0000000000
     15573      5162  TIP3      H2             11.7870167132       14.0187141679       -0.4177325884  SOLV      5151            0.0000000000
     15574      5163  TIP3      OH2            10.9015255562       11.9663232792       -2.5123436150  SOLV      5152            0.0000000000
     15575      5163  TIP3      H1             11.5971780373       12.4607775658       -2.0402701195  SOLV      5152            0.0000000000
     15576      5163  TIP3      H2             11.4429055561       11.2511703500       -2.9040498715  SOLV      5152            0.0000000000
     15577      5164  TIP3      OH2            14.7510219681       14.9168176401        0.0578607947  SOLV      5153            0.0000000000
     15578      5164  TIP3      H1             14.2379315785       15.1635622370        0.8613217406  SOLV      5153            0.0000000000
     15579      5164  TIP3      H2             15.6127881844       14.6801831256        0.4637421555  SOLV      5153            0.0000000000
     15580      5165  TIP3      OH2            17.1053015832       15.2731471035        9.3403500766  SOLV      5154            0.0000000000
     15581      5165  TIP3      H1             17.0965850146       16.1234623401        9.8204325275  SOLV      5154            0.0000000000
     15582      5165  TIP3      H2             16.3005570184       15.3684986633        8.7972397184  SOLV      5154            0.0000000000
     15583      5166  TIP3      OH2             7.1131638788       14.8753057436        4.2949494340  SOLV      5155            0.0000000000
     15584      5166  TIP3      H1              6.7056105426       14.2903284513        3.6196998810  SOLV      5155            0.0000000000
     15585      5166  TIP3      H2              7.8766122105       14.3395015638        4.5965658621  SOLV      5155            0.0000000000
     15586      5167  TIP3      OH2             8.4300645342       19.0272898556        5.7260379512  SOLV      5156            0.0000000000
     15587      5167  TIP3      H1              8.2371903211       18.6773353601        4.8438249348  SOLV      5156            0.0000000000
     15588      5167  TIP3      H2              9.3161844165       18.6519472404        5.9071402257  SOLV      5156            0.0000000000
     15589      5168  TIP3      OH2             8.4664690192       14.5970464257        7.8447626274  SOLV      5157            0.0000000000
     15590      5168  TIP3      H1              8.7852838088       14.3506347910        6.9511584620  SOLV      5157            0.0000000000
     15591      5168  TIP3      H2              8.9028365571       15.4610129049        7.9997442324  SOLV      5157            0.0000000000
     15592      5169  TIP3      OH2            13.7220314658       21.0004582990        5.6036267961  SOLV      5158            0.0000000000
     15593      5169  TIP3      H1             13.5766434569       21.7506671399        6.2019527082  SOLV      5158            0.0000000000
     15594      5169  TIP3      H2             13.5854309023       20.2170774874        6.1769397238  SOLV      5158            0.0000000000
     15595      5170  TIP3      OH2             9.8835018440       20.1134782703       11.0715932382  SOLV      5159            0.0000000000
     15596      5170  TIP3      H1              9.2797168567       20.7306729240       11.5420252244  SOLV      5159            0.0000000000
     15597      5170  TIP3      H2              9.2245422972       19.6012272266       10.5579716695  SOLV      5159            0.0000000000
     15598      5171  TIP3      OH2            13.1553028788       13.3986728527       -1.6011803746  SOLV      5160            0.0000000000
     15599      5171  TIP3      H1             13.7727773225       13.9753634578       -1.0950189381  SOLV      5160            0.0000000000
     15600      5171  TIP3      H2             13.4224009057       13.6228348338       -2.5254520469  SOLV      5160            0.0000000000
     15601      5172  TIP3      OH2             7.4337361603       15.6891133501       12.1454251535  SOLV      5161            0.0000000000
     15602      5172  TIP3      H1              7.4834928973       16.5815510955       12.5437184580  SOLV      5161            0.0000000000
     15603      5172  TIP3      H2              6.4801388741       15.5020156538       12.2675763924  SOLV      5161            0.0000000000
     15604      5173  TIP3      OH2            10.6572857778       20.2493876366        1.1182520544  SOLV      5162            0.0000000000
     15605      5173  TIP3      H1             11.4857145357       20.7527865743        1.1894992274  SOLV      5162            0.0000000000
     15606      5173  TIP3      H2             10.0621969498       20.8818063239        0.6934659336  SOLV      5162            0.0000000000
     15607      5174  TIP3      OH2             7.8265226198       21.7395206587       11.9389894897  SOLV      5163            0.0000000000
     15608      5174  TIP3      H1              7.4582284656       21.7972306455       11.0406573672  SOLV      5163            0.0000000000
     15609      5174  TIP3      H2              7.0202034266       21.5813199520       12.4822116519  SOLV      5163            0.0000000000
     15610      5175  TIP3      OH2            18.3392325687        5.8292577246       -1.1363633508  SOLV      5164            0.0000000000
     15611      5175  TIP3      H1             17.4907074348        6.0974507465       -0.7318928536  SOLV      5164            0.0000000000
     15612      5175  TIP3      H2             18.5719506170        6.6379505570       -1.6435878117  SOLV      5164            0.0000000000
     15613      5176  TIP3      OH2             5.7940961204       13.3243695652        2.3247156555  SOLV      5165            0.0000000000
     15614      5176  TIP3      H1              5.0842942140       13.7468585324        1.7972142945  SOLV      5165            0.0000000000
     15615      5176  TIP3      H2              5.4531777282       12.4299741506        2.4299993850  SOLV      5165            0.0000000000
     15616      5177  TIP3      OH2            16.3977189295       19.5331756359       -5.6083405427  SOLV      5166            0.0000000000
     15617      5177  TIP3      H1             16.5000526034       20.4953544750       -5.7715678065  SOLV      5166            0.0000000000
     15618      5177  TIP3      H2             17.3217077097       19.2201469199       -5.7284400139  SOLV      5166            0.0000000000
     15619      5178  TIP3      OH2             3.5892371601       17.1648756361       11.4145866213  SOLV      5167            0.0000000000
     15620      5178  TIP3      H1              2.9111440528       16.9581239738       10.7388376736  SOLV      5167            0.0000000000
     15621      5178  TIP3      H2              3.9668793864       16.2860714431       11.6198044653  SOLV      5167            0.0000000000
     15622      5179  TIP3      OH2             2.1511983478       19.0828889001        7.7044288437  SOLV      5168            0.0000000000
     15623      5179  TIP3      H1              3.1138271394       19.0330156476        7.6273966722  SOLV      5168            0.0000000000
     15624      5179  TIP3      H2              2.0438308325       19.8522030011        8.2840124941  SOLV      5168            0.0000000000
     15625      5180  TIP3      OH2            20.6518610488       23.4049796548        7.8741837106  SOLV      5169            0.0000000000
     15626      5180  TIP3      H1             20.5838435985       22.4865247209        8.1960661167  SOLV      5169            0.0000000000
     15627      5180  TIP3      H2             20.5215177698       23.9289015351        8.6906440228  SOLV      5169            0.0000000000
     15628      5181  TIP3      OH2            11.8337368781       21.4111728824        9.6168044933  SOLV      5170            0.0000000000
     15629      5181  TIP3      H1             11.7718110357       22.3490725223        9.9027098585  SOLV      5170            0.0000000000
     15630      5181  TIP3      H2             11.1316893024       21.0083804296       10.1765407856  SOLV      5170            0.0000000000
     15631      5182  TIP3      OH2             9.4835247895       22.7120909620       -0.8241337139  SOLV      5171            0.0000000000
     15632      5182  TIP3      H1              9.0022660132       22.5344099396       -1.6515436798  SOLV      5171            0.0000000000
     15633      5182  TIP3      H2              9.1404508941       23.5850571436       -0.5627549581  SOLV      5171            0.0000000000
     15634      5183  TIP3      OH2             3.8389299366       21.2071276523        3.0181652798  SOLV      5172            0.0000000000
     15635      5183  TIP3      H1              4.2977036952       21.1230360861        3.8854911189  SOLV      5172            0.0000000000
     15636      5183  TIP3      H2              3.3452607461       20.3727845885        2.9871113015  SOLV      5172            0.0000000000
     15637      5184  TIP3      OH2            11.4624741556       21.7613070911       -4.4688010323  SOLV      5173            0.0000000000
     15638      5184  TIP3      H1             12.0345303131       21.0421356851       -4.8191766073  SOLV      5173            0.0000000000
     15639      5184  TIP3      H2             11.8201096565       21.8654766761       -3.5612863968  SOLV      5173            0.0000000000
     15640      5185  TIP3      OH2            11.9911906394       22.2630214106       -1.7857635390  SOLV      5174            0.0000000000
     15641      5185  TIP3      H1             11.1145521973       22.3411694052       -1.3472128509  SOLV      5174            0.0000000000
     15642      5185  TIP3      H2             12.5190743537       21.8600482713       -1.0784802542  SOLV      5174            0.0000000000
     15643      5186  TIP3      OH2            19.6735258180       14.8909294593       11.0478174820  SOLV      5175            0.0000000000
     15644      5186  TIP3      H1             18.8365574735       15.0008355860       10.5686784725  SOLV      5175            0.0000000000
     15645      5186  TIP3      H2             19.7764878220       13.9184248022       11.0542040919  SOLV      5175            0.0000000000
     15646      5187  TIP3      OH2             5.6526098796       18.9796866528       11.2238172200  SOLV      5176            0.0000000000
     15647      5187  TIP3      H1              6.1301870556       18.8417271899       12.0658339027  SOLV      5176            0.0000000000
     15648      5187  TIP3      H2              4.9001896885       18.3586969230       11.3173007144  SOLV      5176            0.0000000000
     15649      5188  TIP3      OH2             9.6168460817        7.2247488691        9.1688231511  SOLV      5177            0.0000000000
     15650      5188  TIP3      H1              8.7416743937        6.9005910200        8.8658041754  SOLV      5177            0.0000000000
     15651      5188  TIP3      H2              9.3256364118        8.0093072335        9.6744875112  SOLV      5177            0.0000000000
     15652      5189  TIP3      OH2            14.9664755043        8.3926099188       11.0777808585  SOLV      5178            0.0000000000
     15653      5189  TIP3      H1             15.6446393151        8.1406012482       11.7363182144  SOLV      5178            0.0000000000
     15654      5189  TIP3      H2             14.1287340138        8.2101461714       11.5531570453  SOLV      5178            0.0000000000
     15655      5190  TIP3      OH2            17.3246658756       12.6371865665       10.2006936275  SOLV      5179            0.0000000000
     15656      5190  TIP3      H1             16.8528274847       12.6008039076       11.0646751307  SOLV      5179            0.0000000000
     15657      5190  TIP3      H2             17.1066796431       13.5401504805        9.8901478563  SOLV      5179            0.0000000000
     15658      5191  TIP3      OH2            13.9353396331       13.8856956541       -4.1658592586  SOLV      5180            0.0000000000
     15659      5191  TIP3      H1             13.6084529791       13.6659540785       -5.0572580969  SOLV      5180            0.0000000000
     15660      5191  TIP3      H2             14.7918886504       14.3039781554       -4.3838533541  SOLV      5180            0.0000000000
     15661      5192  TIP3      OH2            10.9703078887        7.7981080842       -1.1972942309  SOLV      5181            0.0000000000
     15662      5192  TIP3      H1             10.6470487289        7.8374597639       -0.2811968049  SOLV      5181            0.0000000000
     15663      5192  TIP3      H2             10.9791491470        6.8551732592       -1.3558469122  SOLV      5181            0.0000000000
     15664      5193  TIP3      OH2             8.9837831760       12.3694547575        9.3221248015  SOLV      5182            0.0000000000
     15665      5193  TIP3      H1              8.4635717886       12.5415997965       10.1353456248  SOLV      5182            0.0000000000
     15666      5193  TIP3      H2              8.7986234410       13.1886794730        8.8077530726  SOLV      5182            0.0000000000
     15667      5194  TIP3      OH2             7.7774496111       11.2429190456        4.4655417280  SOLV      5183            0.0000000000
     15668      5194  TIP3      H1              6.8540630542       10.9655246014        4.6525914575  SOLV      5183            0.0000000000
     15669      5194  TIP3      H2              7.8932784906       10.8473532176        3.5708103949  SOLV      5183            0.0000000000
     15670      5195  TIP3      OH2            12.6542623201       12.0893765021        1.8338038459  SOLV      5184            0.0000000000
     15671      5195  TIP3      H1             12.1583974613       12.8088736307        1.3843421641  SOLV      5184            0.0000000000
     15672      5195  TIP3      H2             13.2374571145       11.7820991653        1.1087432497  SOLV      5184            0.0000000000
     15673      5196  TIP3      OH2            14.4212586822       14.8441018387       12.5753503410  SOLV      5185            0.0000000000
     15674      5196  TIP3      H1             14.1899333143       14.1270833867       13.2069902678  SOLV      5185            0.0000000000
     15675      5196  TIP3      H2             15.3606232087       14.9805614950       12.8055032240  SOLV      5185            0.0000000000
     15676      5197  TIP3      OH2            14.1491285128       12.3186294280        4.2363276272  SOLV      5186            0.0000000000
     15677      5197  TIP3      H1             13.5764208620       12.6627986052        3.5188576748  SOLV      5186            0.0000000000
     15678      5197  TIP3      H2             14.5809190137       11.5903156168        3.7389557644  SOLV      5186            0.0000000000
     15679      5198  TIP3      OH2             7.1721684799       12.6420900880       11.3994890547  SOLV      5187            0.0000000000
     15680      5198  TIP3      H1              7.4119514869       13.2843088707       12.0837324584  SOLV      5187            0.0000000000
     15681      5198  TIP3      H2              7.0229510362       11.8294564191       11.9217344581  SOLV      5187            0.0000000000
     15682      5199  TIP3      OH2             7.7565406883        7.4649384643       -1.4759324478  SOLV      5188            0.0000000000
     15683      5199  TIP3      H1              7.6514217407        7.3166459387       -0.5180983135  SOLV      5188            0.0000000000
     15684      5199  TIP3      H2              6.9457568601        7.9551621089       -1.6826724975  SOLV      5188            0.0000000000
     15685      5200  TIP3      OH2             3.0458965094        7.8783311878        7.2653348868  SOLV      5189            0.0000000000
     15686      5200  TIP3      H1              3.8354715107        8.1710789678        7.7615958958  SOLV      5189            0.0000000000
     15687      5200  TIP3      H2              3.4071813003        7.5302167469        6.4325053556  SOLV      5189            0.0000000000
     15688      5201  TIP3      OH2             2.9463114558        7.9038834876        2.5600019359  SOLV      5190            0.0000000000
     15689      5201  TIP3      H1              3.3631480028        8.0380337396        1.6910580123  SOLV      5190            0.0000000000
     15690      5201  TIP3      H2              2.2612079346        8.5888240731        2.5652268905  SOLV      5190            0.0000000000
     15691      5202  TIP3      OH2            14.2090188977       14.7926119324        8.3198704238  SOLV      5191            0.0000000000
     15692      5202  TIP3      H1             14.6000491725       14.1105021141        7.7289790596  SOLV      5191            0.0000000000
     15693      5202  TIP3      H2             13.9965518333       14.2392281726        9.0990098461  SOLV      5191            0.0000000000
     15694      5203  TIP3      OH2            11.0996774358        9.4201177266        5.0812354530  SOLV      5192            0.0000000000
     15695      5203  TIP3      H1             10.2195602565        9.3454339290        5.5077809023  SOLV      5192            0.0000000000
     15696      5203  TIP3      H2             11.6622246794        9.5657390569        5.8527112971  SOLV      5192            0.0000000000
     15697      5204  TIP3      OH2             5.4080113943       10.0183179968        5.1310936473  SOLV      5193            0.0000000000
     15698      5204  TIP3      H1              4.4684287158       10.0930812546        4.8410201483  SOLV      5193            0.0000000000
     15699      5204  TIP3      H2              5.6270457616        9.0950690432        4.9056112005  SOLV      5193            0.0000000000
     15700      5205  TIP3      OH2             8.0491125117       10.0055065817        2.0536148901  SOLV      5194            0.0000000000
     15701      5205  TIP3      H1              8.9803885601       10.1111231278        1.7884966475  SOLV      5194            0.0000000000
     15702      5205  TIP3      H2              7.5557712259       10.2196078427        1.2282620117  SOLV      5194            0.0000000000
     15703      5206  TIP3      OH2            15.8442916500        9.7854577585        6.7565216639  SOLV      5195            0.0000000000
     15704      5206  TIP3      H1             15.7191173296       10.0068824946        7.6875390935  SOLV      5195            0.0000000000
     15705      5206  TIP3      H2             15.0101219698        9.2902007129        6.5835669072  SOLV      5195            0.0000000000
     15706      5207  TIP3      OH2             6.5400121795       10.3905877016       -0.1880898751  SOLV      5196            0.0000000000
     15707      5207  TIP3      H1              5.8874675355        9.8605618119       -0.6804021015  SOLV      5196            0.0000000000
     15708      5207  TIP3      H2              7.0855420251       10.7269046102       -0.9294799198  SOLV      5196            0.0000000000
     15709      5208  TIP3      OH2            17.3590292246       26.9024431379        9.0113735892  SOLV      5197            0.0000000000
     15710      5208  TIP3      H1             17.6272951923       27.7662214823        8.6152760775  SOLV      5197            0.0000000000
     15711      5208  TIP3      H2             18.0238251530       26.8744431929        9.7132411078  SOLV      5197            0.0000000000
     15712      5209  TIP3      OH2             7.2735329617       18.1966366711       13.4877947885  SOLV      5198            0.0000000000
     15713      5209  TIP3      H1              8.0649457486       18.4965512131       13.9783225884  SOLV      5198            0.0000000000
     15714      5209  TIP3      H2              6.6156014030       18.1959546951       14.2112742981  SOLV      5198            0.0000000000
     15715      5210  TIP3      OH2            11.8585367273       12.7520446651        6.0476225909  SOLV      5199            0.0000000000
     15716      5210  TIP3      H1             12.6015284096       12.3722440724        5.5515382159  SOLV      5199            0.0000000000
     15717      5210  TIP3      H2             11.9315912135       12.3231190705        6.9218910932  SOLV      5199            0.0000000000
     15718      5211  TIP3      OH2             7.0853456288        7.5722257123        4.9105767281  SOLV      5200            0.0000000000
     15719      5211  TIP3      H1              6.6910080069        6.8241539726        5.4123910535  SOLV      5200            0.0000000000
     15720      5211  TIP3      H2              7.4213962686        7.1136349599        4.1308698258  SOLV      5200            0.0000000000
     15721      5212  TIP3      OH2            11.6736451019       11.7863851187        8.8829775010  SOLV      5201            0.0000000000
     15722      5212  TIP3      H1             10.7565524130       12.0902047326        9.0543925537  SOLV      5201            0.0000000000
     15723      5212  TIP3      H2             12.2091771349       12.3861213442        9.4361045341  SOLV      5201            0.0000000000
     15724      5213  TIP3      OH2             9.0095275883       15.5938384982       -0.1282053211  SOLV      5202            0.0000000000
     15725      5213  TIP3      H1              8.2798750781       14.9494189229       -0.2497192089  SOLV      5202            0.0000000000
     15726      5213  TIP3      H2              8.8101909048       15.9350424900        0.7778955253  SOLV      5202            0.0000000000
     15727      5214  TIP3      OH2            13.2003913018       18.8833012898        9.8284632368  SOLV      5203            0.0000000000
     15728      5214  TIP3      H1             13.2954617009       18.6461450155       10.7601029318  SOLV      5203            0.0000000000
     15729      5214  TIP3      H2             12.6583269427       19.6908632037        9.8666192898  SOLV      5203            0.0000000000
     15730      5215  TIP3      OH2            14.4216695864       11.1932408494       -0.0731160535  SOLV      5204            0.0000000000
     15731      5215  TIP3      H1             15.3674724429       11.1919803787       -0.3096434070  SOLV      5204            0.0000000000
     15732      5215  TIP3      H2             14.0378318212       11.6872088185       -0.8219632491  SOLV      5204            0.0000000000
     15733      5216  TIP3      OH2             5.9602940711       15.8649557344        6.6277375958  SOLV      5205            0.0000000000
     15734      5216  TIP3      H1              6.3464332546       15.5721727809        5.7765350233  SOLV      5205            0.0000000000
     15735      5216  TIP3      H2              6.3958008464       15.2709276555        7.2565555920  SOLV      5205            0.0000000000
     15736      5217  TIP3      OH2            10.4705634503       17.1044538128       -1.8854994909  SOLV      5206            0.0000000000
     15737      5217  TIP3      H1              9.9821040802       17.9576889126       -1.8278968741  SOLV      5206            0.0000000000
     15738      5217  TIP3      H2              9.9421619982       16.5437971222       -1.2757857593  SOLV      5206            0.0000000000
     15739      5218  TIP3      OH2             4.7923636814       15.0159260240       12.7838157942  SOLV      5207            0.0000000000
     15740      5218  TIP3      H1              4.9475561147       14.8765015478       13.7379993589  SOLV      5207            0.0000000000
     15741      5218  TIP3      H2              4.0777675310       14.3774036396       12.6124016516  SOLV      5207            0.0000000000
     15742      5219  TIP3      OH2            12.0269294991       16.2330637391       12.9653638673  SOLV      5208            0.0000000000
     15743      5219  TIP3      H1             11.4016405055       15.6056890349       12.5717463485  SOLV      5208            0.0000000000
     15744      5219  TIP3      H2             12.8868779388       15.8550438382       12.6861577488  SOLV      5208            0.0000000000
     15745      5220  TIP3      OH2            14.6591309704       21.8452519432        8.7007896734  SOLV      5209            0.0000000000
     15746      5220  TIP3      H1             13.7390289702       21.5423528381        8.7809391922  SOLV      5209            0.0000000000
     15747      5220  TIP3      H2             14.8542688731       22.0659764592        9.6386107478  SOLV      5209            0.0000000000
     15748      5221  TIP3      OH2            18.6679467838       12.1280562857       -2.1054697980  SOLV      5210            0.0000000000
     15749      5221  TIP3      H1             18.0773666770       11.6361241704       -2.7234298531  SOLV      5210            0.0000000000
     15750      5221  TIP3      H2             18.6010859697       13.0171499058       -2.5275505826  SOLV      5210            0.0000000000
     15751      5222  TIP3      OH2            20.7632989328       20.6438521545        8.5694157521  SOLV      5211            0.0000000000
     15752      5222  TIP3      H1             19.8084016791       20.4741201304        8.4180939515  SOLV      5211            0.0000000000
     15753      5222  TIP3      H2             21.1174580776       20.3383741387        7.7042414566  SOLV      5211            0.0000000000
     15754      5223  TIP3      OH2            15.6930074831       20.3470740372       -2.9895851363  SOLV      5212            0.0000000000
     15755      5223  TIP3      H1             15.4974019042       19.6308601455       -2.3703570296  SOLV      5212            0.0000000000
     15756      5223  TIP3      H2             15.8894698396       19.8689729204       -3.8164866388  SOLV      5212            0.0000000000
     15757      5224  TIP3      OH2            15.3197270274       16.7974672369        5.6047153336  SOLV      5213            0.0000000000
     15758      5224  TIP3      H1             14.5312854885       16.2729544550        5.3897326160  SOLV      5213            0.0000000000
     15759      5224  TIP3      H2             16.0422153755       16.2522140526        5.2622634490  SOLV      5213            0.0000000000
     15760      5225  TIP3      OH2             6.9809765857       18.9088549983        2.9313666799  SOLV      5214            0.0000000000
     15761      5225  TIP3      H1              6.9473482796       19.7084908689        2.3739971757  SOLV      5214            0.0000000000
     15762      5225  TIP3      H2              6.0449897822       18.7150640899        3.0454870704  SOLV      5214            0.0000000000
     15763      5226  TIP3      OH2             2.6030842039       11.9085646291       -0.0075801202  SOLV      5215            0.0000000000
     15764      5226  TIP3      H1              3.0664018377       12.7464257478        0.2058068881  SOLV      5215            0.0000000000
     15765      5226  TIP3      H2              1.8321019536       11.9698794969        0.5992507575  SOLV      5215            0.0000000000
     15766      5227  TIP3      OH2             8.2312392680       16.5116005100        2.3017440889  SOLV      5216            0.0000000000
     15767      5227  TIP3      H1              7.9333658686       17.4183267042        2.5130825327  SOLV      5216            0.0000000000
     15768      5227  TIP3      H2              7.8964667856       16.0142558389        3.0700915958  SOLV      5216            0.0000000000
     15769      5228  TIP3      OH2             9.6708128646       22.2807690491        7.5858260829  SOLV      5217            0.0000000000
     15770      5228  TIP3      H1             10.0714482264       23.0237830472        7.0892393208  SOLV      5217            0.0000000000
     15771      5228  TIP3      H2             10.4417048922       21.9291704835        8.0584135583  SOLV      5217            0.0000000000
     15772      5229  TIP3      OH2             6.1229482228       21.2812240705        1.4220719045  SOLV      5218            0.0000000000
     15773      5229  TIP3      H1              5.2690380417       21.3628173456        1.8914795586  SOLV      5218            0.0000000000
     15774      5229  TIP3      H2              6.4464547124       22.2088678484        1.4633865455  SOLV      5218            0.0000000000
     15775      5230  TIP3      OH2            13.5688268551       18.6702302201        7.1022022512  SOLV      5219            0.0000000000
     15776      5230  TIP3      H1             13.5583211058       18.5429042748        8.0752851663  SOLV      5219            0.0000000000
     15777      5230  TIP3      H2             14.2371085183       18.0218999961        6.8004634947  SOLV      5219            0.0000000000
     15778      5231  TIP3      OH2            13.3091285532       17.6401867511       -3.9547432796  SOLV      5220            0.0000000000
     15779      5231  TIP3      H1             13.8598613599       17.4094639108       -3.1698352936  SOLV      5220            0.0000000000
     15780      5231  TIP3      H2             12.4477920718       17.3072543803       -3.6619319590  SOLV      5220            0.0000000000
     15781      5232  TIP3      OH2            15.8378074957       24.1751238567        7.8173874681  SOLV      5221            0.0000000000
     15782      5232  TIP3      H1             15.5181565851       23.3484862852        8.2533134103  SOLV      5221            0.0000000000
     15783      5232  TIP3      H2             15.2517847760       24.1196488942        7.0300386108  SOLV      5221            0.0000000000
     15784      5233  TIP3      OH2            16.7116726133       22.2927486478       -5.7848584163  SOLV      5222            0.0000000000
     15785      5233  TIP3      H1             17.0770179780       23.0261172597       -6.3014067921  SOLV      5222            0.0000000000
     15786      5233  TIP3      H2             15.9152024663       22.7277481613       -5.4201200446  SOLV      5222            0.0000000000
     15787      5234  TIP3      OH2             6.8385828145       10.0955885316       12.8221130026  SOLV      5223            0.0000000000
     15788      5234  TIP3      H1              5.8693948618       10.1227046185       12.9367706041  SOLV      5223            0.0000000000
     15789      5234  TIP3      H2              7.1094213995        9.5498862087       13.5773743610  SOLV      5223            0.0000000000
     15790      5235  TIP3      OH2            14.8615136394       16.9797321237       -1.7921337028  SOLV      5224            0.0000000000
     15791      5235  TIP3      H1             14.7496033176       16.2588773419       -1.1389047656  SOLV      5224            0.0000000000
     15792      5235  TIP3      H2             15.8299197282       16.9094154796       -1.9493456336  SOLV      5224            0.0000000000
     15793      5236  TIP3      OH2             4.0398666590       20.9213538623        9.1613387758  SOLV      5225            0.0000000000
     15794      5236  TIP3      H1              4.5829791090       20.2120269399        9.5411860704  SOLV      5225            0.0000000000
     15795      5236  TIP3      H2              4.2799052867       21.6645396573        9.7284401077  SOLV      5225            0.0000000000
     15796      5237  TIP3      OH2             6.8952837678       17.3927625590       -3.9774895914  SOLV      5226            0.0000000000
     15797      5237  TIP3      H1              7.0381643327       16.4623073721       -4.2322848415  SOLV      5226            0.0000000000
     15798      5237  TIP3      H2              6.6967144591       17.3000417602       -3.0242433302  SOLV      5226            0.0000000000
     15799      5238  TIP3      OH2             6.3419444242       17.4450895647       -1.2593831312  SOLV      5227            0.0000000000
     15800      5238  TIP3      H1              7.0978743395       17.1602149875       -0.7290852427  SOLV      5227            0.0000000000
     15801      5238  TIP3      H2              6.3849437242       18.4238459063       -1.1610441382  SOLV      5227            0.0000000000
     15802      5239  TIP3      OH2             3.6831865362       14.3436282486        0.7951109997  SOLV      5228            0.0000000000
     15803      5239  TIP3      H1              3.0189404971       14.8058013279        1.3499152646  SOLV      5228            0.0000000000
     15804      5239  TIP3      H2              3.8367158018       15.0243436142        0.1122026288  SOLV      5228            0.0000000000
     15805      5240  TIP3      OH2            15.6670887650       10.4296614225        9.3326946366  SOLV      5229            0.0000000000
     15806      5240  TIP3      H1             16.1110058394       11.1039863414        9.8781931482  SOLV      5229            0.0000000000
     15807      5240  TIP3      H2             15.3512468557        9.7905391377       10.0163493942  SOLV      5229            0.0000000000
     15808      5241  TIP3      OH2            13.8334036707        8.3173663344        1.2919884033  SOLV      5230            0.0000000000
     15809      5241  TIP3      H1             13.5468044967        8.5750896933        0.4019836840  SOLV      5230            0.0000000000
     15810      5241  TIP3      H2             14.3769931394        9.0760742350        1.5487151043  SOLV      5230            0.0000000000
     15811      5242  TIP3      OH2             9.0386598651       19.4034375870       -1.7892463069  SOLV      5231            0.0000000000
     15812      5242  TIP3      H1              8.1683519492       19.6516216308       -1.4205074116  SOLV      5231            0.0000000000
     15813      5242  TIP3      H2              9.2035431137       20.1619423421       -2.3665967017  SOLV      5231            0.0000000000
     15814      5243  TIP3      OH2            10.9250591751       10.0223821131        2.3886439295  SOLV      5232            0.0000000000
     15815      5243  TIP3      H1             11.5303110171       10.7680940370        2.1847270344  SOLV      5232            0.0000000000
     15816      5243  TIP3      H2             10.9484916891       10.0192063601        3.3672759563  SOLV      5232            0.0000000000
     15817      5244  TIP3      OH2            13.6889719946       13.1731523545       10.4846727693  SOLV      5233            0.0000000000
     15818      5244  TIP3      H1             13.8117084890       13.8553157990       11.1794505529  SOLV      5233            0.0000000000
     15819      5244  TIP3      H2             14.1671628899       12.4343329531       10.8821323022  SOLV      5233            0.0000000000
     15820      5245  TIP3      OH2            12.3999551288        7.3486993913        3.4842917737  SOLV      5234            0.0000000000
     15821      5245  TIP3      H1             12.0640312031        8.1840540816        3.8648873259  SOLV      5234            0.0000000000
     15822      5245  TIP3      H2             12.9369980187        7.6830433442        2.7283881264  SOLV      5234            0.0000000000
     15823      5246  TIP3      OH2             6.5006214651       20.1724312031       -1.0748878862  SOLV      5235            0.0000000000
     15824      5246  TIP3      H1              6.2124782771       20.8820475028       -1.6906723271  SOLV      5235            0.0000000000
     15825      5246  TIP3      H2              6.3412337467       20.5979217118       -0.2035045742  SOLV      5235            0.0000000000
     15826      5247  TIP3      OH2             7.5288374433        7.3176125850        1.2879033600  SOLV      5236            0.0000000000
     15827      5247  TIP3      H1              7.4550876184        8.2137903100        1.6631743736  SOLV      5236            0.0000000000
     15828      5247  TIP3      H2              8.4976988605        7.1842426248        1.3600846546  SOLV      5236            0.0000000000
     15829      5248  TIP3      OH2            19.9902505432       12.1637424293       10.3341422875  SOLV      5237            0.0000000000
     15830      5248  TIP3      H1             19.0100562113       12.1833432009       10.2707367845  SOLV      5237            0.0000000000
     15831      5248  TIP3      H2             20.2742491995       12.3139175715        9.4199805815  SOLV      5237            0.0000000000
     15832      5249  TIP3      OH2            16.5481980857       14.0851391094        4.0530673869  SOLV      5238            0.0000000000
     15833      5249  TIP3      H1             15.7673826016       13.5901446252        4.3363303124  SOLV      5238            0.0000000000
     15834      5249  TIP3      H2             17.2611740941       13.7016286186        4.6046809684  SOLV      5238            0.0000000000
     15835      5250  TIP3      OH2             3.6890230539       16.3926843245       -1.1793726111  SOLV      5239            0.0000000000
     15836      5250  TIP3      H1              4.4216789713       17.0324822793       -1.0952441873  SOLV      5239            0.0000000000
     15837      5250  TIP3      H2              4.0942168369       15.7908450800       -1.8424252657  SOLV      5239            0.0000000000
     15838      5251  TIP3      OH2             3.0386071088        9.1787332863        0.0127414784  SOLV      5240            0.0000000000
     15839      5251  TIP3      H1              3.1187620104       10.1516469260        0.0564030331  SOLV      5240            0.0000000000
     15840      5251  TIP3      H2              2.0871548808        9.0601013108       -0.0156646394  SOLV      5240            0.0000000000
     15841      5252  TIP3      OH2            16.1982683167       23.8861385317        3.6721915173  SOLV      5241            0.0000000000
     15842      5252  TIP3      H1             15.7712135638       24.3083560258        2.8908309505  SOLV      5241            0.0000000000
     15843      5252  TIP3      H2             17.1415399653       24.0365621436        3.4417931897  SOLV      5241            0.0000000000
     15844      5253  TIP3      OH2             6.9872792653        6.4010200421        8.8489863125  SOLV      5242            0.0000000000
     15845      5253  TIP3      H1              6.6679598175        6.0656209164        7.9815946290  SOLV      5242            0.0000000000
     15846      5253  TIP3      H2              6.8590275909        5.6173000416        9.4210578459  SOLV      5242            0.0000000000
     15847      5254  TIP3      OH2             2.3166011213       18.6019020843        2.6603616566  SOLV      5243            0.0000000000
     15848      5254  TIP3      H1              1.7097309420       18.9076587706        3.3448373347  SOLV      5243            0.0000000000
     15849      5254  TIP3      H2              1.9696170680       19.0553402349        1.8627118893  SOLV      5243            0.0000000000
     15850      5255  TIP3      OH2             3.9992014185       24.1420121652       13.4093181964  SOLV      5244            0.0000000000
     15851      5255  TIP3      H1              4.8412812717       24.1651306296       13.9204358786  SOLV      5244            0.0000000000
     15852      5255  TIP3      H2              3.8213278980       23.1873283184       13.4011914328  SOLV      5244            0.0000000000
     15853      5256  TIP3      OH2             8.6226452290       23.7830478809       13.6853336097  SOLV      5245            0.0000000000
     15854      5256  TIP3      H1              9.4880968601       23.6334562142       14.0939222212  SOLV      5245            0.0000000000
     15855      5256  TIP3      H2              8.5538721889       23.0427193978       13.0503555166  SOLV      5245            0.0000000000
     15856      5257  TIP3      OH2             8.5363068552       19.3985185279       -4.9060859830  SOLV      5246            0.0000000000
     15857      5257  TIP3      H1              7.9961936996       18.6818756182       -4.4970609703  SOLV      5246            0.0000000000
     15858      5257  TIP3      H2              9.3045545533       18.8888005321       -5.2193063928  SOLV      5246            0.0000000000
     15859      5258  TIP3      OH2            15.2348201031       22.7379913039       11.1602999024  SOLV      5247            0.0000000000
     15860      5258  TIP3      H1             15.0248721904       22.0322904170       11.8185893953  SOLV      5247            0.0000000000
     15861      5258  TIP3      H2             16.0351019689       23.1260789974       11.5397893162  SOLV      5247            0.0000000000
     15862      5259  TIP3      OH2            12.8945476711       19.7710286171       -5.7252949130  SOLV      5248            0.0000000000
     15863      5259  TIP3      H1             13.2752195829       19.1201488470       -5.1002114836  SOLV      5248            0.0000000000
     15864      5259  TIP3      H2             13.5050815004       19.7189399696       -6.4840210440  SOLV      5248            0.0000000000
     15865      5260  TIP3      OH2             5.2428411166       18.0993758785       15.3862769956  SOLV      5249            0.0000000000
     15866      5260  TIP3      H1              5.3991203099       17.1402552512       15.4597270269  SOLV      5249            0.0000000000
     15867      5260  TIP3      H2              4.3636691215       18.1279150924       14.9500513645  SOLV      5249            0.0000000000
     15868      5261  TIP3      OH2             5.0408015401       14.5154216787       -2.6156498786  SOLV      5250            0.0000000000
     15869      5261  TIP3      H1              5.6193611003       14.2294470695       -1.8837069629  SOLV      5250            0.0000000000
     15870      5261  TIP3      H2              5.7050190664       14.5756978962       -3.3382854631  SOLV      5250            0.0000000000
     15871      5262  TIP3      OH2            11.3396305357       18.9824252042       13.1396964945  SOLV      5251            0.0000000000
     15872      5262  TIP3      H1             10.8744926472       19.1808898899       12.3023178360  SOLV      5251            0.0000000000
     15873      5262  TIP3      H2             11.6199599014       18.0498814769       13.0236578970  SOLV      5251            0.0000000000
     15874      5263  TIP3      OH2            10.1867704679       16.5683478531       -4.5689683341  SOLV      5252            0.0000000000
     15875      5263  TIP3      H1             10.2021025282       16.6977479854       -3.5984038392  SOLV      5252            0.0000000000
     15876      5263  TIP3      H2             10.2019433432       15.5863807430       -4.6175737594  SOLV      5252            0.0000000000
     15877      5264  TIP3      OH2            16.3487427494       19.0909617476        9.3243843086  SOLV      5253            0.0000000000
     15878      5264  TIP3      H1             16.9940674276       19.4247042896        8.6683757467  SOLV      5253            0.0000000000
     15879      5264  TIP3      H2             15.5266463568       19.5074181515        9.0373218259  SOLV      5253            0.0000000000
     15880      5265  TIP3      OH2             6.4483156698       15.4639103092       15.2640951073  SOLV      5254            0.0000000000
     15881      5265  TIP3      H1              7.2414460746       15.0004984809       14.9730945624  SOLV      5254            0.0000000000
     15882      5265  TIP3      H2              6.7283747308       15.7893352240       16.1466301473  SOLV      5254            0.0000000000
     15883      5266  TIP3      OH2             7.0307962319       13.6624770754       -0.4913986788  SOLV      5255            0.0000000000
     15884      5266  TIP3      H1              6.7953219989       13.2530590491        0.3569059348  SOLV      5255            0.0000000000
     15885      5266  TIP3      H2              7.4337253211       12.9099574543       -0.9757174472  SOLV      5255            0.0000000000
     15886      5267  TIP3      OH2             9.8250394500       14.2980312568       11.8545841873  SOLV      5256            0.0000000000
     15887      5267  TIP3      H1              9.0287510955       14.8716263681       11.8907713188  SOLV      5256            0.0000000000
     15888      5267  TIP3      H2             10.2837763934       14.6370479480       11.0548878019  SOLV      5256            0.0000000000
     15889      5268  TIP3      OH2             8.1350499796       11.6353389066       -2.0503604884  SOLV      5257            0.0000000000
     15890      5268  TIP3      H1              7.8832091230       11.6850147344       -2.9949833173  SOLV      5257            0.0000000000
     15891      5268  TIP3      H2              9.1123222195       11.6447453134       -2.1268342967  SOLV      5257            0.0000000000
     15892      5269  TIP3      OH2            14.9674083481       18.2905895457       13.1339129744  SOLV      5258            0.0000000000
     15893      5269  TIP3      H1             15.6998347075       17.8892549676       12.6608172552  SOLV      5258            0.0000000000
     15894      5269  TIP3      H2             14.8822666265       17.7043607970       13.9107762315  SOLV      5258            0.0000000000
     15895      5270  TIP3      OH2            16.2690446737       14.8611589270       -5.3413745136  SOLV      5259            0.0000000000
     15896      5270  TIP3      H1             16.0844252354       14.4181853962       -6.1914953618  SOLV      5259            0.0000000000
     15897      5270  TIP3      H2             15.9517093917       15.7668672313       -5.5616522351  SOLV      5259            0.0000000000
     15898      5271  TIP3      OH2            11.0498972698       12.1912779480       13.0832156060  SOLV      5260            0.0000000000
     15899      5271  TIP3      H1             11.0295071314       11.4069421153       12.4998651318  SOLV      5260            0.0000000000
     15900      5271  TIP3      H2             10.5990946451       12.8704045604       12.5318580384  SOLV      5260            0.0000000000
     15901      5272  TIP3      OH2            11.0589983434       10.0568673622       11.1671772043  SOLV      5261            0.0000000000
     15902      5272  TIP3      H1             11.3122101714       10.4547545647       10.3146502849  SOLV      5261            0.0000000000
     15903      5272  TIP3      H2             10.1233695792        9.8080047576       11.0010602140  SOLV      5261            0.0000000000
     15904      5273  TIP3      OH2            11.3217682293       15.3768140690        9.8739561818  SOLV      5262            0.0000000000
     15905      5273  TIP3      H1             12.1583659296       15.5355837265        9.4255437595  SOLV      5262            0.0000000000
     15906      5273  TIP3      H2             10.7261237697       16.0185088228        9.4257939309  SOLV      5262            0.0000000000
     15907      5274  TIP3      OH2            17.0836048152       15.0118761073       13.6608934023  SOLV      5263            0.0000000000
     15908      5274  TIP3      H1             17.5364157161       14.2395533737       14.0299179898  SOLV      5263            0.0000000000
     15909      5274  TIP3      H2             17.8247347351       15.5389284369       13.3268598188  SOLV      5263            0.0000000000
     15910      5275  TIP3      OH2            17.5793241475       17.5548610004       11.1257341230  SOLV      5264            0.0000000000
     15911      5275  TIP3      H1             17.0212487484       18.1417194099       10.5577401762  SOLV      5264            0.0000000000
     15912      5275  TIP3      H2             18.4617500941       17.7545315990       10.7409818325  SOLV      5264            0.0000000000
     15913      5276  TIP3      OH2             9.8113019952       13.2149239818       15.4242171450  SOLV      5265            0.0000000000
     15914      5276  TIP3      H1              9.1299956599       12.5320454801       15.5953011797  SOLV      5265            0.0000000000
     15915      5276  TIP3      H2             10.1427229758       12.9474523259       14.5461130993  SOLV      5265            0.0000000000
     15916      5277  TIP3      OH2            12.3619268261        7.6604403543       11.8787395397  SOLV      5266            0.0000000000
     15917      5277  TIP3      H1             11.8604992811        8.4717279619       11.6521049676  SOLV      5266            0.0000000000
     15918      5277  TIP3      H2             11.6717428542        6.9717207119       11.7764827619  SOLV      5266            0.0000000000
     15919      5278  TIP3      OH2            13.6417285048       12.6594969374       14.0042720482  SOLV      5267            0.0000000000
     15920      5278  TIP3      H1             13.5097128225       12.5255776852       14.9625184156  SOLV      5267            0.0000000000
     15921      5278  TIP3      H2             12.7362070137       12.4408371625       13.6935108164  SOLV      5267            0.0000000000
     15922      5279  TIP3      OH2            15.9617416188       12.1080264510       12.4858336125  SOLV      5268            0.0000000000
     15923      5279  TIP3      H1             15.2408045438       12.1730599142       13.1445676839  SOLV      5268            0.0000000000
     15924      5279  TIP3      H2             16.7216086054       11.8503511717       13.0482715809  SOLV      5268            0.0000000000
     15925      5280  TIP3      OH2            18.3208382993       11.5809251015       13.9663597252  SOLV      5269            0.0000000000
     15926      5280  TIP3      H1             18.4366622724       10.6320564066       14.1840706338  SOLV      5269            0.0000000000
     15927      5280  TIP3      H2             18.2176766336       11.9901047465       14.8549286636  SOLV      5269            0.0000000000
     15928      5281  TIP3      OH2             8.1918907776       11.0189498695       15.9996643021  SOLV      5270            0.0000000000
     15929      5281  TIP3      H1              8.2319667045       10.1005193640       15.6740442515  SOLV      5270            0.0000000000
     15930      5281  TIP3      H2              8.5762169019       10.9084467803       16.8959666391  SOLV      5270            0.0000000000
     15931      5282  TIP3      OH2            13.2901878381        7.7574880764       14.4657314228  SOLV      5271            0.0000000000
     15932      5282  TIP3      H1             13.9480653319        7.0382633895       14.3983370254  SOLV      5271            0.0000000000
     15933      5282  TIP3      H2             12.8855753983        7.7123077485       13.5763916466  SOLV      5271            0.0000000000
     15934      5283  TIP3      OH2            13.9674906623        9.8997096474       16.0293830788  SOLV      5272            0.0000000000
     15935      5283  TIP3      H1             13.7334768241        9.1825723485       15.3991807375  SOLV      5272            0.0000000000
     15936      5283  TIP3      H2             13.1802518854       10.4827359667       15.9801787709  SOLV      5272            0.0000000000
     15937      5284  TIP3      OH2             6.2286648347       22.2187568990       -2.9469021358  SOLV      5273            0.0000000000
     15938      5284  TIP3      H1              7.1735744233       22.1015027500       -3.1577355646  SOLV      5273            0.0000000000
     15939      5284  TIP3      H2              5.9471708053       22.7306466011       -3.7274059530  SOLV      5273            0.0000000000
     15940      5285  TIP3      OH2             0.9882273823       16.0296951317       -0.8576818778  SOLV      5274            0.0000000000
     15941      5285  TIP3      H1              1.9438396826       16.2288645195       -0.9744837511  SOLV      5274            0.0000000000
     15942      5285  TIP3      H2              0.9283715751       15.1389303212       -1.2656575323  SOLV      5274            0.0000000000
     15943      5286  TIP3      OH2             0.1598241042       22.1181330418        3.3716966705  SOLV      5275            0.0000000000
     15944      5286  TIP3      H1             -0.5041937839       21.5126808705        2.9748454496  SOLV      5275            0.0000000000
     15945      5286  TIP3      H2              0.5983631927       21.5127587156        4.0076455198  SOLV      5275            0.0000000000
     15946      5287  TIP3      OH2             1.4921203660       20.5566415837        5.2155291615  SOLV      5276            0.0000000000
     15947      5287  TIP3      H1              1.3725518722       19.8743405786        5.8980684033  SOLV      5276            0.0000000000
     15948      5287  TIP3      H2              2.0120467868       21.2079135607        5.7208331369  SOLV      5276            0.0000000000
     15949      5288  TIP3      OH2            18.8048616716       24.6071400498        3.1801096779  SOLV      5277            0.0000000000
     15950      5288  TIP3      H1             19.0589055091       24.8318808895        4.0976211439  SOLV      5277            0.0000000000
     15951      5288  TIP3      H2             19.3228596935       25.2407504345        2.6675360787  SOLV      5277            0.0000000000
     15952      5289  TIP3      OH2            19.1240047542       24.6416149280        5.9366222057  SOLV      5278            0.0000000000
     15953      5289  TIP3      H1             18.6206392521       23.8006210273        5.9136142989  SOLV      5278            0.0000000000
     15954      5289  TIP3      H2             19.8292164313       24.3689985434        6.5578089439  SOLV      5278            0.0000000000
     15955      5290  TIP3      OH2            19.8113669867       21.7940663559       12.0539906957  SOLV      5279            0.0000000000
     15956      5290  TIP3      H1             18.9303123207       21.7771128787       12.4939856931  SOLV      5279            0.0000000000
     15957      5290  TIP3      H2             19.7137127910       22.4558635543       11.3774879908  SOLV      5279            0.0000000000
     15958      5291  TIP3      OH2            17.5824184934       16.7127693736       -2.0629850179  SOLV      5280            0.0000000000
     15959      5291  TIP3      H1             18.1964202642       17.4242968681       -2.3622259412  SOLV      5280            0.0000000000
     15960      5291  TIP3      H2             18.0898000509       16.3309903966       -1.3132588741  SOLV      5280            0.0000000000
     15961      5292  TIP3      OH2            18.9430602189       15.4032934756       -0.0939584006  SOLV      5281            0.0000000000
     15962      5292  TIP3      H1             18.3040131336       15.0278665652        0.5477288250  SOLV      5281            0.0000000000
     15963      5292  TIP3      H2             19.6508823614       15.7645592404        0.4839661541  SOLV      5281            0.0000000000
     15964      5293  TIP3      OH2            17.7302903987       22.2639325035        6.1752060128  SOLV      5282            0.0000000000
     15965      5293  TIP3      H1             16.9562508993       22.4022166271        6.7331039126  SOLV      5282            0.0000000000
     15966      5293  TIP3      H2             17.3167373629       21.8272898936        5.3971074882  SOLV      5282            0.0000000000
     15967      5294  TIP3      OH2            18.3055065284       14.4761700089       -3.5279309018  SOLV      5283            0.0000000000
     15968      5294  TIP3      H1             17.6169448550       14.5314218876       -4.2262404576  SOLV      5283            0.0000000000
     15969      5294  TIP3      H2             18.0468694753       15.2472345835       -2.9840583907  SOLV      5283            0.0000000000
     15970      5295  TIP3      OH2            16.9989953288       10.9543765458       -3.9552785696  SOLV      5284            0.0000000000
     15971      5295  TIP3      H1             16.6114227294       11.3530440168       -4.7453316863  SOLV      5284            0.0000000000
     15972      5295  TIP3      H2             16.5925278645       10.0742804306       -3.9651445101  SOLV      5284            0.0000000000
     15973      5296  TIP3      OH2            17.0261812628       14.0232020664        1.3542863052  SOLV      5285            0.0000000000
     15974      5296  TIP3      H1             17.1482735521       13.0668379073        1.2343963658  SOLV      5285            0.0000000000
     15975      5296  TIP3      H2             16.8978913539       14.1101417300        2.3247820520  SOLV      5285            0.0000000000
     15976      5297  TIP3      OH2             3.3275840489       14.7087996195        8.9323727136  SOLV      5286            0.0000000000
     15977      5297  TIP3      H1              3.2900676391       14.3529916166        8.0188208299  SOLV      5286            0.0000000000
     15978      5297  TIP3      H2              4.3030889342       14.7161980324        9.0803214258  SOLV      5286            0.0000000000
     15979      5298  TIP3      OH2            20.0540548058       18.2466837257       10.1200912727  SOLV      5287            0.0000000000
     15980      5298  TIP3      H1             20.7047493289       17.5276897594        9.9559087403  SOLV      5287            0.0000000000
     15981      5298  TIP3      H2             20.1439904029       18.7657371416        9.3076885023  SOLV      5287            0.0000000000
     15982      5299  TIP3      OH2            21.8440943015       16.2178350453       10.0792971753  SOLV      5288            0.0000000000
     15983      5299  TIP3      H1             21.0872949644       15.7202557261       10.4540669356  SOLV      5288            0.0000000000
     15984      5299  TIP3      H2             22.5754348976       15.5980956414       10.2769652380  SOLV      5288            0.0000000000
     15985      5300  TIP3      OH2            17.2317457742       11.2323379798        0.3081850784  SOLV      5289            0.0000000000
     15986      5300  TIP3      H1             17.5773492823       10.3169161237        0.4259899226  SOLV      5289            0.0000000000
     15987      5300  TIP3      H2             17.7804981290       11.5374331936       -0.4398147957  SOLV      5289            0.0000000000
     15988      5301  TIP3      OH2            18.6127788637       12.8535632579        5.4478402777  SOLV      5290            0.0000000000
     15989      5301  TIP3      H1             19.4346448956       13.0827931503        4.9600721370  SOLV      5290            0.0000000000
     15990      5301  TIP3      H2             18.7582179145       13.4022872904        6.2431767422  SOLV      5290            0.0000000000
     15991      5302  TIP3      OH2            19.2818365289       14.4270941486        7.6368656826  SOLV      5291            0.0000000000
     15992      5302  TIP3      H1             18.5313713051       14.7816979905        8.1450281490  SOLV      5291            0.0000000000
     15993      5302  TIP3      H2             19.5199236530       15.2589615195        7.1406636184  SOLV      5291            0.0000000000
     15994      5303  TIP3      OH2             5.5239763612       11.5493602659       15.6275711143  SOLV      5292            0.0000000000
     15995      5303  TIP3      H1              6.5013877712       11.5138759339       15.7112602440  SOLV      5292            0.0000000000
     15996      5303  TIP3      H2              5.2869666364       10.6889730934       16.0274915723  SOLV      5292            0.0000000000
     15997      5304  TIP3      OH2            23.8604120237       10.2304842637       13.1706066972  SOLV      5293            0.0000000000
     15998      5304  TIP3      H1             24.4848455236        9.6047016518       12.7485492055  SOLV      5293            0.0000000000
     15999      5304  TIP3      H2             23.5700556954       10.7687403862       12.4013462907  SOLV      5293            0.0000000000
     16000      5305  TIP3      OH2            18.0448267886        8.6700186197        0.8638951357  SOLV      5294            0.0000000000
     16001      5305  TIP3      H1             18.5976467784        8.3880298835        1.6153987626  SOLV      5294            0.0000000000
     16002      5305  TIP3      H2             17.4647351013        7.8879399146        0.7503023386  SOLV      5294            0.0000000000
     16003      5306  TIP3      OH2             5.1536301551        8.4970506481        8.9915160902  SOLV      5295            0.0000000000
     16004      5306  TIP3      H1              5.7646021294        7.7352990419        9.0459167261  SOLV      5295            0.0000000000
     16005      5306  TIP3      H2              5.7808614894        9.2301498102        8.8760170819  SOLV      5295            0.0000000000
     16006      5307  TIP3      OH2             3.1248005399       11.2241055140        9.6693076519  SOLV      5296            0.0000000000
     16007      5307  TIP3      H1              3.6308322537       11.1731837405        8.8347947123  SOLV      5296            0.0000000000
     16008      5307  TIP3      H2              3.4310497249       12.0616275670       10.0305188775  SOLV      5296            0.0000000000
     16009      5308  TIP3      OH2            22.5671476274       11.5952329980       11.2279182921  SOLV      5297            0.0000000000
     16010      5308  TIP3      H1             21.7198600052       12.0195727435       11.4729100278  SOLV      5297            0.0000000000
     16011      5308  TIP3      H2             22.2283446611       10.8920929857       10.6421930181  SOLV      5297            0.0000000000
     16012      5309  TIP3      OH2            19.3745122713        7.8913843069       -2.6019323439  SOLV      5298            0.0000000000
     16013      5309  TIP3      H1             19.5022508965        7.3066179554       -3.3778686679  SOLV      5298            0.0000000000
     16014      5309  TIP3      H2             19.7562061082        8.7335792732       -2.9118054925  SOLV      5298            0.0000000000
     16015      5310  TIP3      OH2             3.0311082129        6.4069066185        4.7946859050  SOLV      5299            0.0000000000
     16016      5310  TIP3      H1              2.0878777630        6.2702669085        4.9725848466  SOLV      5299            0.0000000000
     16017      5310  TIP3      H2              3.0127048287        6.9479269433        3.9716093024  SOLV      5299            0.0000000000
     16018      5311  TIP3      OH2            14.5698262255       23.3106279445       -0.2615406927  SOLV      5300            0.0000000000
     16019      5311  TIP3      H1             15.1330440233       23.2103855290       -1.0546581458  SOLV      5300            0.0000000000
     16020      5311  TIP3      H2             15.0635336223       23.9665120932        0.2618004610  SOLV      5300            0.0000000000
     16021      5312  TIP3      OH2             5.2096357916        7.0472922729       12.8443331821  SOLV      5301            0.0000000000
     16022      5312  TIP3      H1              4.6928859796        7.0243080127       13.6650102251  SOLV      5301            0.0000000000
     16023      5312  TIP3      H2              4.5574069502        7.4343866362       12.2271545592  SOLV      5301            0.0000000000
     16024      5313  TIP3      OH2             5.5916509990       21.3749000796       13.5740876539  SOLV      5302            0.0000000000
     16025      5313  TIP3      H1              4.6484240608       21.1492547571       13.4640993823  SOLV      5302            0.0000000000
     16026      5313  TIP3      H2              5.7291953718       21.2063729407       14.5139296469  SOLV      5302            0.0000000000
     16027      5314  TIP3      OH2             7.4105119469       21.7078309933        9.0763773474  SOLV      5303            0.0000000000
     16028      5314  TIP3      H1              6.9237955645       22.4733027714        8.7081804293  SOLV      5303            0.0000000000
     16029      5314  TIP3      H2              8.2622532678       21.8468992360        8.6119196626  SOLV      5303            0.0000000000
     16030      5315  TIP3      OH2            11.7125933493       24.0745903154       10.3104074171  SOLV      5304            0.0000000000
     16031      5315  TIP3      H1             12.0950212133       24.0473812666       11.2182372890  SOLV      5304            0.0000000000
     16032      5315  TIP3      H2             12.3230917022       24.6951540574        9.8666190032  SOLV      5304            0.0000000000
     16033      5316  TIP3      OH2            13.5160436297       25.7099260400        9.0336661199  SOLV      5305            0.0000000000
     16034      5316  TIP3      H1             14.1446295206       25.0087120042        8.8089523304  SOLV      5305            0.0000000000
     16035      5316  TIP3      H2             14.0190718131       26.2430667735        9.6876352492  SOLV      5305            0.0000000000
     16036      5317  TIP3      OH2            21.5885812917        9.1773697800       10.0439218652  SOLV      5306            0.0000000000
     16037      5317  TIP3      H1             20.6660168336        8.9322526500        9.8655222029  SOLV      5306            0.0000000000
     16038      5317  TIP3      H2             22.0210711505        8.2981132897        9.9477912822  SOLV      5306            0.0000000000
     16039      5318  TIP3      OH2             4.1502879901       24.2558023398        9.3391956441  SOLV      5307            0.0000000000
     16040      5318  TIP3      H1              3.2392396587       24.5622327195        9.1269511277  SOLV      5307            0.0000000000
     16041      5318  TIP3      H2              4.3054361259       24.7356569710       10.1610129294  SOLV      5307            0.0000000000
     16042      5319  TIP3      OH2             6.5030867217       24.0534930535        7.9234600063  SOLV      5308            0.0000000000
     16043      5319  TIP3      H1              5.6310572834       24.1610777528        8.3665180603  SOLV      5308            0.0000000000
     16044      5319  TIP3      H2              6.2990517950       24.3669985138        7.0205061549  SOLV      5308            0.0000000000
     16045      5320  TIP3      OH2            10.7245863045       24.2799147622        5.9150290116  SOLV      5309            0.0000000000
     16046      5320  TIP3      H1             10.0314844181       24.4529491042        5.2513782544  SOLV      5309            0.0000000000
     16047      5320  TIP3      H2             10.8363651541       25.1670085561        6.3164915393  SOLV      5309            0.0000000000
     16048      5321  TIP3      OH2            13.4114748499       23.7620225970        6.3754051316  SOLV      5310            0.0000000000
     16049      5321  TIP3      H1             12.4458267716       23.8268051056        6.2296429000  SOLV      5310            0.0000000000
     16050      5321  TIP3      H2             13.7231368914       24.5141879235        5.8464960827  SOLV      5310            0.0000000000
     16051      5322  TIP3      OH2            15.3037403853       25.6515134534        5.5723900586  SOLV      5311            0.0000000000
     16052      5322  TIP3      H1             15.2209724000       26.4546431504        4.9946403320  SOLV      5311            0.0000000000
     16053      5322  TIP3      H2             15.6029958056       25.0072472001        4.8866158985  SOLV      5311            0.0000000000
     16054      5323  TIP3      OH2             3.2535953110       22.1686227008        6.7626321244  SOLV      5312            0.0000000000
     16055      5323  TIP3      H1              3.5231968321       21.8731053829        7.6595992348  SOLV      5312            0.0000000000
     16056      5323  TIP3      H2              3.9855767109       21.7641169847        6.2439133904  SOLV      5312            0.0000000000
     16057      5324  TIP3      OH2             5.2257164493       20.9261841899        5.3687881837  SOLV      5313            0.0000000000
     16058      5324  TIP3      H1              5.3601848046       20.0765149313        5.8519078924  SOLV      5313            0.0000000000
     16059      5324  TIP3      H2              6.1424824754       21.2733489417        5.3520159836  SOLV      5313            0.0000000000
     16060      5325  TIP3      OH2             7.9081955458       21.8175369154        5.4215001785  SOLV      5314            0.0000000000
     16061      5325  TIP3      H1              8.1794059749       20.8818742036        5.3320890608  SOLV      5314            0.0000000000
     16062      5325  TIP3      H2              8.3913086448       22.0437902113        6.2385899010  SOLV      5314            0.0000000000
     16063      5326  TIP3      OH2            13.6890736047        8.1712937306        6.3143103144  SOLV      5315            0.0000000000
     16064      5326  TIP3      H1             13.1901955084        7.6044466785        6.9358635722  SOLV      5315            0.0000000000
     16065      5326  TIP3      H2             13.7433386042        7.5840006218        5.5459353637  SOLV      5315            0.0000000000
     16066      5327  TIP3      OH2            19.6052776701        8.0892990795        3.1349453367  SOLV      5316            0.0000000000
     16067      5327  TIP3      H1             20.3640129779        7.5750080805        2.7813688856  SOLV      5316            0.0000000000
     16068      5327  TIP3      H2             19.9739776741        8.9915696708        2.9683790999  SOLV      5316            0.0000000000
     16069      5328  TIP3      OH2             6.0562696319        5.4859021403        6.4076219672  SOLV      5317            0.0000000000
     16070      5328  TIP3      H1              5.1334108512        5.1570070325        6.4028458986  SOLV      5317            0.0000000000
     16071      5328  TIP3      H2              6.5385015945        4.6304674109        6.3374359174  SOLV      5317            0.0000000000
     16072      5329  TIP3      OH2             4.0146547906        4.2626522704        3.1818048185  SOLV      5318            0.0000000000
     16073      5329  TIP3      H1              4.3508578333        4.7217965760        2.3909694720  SOLV      5318            0.0000000000
     16074      5329  TIP3      H2              3.7768104018        4.9987343665        3.7694726423  SOLV      5318            0.0000000000
     16075      5330  TIP3      OH2            10.5914006741        5.8526546168        5.1084254333  SOLV      5319            0.0000000000
     16076      5330  TIP3      H1             11.2299169426        6.3652442167        4.5861575005  SOLV      5319            0.0000000000
     16077      5330  TIP3      H2             10.7456555107        6.1709112003        6.0034915238  SOLV      5319            0.0000000000
     16078      5331  TIP3      OH2            16.3143125216        6.5055002411        0.6929643043  SOLV      5320            0.0000000000
     16079      5331  TIP3      H1             15.4020524805        6.8104100080        0.5680017646  SOLV      5320            0.0000000000
     16080      5331  TIP3      H2             16.1677952593        5.6665382649        1.1795016773  SOLV      5320            0.0000000000
     16081      5332  TIP3      OH2             1.1206082796       19.9602257591        0.6277452332  SOLV      5321            0.0000000000
     16082      5332  TIP3      H1              0.2603281772       19.6313790888        0.3043390614  SOLV      5321            0.0000000000
     16083      5332  TIP3      H2              1.0395310894       20.8957275817        0.3629777164  SOLV      5321            0.0000000000
     16084      5333  TIP3      OH2             5.2100726736        5.6928039031        0.8164842036  SOLV      5322            0.0000000000
     16085      5333  TIP3      H1              5.5988340702        4.8826804654        0.4588593387  SOLV      5322            0.0000000000
     16086      5333  TIP3      H2              5.9932811303        6.2501486362        0.9718871851  SOLV      5322            0.0000000000
     16087      5334  TIP3      OH2            10.2761267655        7.5344886511        1.4844338444  SOLV      5323            0.0000000000
     16088      5334  TIP3      H1             10.8064995697        7.0091366991        2.1000160326  SOLV      5323            0.0000000000
     16089      5334  TIP3      H2             10.5215550483        8.4449476662        1.7623844963  SOLV      5323            0.0000000000
     16090      5335  TIP3      OH2             8.8743209256       21.7154626190       -3.4977226334  SOLV      5324            0.0000000000
     16091      5335  TIP3      H1              9.7520615073       21.9482420262       -3.8681575001  SOLV      5324            0.0000000000
     16092      5335  TIP3      H2              8.6511726376       20.9635588705       -4.0934201074  SOLV      5324            0.0000000000
     16093      5336  TIP3      OH2            16.0982136419       22.9964932999       -2.5529330776  SOLV      5325            0.0000000000
     16094      5336  TIP3      H1             16.0015811008       22.0191530672       -2.6651952827  SOLV      5325            0.0000000000
     16095      5336  TIP3      H2             15.6268699672       23.3099136821       -3.3518126987  SOLV      5325            0.0000000000
     16096      5337  TIP3      OH2             8.1656028564        8.2681918319       15.3148132100  SOLV      5326            0.0000000000
     16097      5337  TIP3      H1              7.8255376423        7.5607584479       15.8927932605  SOLV      5326            0.0000000000
     16098      5337  TIP3      H2              9.1082520741        8.2788916807       15.5895796962  SOLV      5326            0.0000000000
     16099      5338  TIP3      OH2            10.6679208958        8.2529967675       16.4982917589  SOLV      5327            0.0000000000
     16100      5338  TIP3      H1             11.5323490232        8.0061425493       16.1292622506  SOLV      5327            0.0000000000
     16101      5338  TIP3      H2             10.5401006960        7.5549574508       17.1734522691  SOLV      5327            0.0000000000
     16102      5339  TIP3      OH2             1.8991159511       20.1187675321       -2.9577611769  SOLV      5328            0.0000000000
     16103      5339  TIP3      H1              1.9391414913       20.2696863372       -2.0039906226  SOLV      5328            0.0000000000
     16104      5339  TIP3      H2              2.7655085725       19.6791916825       -3.1311388624  SOLV      5328            0.0000000000
     16105      5340  TIP3      OH2            18.9407828010        8.8980597014       14.3626127029  SOLV      5329            0.0000000000
     16106      5340  TIP3      H1             19.1054374343        8.6113350126       15.2891945747  SOLV      5329            0.0000000000
     16107      5340  TIP3      H2             19.8426790933        8.8521924957       13.9841321889  SOLV      5329            0.0000000000
     16108      5341  TIP3      OH2            18.1444136754       24.0260888135        9.5504766938  SOLV      5330            0.0000000000
     16109      5341  TIP3      H1             17.4655605862       23.9743993889        8.8570296629  SOLV      5330            0.0000000000
     16110      5341  TIP3      H2             18.7040246848       24.7570805049        9.2523745109  SOLV      5330            0.0000000000
     16111      5342  TIP3      OH2            30.9199980559       18.1411735159       -3.0006602691  SOLV      5331            0.0000000000
     16112      5342  TIP3      H1             30.6313035926       19.0524389075       -3.2120397968  SOLV      5331            0.0000000000
     16113      5342  TIP3      H2             30.1875231256       17.6387945623       -3.4036320421  SOLV      5331            0.0000000000
     16114      5343  TIP3      OH2            30.7399169343       18.1667991001        0.8449036228  SOLV      5332            0.0000000000
     16115      5343  TIP3      H1             31.1308930841       17.9193541540        1.7089758260  SOLV      5332            0.0000000000
     16116      5343  TIP3      H2             30.4205548734       17.3042793735        0.5335354686  SOLV      5332            0.0000000000
     16117      5344  TIP3      OH2            24.1324422121       17.0169723202        4.2213076951  SOLV      5333            0.0000000000
     16118      5344  TIP3      H1             24.1749576588       16.3346030113        4.9078426634  SOLV      5333            0.0000000000
     16119      5344  TIP3      H2             24.7852137034       17.6467844026        4.5405378040  SOLV      5333            0.0000000000
     16120      5345  TIP3      OH2            33.2110486073       21.0880495877       -2.0342200998  SOLV      5334            0.0000000000
     16121      5345  TIP3      H1             33.2554302763       20.2530622839       -1.5413110782  SOLV      5334            0.0000000000
     16122      5345  TIP3      H2             32.8790600557       21.6856314452       -1.3617226121  SOLV      5334            0.0000000000
     16123      5346  TIP3      OH2            23.3702556329       21.0745890254        0.7741223092  SOLV      5335            0.0000000000
     16124      5346  TIP3      H1             23.5224535814       20.1709259166        1.1608908226  SOLV      5335            0.0000000000
     16125      5346  TIP3      H2             24.0865749307       21.5533345920        1.2186882813  SOLV      5335            0.0000000000
     16126      5347  TIP3      OH2            20.7263048501       13.1368310973       -0.4999739013  SOLV      5336            0.0000000000
     16127      5347  TIP3      H1             20.3040240424       13.9928232146       -0.3105581009  SOLV      5336            0.0000000000
     16128      5347  TIP3      H2             20.0149463910       12.7012356743       -0.9998097956  SOLV      5336            0.0000000000
     16129      5348  TIP3      OH2            21.3316871918       15.9968696128        1.0570127737  SOLV      5337            0.0000000000
     16130      5348  TIP3      H1             21.7918190230       15.3997711823        1.6793721939  SOLV      5337            0.0000000000
     16131      5348  TIP3      H2             22.0265821456       16.2035386381        0.4256489375  SOLV      5337            0.0000000000
     16132      5349  TIP3      OH2            28.9904594980       20.4275558243        1.2818347670  SOLV      5338            0.0000000000
     16133      5349  TIP3      H1             29.3712750521       19.6146089780        0.8936388979  SOLV      5338            0.0000000000
     16134      5349  TIP3      H2             29.8294866457       20.8634103198        1.5387195815  SOLV      5338            0.0000000000
     16135      5350  TIP3      OH2            33.0796823708       15.5401760682        1.5733408162  SOLV      5339            0.0000000000
     16136      5350  TIP3      H1             33.3947180484       14.6292401036        1.7578484007  SOLV      5339            0.0000000000
     16137      5350  TIP3      H2             32.7521267103       15.4231917879        0.6617585203  SOLV      5339            0.0000000000
     16138      5351  TIP3      OH2            26.5483100412       11.9904080262        1.1828854859  SOLV      5340            0.0000000000
     16139      5351  TIP3      H1             26.3017865647       12.7240369303        0.5780832411  SOLV      5340            0.0000000000
     16140      5351  TIP3      H2             26.0511537443       11.2573832387        0.7515871063  SOLV      5340            0.0000000000
     16141      5352  TIP3      OH2            33.4388462642       12.8981148813       -2.4490582022  SOLV      5341            0.0000000000
     16142      5352  TIP3      H1             33.9866913326       12.4056598031       -1.8289197533  SOLV      5341            0.0000000000
     16143      5352  TIP3      H2             34.0735222378       13.0714109169       -3.1718628442  SOLV      5341            0.0000000000
     16144      5353  TIP3      OH2            22.7611794760       14.0239017188        2.3829531930  SOLV      5342            0.0000000000
     16145      5353  TIP3      H1             23.6164258186       13.8412027512        2.8102267499  SOLV      5342            0.0000000000
     16146      5353  TIP3      H2             22.8683111262       13.5127396612        1.5540293817  SOLV      5342            0.0000000000
     16147      5354  TIP3      OH2            27.1685798384       16.0190582788        0.2031948870  SOLV      5343            0.0000000000
     16148      5354  TIP3      H1             28.0997981173       15.7512961811        0.3429974054  SOLV      5343            0.0000000000
     16149      5354  TIP3      H2             26.7622621350       15.1780010515       -0.1032630278  SOLV      5343            0.0000000000
     16150      5355  TIP3      OH2            26.4363405748       11.8133165005        5.5797478905  SOLV      5344            0.0000000000
     16151      5355  TIP3      H1             25.8753177330       12.1904813893        4.8734347211  SOLV      5344            0.0000000000
     16152      5355  TIP3      H2             25.8822821028       12.0165249911        6.3628457946  SOLV      5344            0.0000000000
     16153      5356  TIP3      OH2            29.6579266940       20.2838823197       -4.3015383876  SOLV      5345            0.0000000000
     16154      5356  TIP3      H1             29.5257109855       20.1579307993       -5.2467900221  SOLV      5345            0.0000000000
     16155      5356  TIP3      H2             29.4943788982       21.2402674015       -4.2012134175  SOLV      5345            0.0000000000
     16156      5357  TIP3      OH2            27.5607609241       19.6344075394        3.4997011011  SOLV      5346            0.0000000000
     16157      5357  TIP3      H1             26.8456399413       20.2569832615        3.7670202258  SOLV      5346            0.0000000000
     16158      5357  TIP3      H2             27.9523501777       20.0880218196        2.7269473726  SOLV      5346            0.0000000000
     16159      5358  TIP3      OH2            25.1665835043       12.9403147984        3.3874945537  SOLV      5347            0.0000000000
     16160      5358  TIP3      H1             25.7559153997       13.6928155327        3.6192462457  SOLV      5347            0.0000000000
     16161      5358  TIP3      H2             25.6568105405       12.5684757875        2.6199992020  SOLV      5347            0.0000000000
     16162      5359  TIP3      OH2            25.6711326384       21.4607712655        4.2847813748  SOLV      5348            0.0000000000
     16163      5359  TIP3      H1             25.3506983752       22.3288904179        3.9573428572  SOLV      5348            0.0000000000
     16164      5359  TIP3      H2             24.9226273267       21.2482176218        4.8838759757  SOLV      5348            0.0000000000
     16165      5360  TIP3      OH2            19.3271560576       18.5449370356       -3.1194439270  SOLV      5349            0.0000000000
     16166      5360  TIP3      H1             19.2250918334       18.4446307699       -4.0872090865  SOLV      5349            0.0000000000
     16167      5360  TIP3      H2             20.1324677192       19.0440097904       -3.0536419808  SOLV      5349            0.0000000000
     16168      5361  TIP3      OH2            30.1189278610        8.9349015880        2.9333444777  SOLV      5350            0.0000000000
     16169      5361  TIP3      H1             29.8069956157        8.0160696124        2.8526298007  SOLV      5350            0.0000000000
     16170      5361  TIP3      H2             29.3159203684        9.3650583666        3.2954611731  SOLV      5350            0.0000000000
     16171      5362  TIP3      OH2            29.2852570132       16.6775929048       -4.6950398912  SOLV      5351            0.0000000000
     16172      5362  TIP3      H1             28.4399500057       17.1237638735       -4.9085791532  SOLV      5351            0.0000000000
     16173      5362  TIP3      H2             29.6889973591       16.5958323978       -5.5765148974  SOLV      5351            0.0000000000
     16174      5363  TIP3      OH2            28.8758149836       14.5961822703       -7.6152555612  SOLV      5352            0.0000000000
     16175      5363  TIP3      H1             29.5832642666       15.1062453980       -7.1846271283  SOLV      5352            0.0000000000
     16176      5363  TIP3      H2             29.4062323012       13.9176116308       -8.0796992162  SOLV      5352            0.0000000000
     16177      5364  TIP3      OH2            32.7324773257       17.3848067074       -4.8741251300  SOLV      5353            0.0000000000
     16178      5364  TIP3      H1             32.1349659576       17.6530425877       -4.1324974703  SOLV      5353            0.0000000000
     16179      5364  TIP3      H2             33.5905233823       17.6024019713       -4.4956693917  SOLV      5353            0.0000000000
     16180      5365  TIP3      OH2            25.1001873040       17.5562752497       -0.8259300073  SOLV      5354            0.0000000000
     16181      5365  TIP3      H1             24.5832860779       16.9841232325       -1.4483173555  SOLV      5354            0.0000000000
     16182      5365  TIP3      H2             25.8224042929       16.9452514774       -0.5684410014  SOLV      5354            0.0000000000
     16183      5366  TIP3      OH2            26.5097411639       21.5944375479        0.4516541298  SOLV      5355            0.0000000000
     16184      5366  TIP3      H1             26.2549647657       20.7052450928        0.1891575106  SOLV      5355            0.0000000000
     16185      5366  TIP3      H2             27.4218011352       21.4305936224        0.7638181896  SOLV      5355            0.0000000000
     16186      5367  TIP3      OH2            26.8035746945       17.0608778058        2.7559457877  SOLV      5356            0.0000000000
     16187      5367  TIP3      H1             26.8787738282       16.8958323968        1.7954109074  SOLV      5356            0.0000000000
     16188      5367  TIP3      H2             26.9790872480       18.0141789039        2.8450177057  SOLV      5356            0.0000000000
     16189      5368  TIP3      OH2            31.8358986422       23.3484565007        0.3318992262  SOLV      5357            0.0000000000
     16190      5368  TIP3      H1             31.5824531031       24.1683806614        0.7614068161  SOLV      5357            0.0000000000
     16191      5368  TIP3      H2             31.6579660445       22.6684119693        1.0045609104  SOLV      5357            0.0000000000
     16192      5369  TIP3      OH2            27.7972177937       23.0951508520        5.1513462011  SOLV      5358            0.0000000000
     16193      5369  TIP3      H1             27.3284490508       23.7106692430        5.7508460133  SOLV      5358            0.0000000000
     16194      5369  TIP3      H2             27.0497018740       22.5356979245        4.8674641756  SOLV      5358            0.0000000000
     16195      5370  TIP3      OH2            31.1342199448       16.0481985684       -6.7313859701  SOLV      5359            0.0000000000
     16196      5370  TIP3      H1             31.7249842096       16.6294615833       -6.2009252402  SOLV      5359            0.0000000000
     16197      5370  TIP3      H2             31.4340821209       16.2592170538       -7.6474184718  SOLV      5359            0.0000000000
     16198      5371  TIP3      OH2            25.3726368010       18.2222762731        6.8728955252  SOLV      5360            0.0000000000
     16199      5371  TIP3      H1             25.3718541186       19.0962360321        7.3145787759  SOLV      5360            0.0000000000
     16200      5371  TIP3      H2             24.4483258797       17.9567362888        7.0686107450  SOLV      5360            0.0000000000
     16201      5372  TIP3      OH2            28.8094934316       23.0598191333       -4.0040229894  SOLV      5361            0.0000000000
     16202      5372  TIP3      H1             28.6846399011       23.1638483292       -3.0679555824  SOLV      5361            0.0000000000
     16203      5372  TIP3      H2             27.9243424350       23.2258266692       -4.3822668440  SOLV      5361            0.0000000000
     16204      5373  TIP3      OH2            25.5187106221       24.2464226022        6.4894402792  SOLV      5362            0.0000000000
     16205      5373  TIP3      H1             25.1387913905       24.2463626779        5.5961258564  SOLV      5362            0.0000000000
     16206      5373  TIP3      H2             24.7503042201       23.9722836518        7.0384235178  SOLV      5362            0.0000000000
     16207      5374  TIP3      OH2            23.7198100727       15.9957238254       -2.5628038015  SOLV      5363            0.0000000000
     16208      5374  TIP3      H1             23.4708906541       16.3987205875       -3.4300262343  SOLV      5363            0.0000000000
     16209      5374  TIP3      H2             23.3688195373       15.1133986388       -2.7167172178  SOLV      5363            0.0000000000
     16210      5375  TIP3      OH2            21.5872403018       19.6140877593        6.1849029620  SOLV      5364            0.0000000000
     16211      5375  TIP3      H1             20.8549057022       19.0769821607        5.8186056952  SOLV      5364            0.0000000000
     16212      5375  TIP3      H2             22.0879344252       18.8739447013        6.5901122147  SOLV      5364            0.0000000000
     16213      5376  TIP3      OH2            20.2394699038       21.7846994330        2.2482986256  SOLV      5365            0.0000000000
     16214      5376  TIP3      H1             20.8364779802       21.1853329376        2.7040481730  SOLV      5365            0.0000000000
     16215      5376  TIP3      H2             19.9435682735       22.3573020010        2.9739480279  SOLV      5365            0.0000000000
     16216      5377  TIP3      OH2            26.7237715841       25.2363340963       -5.8473563634  SOLV      5366            0.0000000000
     16217      5377  TIP3      H1             26.5968989792       24.8205176632       -6.7215832549  SOLV      5366            0.0000000000
     16218      5377  TIP3      H2             27.3616741215       25.9237565635       -6.0476960124  SOLV      5366            0.0000000000
     16219      5378  TIP3      OH2            23.4955337644       21.4848308536        5.9162277846  SOLV      5367            0.0000000000
     16220      5378  TIP3      H1             23.9399568079       21.3430579958        6.7787048244  SOLV      5367            0.0000000000
     16221      5378  TIP3      H2             22.7729959742       20.8191021763        5.9734233762  SOLV      5367            0.0000000000
     16222      5379  TIP3      OH2            27.6197480469        9.7612958873        4.0510661521  SOLV      5368            0.0000000000
     16223      5379  TIP3      H1             26.7365958162        9.4627364913        3.7419676814  SOLV      5368            0.0000000000
     16224      5379  TIP3      H2             27.3486710401       10.5904258465        4.4942287407  SOLV      5368            0.0000000000
     16225      5380  TIP3      OH2            32.8552532032       10.9781907147        6.1792493880  SOLV      5369            0.0000000000
     16226      5380  TIP3      H1             33.0829991858       11.6606385503        6.8103349361  SOLV      5369            0.0000000000
     16227      5380  TIP3      H2             31.9276340666       10.7482668121        6.4415642754  SOLV      5369            0.0000000000
     16228      5381  TIP3      OH2            32.0448166952       16.4315394160       -9.2532622350  SOLV      5370            0.0000000000
     16229      5381  TIP3      H1             31.6896963354       16.2318023574      -10.1471573690  SOLV      5370            0.0000000000
     16230      5381  TIP3      H2             32.5414570154       17.2451013975       -9.4212031200  SOLV      5370            0.0000000000
     16231      5382  TIP3      OH2            29.0868263076       10.2030017158       -6.2591182707  SOLV      5371            0.0000000000
     16232      5382  TIP3      H1             28.6867264131       10.2086434190       -5.3688399251  SOLV      5371            0.0000000000
     16233      5382  TIP3      H2             28.6376241655        9.4243243866       -6.6388996849  SOLV      5371            0.0000000000
     16234      5383  TIP3      OH2            26.9181666410       14.8557086916        4.2528108483  SOLV      5372            0.0000000000
     16235      5383  TIP3      H1             26.3742608301       15.0811493092        5.0384449002  SOLV      5372            0.0000000000
     16236      5383  TIP3      H2             26.8212006665       15.6831732517        3.7191541896  SOLV      5372            0.0000000000
     16237      5384  TIP3      OH2            25.7519508330       13.8090417011       -0.6480552935  SOLV      5373            0.0000000000
     16238      5384  TIP3      H1             24.8114368741       13.5826872668       -0.4849688938  SOLV      5373            0.0000000000
     16239      5384  TIP3      H2             25.8613580368       13.4245557920       -1.5490413107  SOLV      5373            0.0000000000
     16240      5385  TIP3      OH2            30.6818267528       14.6713894579       -3.3603794765  SOLV      5374            0.0000000000
     16241      5385  TIP3      H1             30.1627065867       15.3767207626       -3.8051367955  SOLV      5374            0.0000000000
     16242      5385  TIP3      H2             31.3026971853       14.4050902343       -4.0632555366  SOLV      5374            0.0000000000
     16243      5386  TIP3      OH2            32.1774360758       14.9835858607       -1.0042361527  SOLV      5375            0.0000000000
     16244      5386  TIP3      H1             31.5487888903       15.2247218229       -1.7167296185  SOLV      5375            0.0000000000
     16245      5386  TIP3      H2             32.5595088951       14.1846747517       -1.4254198034  SOLV      5375            0.0000000000
     16246      5387  TIP3      OH2            25.1838249589       15.1835891534        6.3495730010  SOLV      5376            0.0000000000
     16247      5387  TIP3      H1             25.4077867613       15.8241085015        7.0400582881  SOLV      5376            0.0000000000
     16248      5387  TIP3      H2             25.0182292072       14.3709509569        6.8632105199  SOLV      5376            0.0000000000
     16249      5388  TIP3      OH2            25.5960081745       10.0159883336       -6.5992396141  SOLV      5377            0.0000000000
     16250      5388  TIP3      H1             25.4717885063       10.0275362312       -5.6307833303  SOLV      5377            0.0000000000
     16251      5388  TIP3      H2             24.8668857585       10.6032045040       -6.8743491755  SOLV      5377            0.0000000000
     16252      5389  TIP3      OH2            20.9007281562       10.2904384527        2.3138975622  SOLV      5378            0.0000000000
     16253      5389  TIP3      H1             21.7088064439       10.6959115467        2.6828914673  SOLV      5378            0.0000000000
     16254      5389  TIP3      H2             21.1471009087       10.0895996373        1.3920438099  SOLV      5378            0.0000000000
     16255      5390  TIP3      OH2            20.8025668152       10.3458060981       -2.6776288082  SOLV      5379            0.0000000000
     16256      5390  TIP3      H1             21.1645175795       10.7136329567       -3.5149579940  SOLV      5379            0.0000000000
     16257      5390  TIP3      H2             20.1549484628       11.0436229888       -2.4663578605  SOLV      5379            0.0000000000
     16258      5391  TIP3      OH2            31.8433869652       17.3429959559        3.2062907967  SOLV      5380            0.0000000000
     16259      5391  TIP3      H1             32.4405226973       16.7891208495        2.6529122872  SOLV      5380            0.0000000000
     16260      5391  TIP3      H2             31.8056905466       16.7791224676        4.0072964312  SOLV      5380            0.0000000000
     16261      5392  TIP3      OH2            29.1021146946       11.9172469329       -0.0758163721  SOLV      5381            0.0000000000
     16262      5392  TIP3      H1             28.2760440985       11.9963179596        0.4452251863  SOLV      5381            0.0000000000
     16263      5392  TIP3      H2             29.7838669543       11.9386355868        0.6184375092  SOLV      5381            0.0000000000
     16264      5393  TIP3      OH2            23.3454598993       12.6223458452        0.0386542972  SOLV      5382            0.0000000000
     16265      5393  TIP3      H1             22.4058763688       12.7208576448       -0.2530346378  SOLV      5382            0.0000000000
     16266      5393  TIP3      H2             23.5499834847       11.7133611158       -0.2341937851  SOLV      5382            0.0000000000
     16267      5394  TIP3      OH2            26.0262537360       12.5585327551       -3.0505676093  SOLV      5383            0.0000000000
     16268      5394  TIP3      H1             26.9358922338       12.7363649363       -3.3448669540  SOLV      5383            0.0000000000
     16269      5394  TIP3      H2             25.4998404859       12.7467827363       -3.8649568946  SOLV      5383            0.0000000000
     16270      5395  TIP3      OH2            33.6288199602       12.9118274623        1.9112780507  SOLV      5384            0.0000000000
     16271      5395  TIP3      H1             33.5150222050       12.9567104374        2.8793017177  SOLV      5384            0.0000000000
     16272      5395  TIP3      H2             32.9972613113       12.2164081504        1.6586069738  SOLV      5384            0.0000000000
     16273      5396  TIP3      OH2            24.5721585232       12.6621252293       -5.3154730927  SOLV      5385            0.0000000000
     16274      5396  TIP3      H1             23.8151308688       12.3988696312       -5.8663400032  SOLV      5385            0.0000000000
     16275      5396  TIP3      H2             25.0974594426       13.1659593155       -5.9792921754  SOLV      5385            0.0000000000
     16276      5397  TIP3      OH2            25.0260303395       20.6697682573        8.1909699731  SOLV      5386            0.0000000000
     16277      5397  TIP3      H1             25.8807872355       21.0409258474        8.4990918621  SOLV      5386            0.0000000000
     16278      5397  TIP3      H2             24.5031269635       20.6787020808        9.0157269942  SOLV      5386            0.0000000000
     16279      5398  TIP3      OH2            29.8396682557       15.3242872835        0.8880900060  SOLV      5387            0.0000000000
     16280      5398  TIP3      H1             30.5835662633       14.9487129512        0.3921590236  SOLV      5387            0.0000000000
     16281      5398  TIP3      H2             29.9151027738       14.8809393656        1.7519725990  SOLV      5387            0.0000000000
     16282      5399  TIP3      OH2            25.1118528415       10.1346566003       -0.2454853049  SOLV      5388            0.0000000000
     16283      5399  TIP3      H1             24.7055478485        9.3692796402        0.2132549739  SOLV      5388            0.0000000000
     16284      5399  TIP3      H2             25.2816029540        9.7810734335       -1.1265245280  SOLV      5388            0.0000000000
     16285      5400  TIP3      OH2            29.5659496339       14.2740457468        3.8297211150  SOLV      5389            0.0000000000
     16286      5400  TIP3      H1             28.6464965078       14.5936727129        3.9515163790  SOLV      5389            0.0000000000
     16287      5400  TIP3      H2             30.0933235946       14.9135814865        4.3503809278  SOLV      5389            0.0000000000
     16288      5401  TIP3      OH2            26.9204500184       18.0687114289       -5.2990034737  SOLV      5390            0.0000000000
     16289      5401  TIP3      H1             26.1382510454       17.5089564120       -5.4237407018  SOLV      5390            0.0000000000
     16290      5401  TIP3      H2             26.7353935650       18.4508489886       -4.4065022671  SOLV      5390            0.0000000000
     16291      5402  TIP3      OH2            31.5735511743       11.2249185311       -6.4670978280  SOLV      5391            0.0000000000
     16292      5402  TIP3      H1             30.6140716851       10.9863005162       -6.4672980161  SOLV      5391            0.0000000000
     16293      5402  TIP3      H2             31.5569351318       12.1929338866       -6.3714378179  SOLV      5391            0.0000000000
     16294      5403  TIP3      OH2            32.3623472378       13.8552860914       -5.6596772108  SOLV      5392            0.0000000000
     16295      5403  TIP3      H1             33.2060553109       13.8189848476       -6.1219630741  SOLV      5392            0.0000000000
     16296      5403  TIP3      H2             31.9443689027       14.6412209896       -6.0686351863  SOLV      5392            0.0000000000
     16297      5404  TIP3      OH2            23.9935732140       18.5750551363        1.5913457991  SOLV      5393            0.0000000000
     16298      5404  TIP3      H1             24.3658372066       18.0579742356        0.8503832318  SOLV      5393            0.0000000000
     16299      5404  TIP3      H2             23.9614929939       17.9187504652        2.3150919488  SOLV      5393            0.0000000000
     16300      5405  TIP3      OH2            28.4480326459       19.6252541230       -7.0362401172  SOLV      5394            0.0000000000
     16301      5405  TIP3      H1             27.9564430116       20.4755618652       -6.9452127038  SOLV      5394            0.0000000000
     16302      5405  TIP3      H2             27.9135632937       19.0471251626       -6.4493314540  SOLV      5394            0.0000000000
     16303      5406  TIP3      OH2            22.8268463894       17.6227217300        7.7280047615  SOLV      5395            0.0000000000
     16304      5406  TIP3      H1             22.9086524884       17.4107826944        8.6759702318  SOLV      5395            0.0000000000
     16305      5406  TIP3      H2             22.0185930677       17.1230661109        7.4864416717  SOLV      5395            0.0000000000
     16306      5407  TIP3      OH2            29.6563603355       18.2637698992        8.3203992984  SOLV      5396            0.0000000000
     16307      5407  TIP3      H1             29.0948530513       17.7192948305        7.7444284765  SOLV      5396            0.0000000000
     16308      5407  TIP3      H2             30.3096264307       18.6164202226        7.6970523798  SOLV      5396            0.0000000000
     16309      5408  TIP3      OH2            33.2340925524       19.2432077214        0.1426329582  SOLV      5397            0.0000000000
     16310      5408  TIP3      H1             32.3675366146       18.7988638574        0.1915366543  SOLV      5397            0.0000000000
     16311      5408  TIP3      H2             33.8095134358       18.5059463853       -0.1461045708  SOLV      5397            0.0000000000
     16312      5409  TIP3      OH2            20.5814056886       14.3970679921       -5.2746775935  SOLV      5398            0.0000000000
     16313      5409  TIP3      H1             21.2390778955       15.1362060686       -5.2805139260  SOLV      5398            0.0000000000
     16314      5409  TIP3      H2             19.9710410066       14.6757401021       -4.5654413281  SOLV      5398            0.0000000000
     16315      5410  TIP3      OH2            26.2240284838       19.0872515040       -2.8754612790  SOLV      5399            0.0000000000
     16316      5410  TIP3      H1             26.2702704105       19.9557866989       -2.4867179417  SOLV      5399            0.0000000000
     16317      5410  TIP3      H2             25.8477500817       18.5414989338       -2.1528685302  SOLV      5399            0.0000000000
     16318      5411  TIP3      OH2            27.4787404114       24.8161818497        2.5483888051  SOLV      5400            0.0000000000
     16319      5411  TIP3      H1             27.8386190802       25.6379395106        2.1948253751  SOLV      5400            0.0000000000
     16320      5411  TIP3      H2             28.0533661661       24.6447866587        3.3091681210  SOLV      5400            0.0000000000
     16321      5412  TIP3      OH2            23.7672330607       23.8489242557       -3.4378878654  SOLV      5401            0.0000000000
     16322      5412  TIP3      H1             23.0394113942       24.3114660224       -3.8489552802  SOLV      5401            0.0000000000
     16323      5412  TIP3      H2             24.3117110178       24.6034063796       -3.1532993829  SOLV      5401            0.0000000000
     16324      5413  TIP3      OH2            31.5889046057       21.1694352775        2.0415747366  SOLV      5402            0.0000000000
     16325      5413  TIP3      H1             32.0243264075       21.1384572516        2.9000176883  SOLV      5402            0.0000000000
     16326      5413  TIP3      H2             32.1717954850       20.6016362410        1.5011446349  SOLV      5402            0.0000000000
     16327      5414  TIP3      OH2            30.7347767938       19.6226387764       -8.8120099863  SOLV      5403            0.0000000000
     16328      5414  TIP3      H1             31.3762578107       19.2959999051       -8.1516835095  SOLV      5403            0.0000000000
     16329      5414  TIP3      H2             29.9064083338       19.5972270984       -8.2832715982  SOLV      5403            0.0000000000
     16330      5415  TIP3      OH2            24.7974138015       12.6347597426        7.6964931897  SOLV      5404            0.0000000000
     16331      5415  TIP3      H1             23.8345399847       12.6216550593        7.8233115749  SOLV      5404            0.0000000000
     16332      5415  TIP3      H2             25.1097767366       12.1472041319        8.4734324397  SOLV      5404            0.0000000000
     16333      5416  TIP3      OH2            32.7188815040       18.9142727851       -7.1195736905  SOLV      5405            0.0000000000
     16334      5416  TIP3      H1             32.6585359632       18.4251075492       -6.2744265935  SOLV      5405            0.0000000000
     16335      5416  TIP3      H2             33.3690837578       19.5889452036       -6.8522686451  SOLV      5405            0.0000000000
     16336      5417  TIP3      OH2            21.9976934143       23.4854028808        4.1219485245  SOLV      5406            0.0000000000
     16337      5417  TIP3      H1             22.4590317118       22.7494996699        4.5606013293  SOLV      5406            0.0000000000
     16338      5417  TIP3      H2             22.2636239363       24.2257719668        4.6780360339  SOLV      5406            0.0000000000
     16339      5418  TIP3      OH2            24.7671489960       19.8874827803       -9.1912711668  SOLV      5407            0.0000000000
     16340      5418  TIP3      H1             25.0030156261       18.9685404589       -9.4466194709  SOLV      5407            0.0000000000
     16341      5418  TIP3      H2             24.5458037626       19.7663037275       -8.2445739140  SOLV      5407            0.0000000000
     16342      5419  TIP3      OH2            24.2137049027       20.0657320285       -6.5327811819  SOLV      5408            0.0000000000
     16343      5419  TIP3      H1             24.7552199874       19.6386966049       -5.8582757291  SOLV      5408            0.0000000000
     16344      5419  TIP3      H2             24.2898460526       21.0185844643       -6.3066073493  SOLV      5408            0.0000000000
     16345      5420  TIP3      OH2            33.2220347641       13.3089142231        4.6795760409  SOLV      5409            0.0000000000
     16346      5420  TIP3      H1             33.7310635822       13.5994963161        5.4526263239  SOLV      5409            0.0000000000
     16347      5420  TIP3      H2             32.9995451575       12.4007043911        4.9551715562  SOLV      5409            0.0000000000
     16348      5421  TIP3      OH2            31.9461062412       10.7872175016       -3.7227140332  SOLV      5410            0.0000000000
     16349      5421  TIP3      H1             31.8123806334       10.9329071414       -4.6854208453  SOLV      5410            0.0000000000
     16350      5421  TIP3      H2             32.3061571550       11.6506467638       -3.4458730266  SOLV      5410            0.0000000000
     16351      5422  TIP3      OH2            27.0422324664       21.9408381889       -6.7786370094  SOLV      5411            0.0000000000
     16352      5422  TIP3      H1             26.1504908547       22.1154113174       -6.4225806978  SOLV      5411            0.0000000000
     16353      5422  TIP3      H2             27.0400469463       22.5950625923       -7.4999020239  SOLV      5411            0.0000000000
     16354      5423  TIP3      OH2            28.9211439446       12.6008390240       -2.7694925039  SOLV      5412            0.0000000000
     16355      5423  TIP3      H1             29.5318199641       13.3489390612       -2.9401636184  SOLV      5412            0.0000000000
     16356      5423  TIP3      H2             28.9468150005       12.5422338383       -1.7930010496  SOLV      5412            0.0000000000
     16357      5424  TIP3      OH2            31.5357233794       15.6075737829        5.2836993531  SOLV      5413            0.0000000000
     16358      5424  TIP3      H1             32.0567292789       16.0432289005        5.9921993925  SOLV      5413            0.0000000000
     16359      5424  TIP3      H2             32.0651115940       14.8063706492        5.1234406915  SOLV      5413            0.0000000000
     16360      5425  TIP3      OH2            30.2607472276        9.8002656051       -1.7437563727  SOLV      5414            0.0000000000
     16361      5425  TIP3      H1             30.0740209121       10.6084880376       -1.2254364348  SOLV      5414            0.0000000000
     16362      5425  TIP3      H2             30.8701398156       10.1618940712       -2.4294213769  SOLV      5414            0.0000000000
     16363      5426  TIP3      OH2            24.4937424905       22.7542886517       -6.1094972751  SOLV      5415            0.0000000000
     16364      5426  TIP3      H1             24.1836273475       23.4154074798       -6.7698585420  SOLV      5415            0.0000000000
     16365      5426  TIP3      H2             24.4021725480       23.2595127073       -5.2841590070  SOLV      5415            0.0000000000
     16366      5427  TIP3      OH2            25.4257645080        9.8624646118       -3.8012268819  SOLV      5416            0.0000000000
     16367      5427  TIP3      H1             25.3499045146       10.7984941790       -3.5349408693  SOLV      5416            0.0000000000
     16368      5427  TIP3      H2             26.4003313971        9.7570394905       -3.7560005805  SOLV      5416            0.0000000000
     16369      5428  TIP3      OH2            34.4169150618       16.8454508183       -0.7721454402  SOLV      5417            0.0000000000
     16370      5428  TIP3      H1             33.6479404340       16.3093330195       -1.0242428251  SOLV      5417            0.0000000000
     16371      5428  TIP3      H2             34.9377439249       16.2239958551       -0.2561906576  SOLV      5417            0.0000000000
     16372      5429  TIP3      OH2            21.5162447959       19.2735409403       -6.5041110522  SOLV      5418            0.0000000000
     16373      5429  TIP3      H1             22.3904166439       19.6898695715       -6.6359787260  SOLV      5418            0.0000000000
     16374      5429  TIP3      H2             21.8280966051       18.4249379568       -6.1367391490  SOLV      5418            0.0000000000
     16375      5430  TIP3      OH2            21.0052108099       11.7249124773       -4.9979553555  SOLV      5419            0.0000000000
     16376      5430  TIP3      H1             21.0817384881       12.7027087232       -5.0174340026  SOLV      5419            0.0000000000
     16377      5430  TIP3      H2             20.1978066107       11.5977699488       -5.4993225958  SOLV      5419            0.0000000000
     16378      5431  TIP3      OH2            24.9917176836        8.9630295951        3.7121511469  SOLV      5420            0.0000000000
     16379      5431  TIP3      H1             24.6487882836        8.6628258218        2.8407557219  SOLV      5420            0.0000000000
     16380      5431  TIP3      H2             24.8053573307        8.1903608643        4.2791701569  SOLV      5420            0.0000000000
     16381      5432  TIP3      OH2            20.8945747107       21.6693549105       -1.9893158430  SOLV      5421            0.0000000000
     16382      5432  TIP3      H1             20.0599867242       21.9889026733       -1.5869820391  SOLV      5421            0.0000000000
     16383      5432  TIP3      H2             20.6775597094       21.8275162737       -2.9319138953  SOLV      5421            0.0000000000
     16384      5433  TIP3      OH2            26.5514772440       21.7642972063      -10.0410508591  SOLV      5422            0.0000000000
     16385      5433  TIP3      H1             25.8943172491       21.1138672927       -9.6979578070  SOLV      5422            0.0000000000
     16386      5433  TIP3      H2             27.2909199365       21.1584001491      -10.2167498864  SOLV      5422            0.0000000000
     16387      5434  TIP3      OH2            23.0487034159       20.4900037433       10.2496458027  SOLV      5423            0.0000000000
     16388      5434  TIP3      H1             23.3313258529       19.5536759041       10.2710545036  SOLV      5423            0.0000000000
     16389      5434  TIP3      H2             22.2252782884       20.4609314559        9.7260258565  SOLV      5423            0.0000000000
     16390      5435  TIP3      OH2            27.8406919646       19.1032225008       -9.7543786679  SOLV      5424            0.0000000000
     16391      5435  TIP3      H1             27.9178908184       19.1908486480       -8.7883544771  SOLV      5424            0.0000000000
     16392      5435  TIP3      H2             27.8883061731       18.1228664328       -9.8346087151  SOLV      5424            0.0000000000
     16393      5436  TIP3      OH2            24.4924393694       18.0163940384       10.2910895114  SOLV      5425            0.0000000000
     16394      5436  TIP3      H1             25.2468850980       17.5301110290        9.9200806033  SOLV      5425            0.0000000000
     16395      5436  TIP3      H2             24.7428315737       18.1038647170       11.2256069076  SOLV      5425            0.0000000000
     16396      5437  TIP3      OH2            27.8400572927       16.9026842305        6.6406247564  SOLV      5426            0.0000000000
     16397      5437  TIP3      H1             26.9937872991       17.3997281592        6.6815331831  SOLV      5426            0.0000000000
     16398      5437  TIP3      H2             28.2719402596       17.2985443447        5.8583762336  SOLV      5426            0.0000000000
     16399      5438  TIP3      OH2            26.1644772263       13.8318516276       -7.2049009130  SOLV      5427            0.0000000000
     16400      5438  TIP3      H1             25.8020350158       14.1391332677       -8.0555030415  SOLV      5427            0.0000000000
     16401      5438  TIP3      H2             27.0946860026       14.1116635775       -7.2767513797  SOLV      5427            0.0000000000
     16402      5439  TIP3      OH2            28.9497970592       14.7241617749        7.9198142928  SOLV      5428            0.0000000000
     16403      5439  TIP3      H1             28.9452655158       13.9411908845        7.3393757517  SOLV      5428            0.0000000000
     16404      5439  TIP3      H2             28.5928993790       15.4210610161        7.3290422418  SOLV      5428            0.0000000000
     16405      5440  TIP3      OH2            29.0384506665       12.5527670503        6.0159291114  SOLV      5429            0.0000000000
     16406      5440  TIP3      H1             29.2798368019       13.0364270896        5.1993174817  SOLV      5429            0.0000000000
     16407      5440  TIP3      H2             28.0878153364       12.3655328524        5.8536952286  SOLV      5429            0.0000000000
     16408      5441  TIP3      OH2            29.5036563753       18.1469561417        4.7462509456  SOLV      5430            0.0000000000
     16409      5441  TIP3      H1             30.0964648605       17.8902281750        4.0191213721  SOLV      5430            0.0000000000
     16410      5441  TIP3      H2             28.8180388068       18.6730224460        4.2792058102  SOLV      5430            0.0000000000
     16411      5442  TIP3      OH2            26.7749222050       16.0473961719        9.6018488586  SOLV      5431            0.0000000000
     16412      5442  TIP3      H1             26.5575812813       15.1788347341        9.9961200515  SOLV      5431            0.0000000000
     16413      5442  TIP3      H2             27.5146847507       15.8005227728        9.0227331851  SOLV      5431            0.0000000000
     16414      5443  TIP3      OH2            30.2847285152       10.1977132413        6.7290099481  SOLV      5432            0.0000000000
     16415      5443  TIP3      H1             29.8265335227       11.0404594951        6.5027145792  SOLV      5432            0.0000000000
     16416      5443  TIP3      H2             29.5634515628        9.5540376041        6.5833838384  SOLV      5432            0.0000000000
     16417      5444  TIP3      OH2            31.6670963116       14.8637080960        8.6267872604  SOLV      5433            0.0000000000
     16418      5444  TIP3      H1             31.6146666371       15.3310903168        9.4701205740  SOLV      5433            0.0000000000
     16419      5444  TIP3      H2             30.7164058129       14.8154022223        8.3911316630  SOLV      5433            0.0000000000
     16420      5445  TIP3      OH2            33.8450494488       13.7312934889        7.3914367821  SOLV      5434            0.0000000000
     16421      5445  TIP3      H1             33.0635015644       14.0447088097        7.9125726350  SOLV      5434            0.0000000000
     16422      5445  TIP3      H2             34.5925376532       13.9964571873        7.9636521065  SOLV      5434            0.0000000000
     16423      5446  TIP3      OH2            26.1507733681       13.5083626457       10.6503670970  SOLV      5435            0.0000000000
     16424      5446  TIP3      H1             26.2503011510       12.5606765758       10.4489127376  SOLV      5435            0.0000000000
     16425      5446  TIP3      H2             26.4123156491       13.5261186277       11.5922521485  SOLV      5435            0.0000000000
     16426      5447  TIP3      OH2            31.0020967240       10.2188710062        9.3933362463  SOLV      5436            0.0000000000
     16427      5447  TIP3      H1             31.6233706121        9.4910120355        9.4984778550  SOLV      5436            0.0000000000
     16428      5447  TIP3      H2             30.7411981593       10.1565375476        8.4508915954  SOLV      5436            0.0000000000
     16429      5448  TIP3      OH2            31.9271125415       12.5137385859       10.5670788806  SOLV      5437            0.0000000000
     16430      5448  TIP3      H1             31.4634208676       11.7731968190       10.1258144473  SOLV      5437            0.0000000000
     16431      5448  TIP3      H2             31.2179723200       13.1785939126       10.6689342087  SOLV      5437            0.0000000000
     16432      5449  TIP3      OH2            24.0548056664       24.8327412334       -7.8591781974  SOLV      5438            0.0000000000
     16433      5449  TIP3      H1             24.9583184368       24.6049889443       -8.1513920985  SOLV      5438            0.0000000000
     16434      5449  TIP3      H2             23.7354641845       25.2788203121       -8.6744568752  SOLV      5438            0.0000000000
     16435      5450  TIP3      OH2            18.9640251256       18.5433040107       -5.9519388197  SOLV      5439            0.0000000000
     16436      5450  TIP3      H1             19.8799077004       18.8541717059       -6.1442141946  SOLV      5439            0.0000000000
     16437      5450  TIP3      H2             18.9671490592       17.6711200854       -6.4023149499  SOLV      5439            0.0000000000
     16438      5451  TIP3      OH2            18.1006967501       24.6725092095       -1.7482406475  SOLV      5440            0.0000000000
     16439      5451  TIP3      H1             17.4436159252       24.0629298834       -2.1550904764  SOLV      5440            0.0000000000
     16440      5451  TIP3      H2             18.5468974531       24.0633814061       -1.1231986812  SOLV      5440            0.0000000000
     16441      5452  TIP3      OH2            19.6420901259       23.1986333564       -0.0003959308  SOLV      5441            0.0000000000
     16442      5452  TIP3      H1             19.4984665253       22.5444137528        0.7151707145  SOLV      5441            0.0000000000
     16443      5452  TIP3      H2             20.1355790192       23.8624185575        0.5172249137  SOLV      5441            0.0000000000
     16444      5453  TIP3      OH2            23.4899150445       14.1004838264       10.4836198487  SOLV      5442            0.0000000000
     16445      5453  TIP3      H1             24.4709132380       14.0413123879       10.4705002292  SOLV      5442            0.0000000000
     16446      5453  TIP3      H2             23.2679207549       13.2245721081       10.8594844804  SOLV      5442            0.0000000000
     16447      5454  TIP3      OH2            23.1135612892       11.0520130077        3.9243940040  SOLV      5443            0.0000000000
     16448      5454  TIP3      H1             23.7664263834       10.3272532632        3.9253403333  SOLV      5443            0.0000000000
     16449      5454  TIP3      H2             23.6911550234       11.8201362152        3.7674861035  SOLV      5443            0.0000000000
     16450      5455  TIP3      OH2            21.0197033431       13.9171854755        4.6174084703  SOLV      5444            0.0000000000
     16451      5455  TIP3      H1             21.5870780054       13.9132340554        3.8207974536  SOLV      5444            0.0000000000
     16452      5455  TIP3      H2             20.9198538752       14.8663658213        4.7788107868  SOLV      5444            0.0000000000
     16453      5456  TIP3      OH2            20.9703002509        9.0552107447       -0.2869862559  SOLV      5445            0.0000000000
     16454      5456  TIP3      H1             20.0498795034        8.7567780266       -0.3171347178  SOLV      5445            0.0000000000
     16455      5456  TIP3      H2             21.0377045517        9.5223067785       -1.1479012409  SOLV      5445            0.0000000000
     16456      5457  TIP3      OH2            23.2057338616        9.5726533442        7.6889217626  SOLV      5446            0.0000000000
     16457      5457  TIP3      H1             22.6831684401        9.5818471240        8.5063155528  SOLV      5446            0.0000000000
     16458      5457  TIP3      H2             22.5846907713        9.9987373800        7.0677582434  SOLV      5446            0.0000000000
     16459      5458  TIP3      OH2            23.3844773662       23.6997865998        8.1625904184  SOLV      5447            0.0000000000
     16460      5458  TIP3      H1             22.4614505133       23.6064533680        7.8630840989  SOLV      5447            0.0000000000
     16461      5458  TIP3      H2             23.2791141893       23.5206685552        9.1232432401  SOLV      5447            0.0000000000
     16462      5459  TIP3      OH2            25.1363740539       24.0434134626        3.7379824982  SOLV      5448            0.0000000000
     16463      5459  TIP3      H1             24.6334519900       24.7946685624        3.3422903933  SOLV      5448            0.0000000000
     16464      5459  TIP3      H2             26.0173474751       24.2619371770        3.3667742558  SOLV      5448            0.0000000000
     16465      5460  TIP3      OH2            22.1003896830       26.8857810927        4.2585459821  SOLV      5449            0.0000000000
     16466      5460  TIP3      H1             21.2124388187       27.2112758266        3.9981512065  SOLV      5449            0.0000000000
     16467      5460  TIP3      H2             22.0247591734       26.8762420836        5.2144629510  SOLV      5449            0.0000000000
     16468      5461  TIP3      OH2            24.0756717728       26.1675633573        2.5333415230  SOLV      5450            0.0000000000
     16469      5461  TIP3      H1             23.4459695446       26.6074646205        3.1489237001  SOLV      5450            0.0000000000
     16470      5461  TIP3      H2             24.2309556073       26.8737323714        1.8785155550  SOLV      5450            0.0000000000
     16471      5462  TIP3      OH2            21.4093827577       24.7472223325        1.6360534918  SOLV      5451            0.0000000000
     16472      5462  TIP3      H1             21.3464271487       24.3239051511        2.5190896182  SOLV      5451            0.0000000000
     16473      5462  TIP3      H2             22.3722148306       24.8529268002        1.5945628612  SOLV      5451            0.0000000000
     16474      5463  TIP3      OH2            25.9211332351       24.4268183430        0.1394492151  SOLV      5452            0.0000000000
     16475      5463  TIP3      H1             26.1163749607       23.4745604755        0.0892493485  SOLV      5452            0.0000000000
     16476      5463  TIP3      H2             26.1966319196       24.6137313706        1.0521558189  SOLV      5452            0.0000000000
     16477      5464  TIP3      OH2            31.5041034069       11.0027967255        1.2823802847  SOLV      5453            0.0000000000
     16478      5464  TIP3      H1             31.1091601854       10.2506321263        1.7575131543  SOLV      5453            0.0000000000
     16479      5464  TIP3      H2             32.1660331828       10.5549137496        0.7103897716  SOLV      5453            0.0000000000
     16480      5465  TIP3      OH2            24.0268508813        8.0397079793        1.2914125623  SOLV      5454            0.0000000000
     16481      5465  TIP3      H1             23.0825751958        7.7922727158        1.2622967743  SOLV      5454            0.0000000000
     16482      5465  TIP3      H2             24.4553921443        7.1630022317        1.2030006005  SOLV      5454            0.0000000000
     16483      5466  TIP3      OH2            22.2240543081        6.7530718701       -2.2155035641  SOLV      5455            0.0000000000
     16484      5466  TIP3      H1             22.3611407661        7.2801081889       -3.0239057938  SOLV      5455            0.0000000000
     16485      5466  TIP3      H2             21.6031104258        7.3148348411       -1.7256914582  SOLV      5455            0.0000000000
     16486      5467  TIP3      OH2            28.6314548797        8.2847631332        0.0973830003  SOLV      5456            0.0000000000
     16487      5467  TIP3      H1             29.1225903800        8.7857058023       -0.5765674292  SOLV      5456            0.0000000000
     16488      5467  TIP3      H2             28.5485678006        8.9282756132        0.8027121509  SOLV      5456            0.0000000000
     16489      5468  TIP3      OH2            33.4320427729        9.6507250425       -0.1193565211  SOLV      5457            0.0000000000
     16490      5468  TIP3      H1             33.4659902691        9.4110511645       -1.0492135127  SOLV      5457            0.0000000000
     16491      5468  TIP3      H2             33.6196890261        8.8016001755        0.3301276658  SOLV      5457            0.0000000000
     16492      5469  TIP3      OH2            34.1162542436        9.1053391227       -4.3807614232  SOLV      5458            0.0000000000
     16493      5469  TIP3      H1             33.3057019998        9.6168501019       -4.2331466878  SOLV      5458            0.0000000000
     16494      5469  TIP3      H2             33.8773387009        8.2211941987       -4.0525021650  SOLV      5458            0.0000000000
     16495      5470  TIP3      OH2            19.2504313882       22.5617844995       -4.2644628847  SOLV      5459            0.0000000000
     16496      5470  TIP3      H1             18.4917554934       22.0155904778       -4.5289305361  SOLV      5459            0.0000000000
     16497      5470  TIP3      H2             18.9946551597       23.4044190788       -4.6808647753  SOLV      5459            0.0000000000
     16498      5471  TIP3      OH2            23.1373561229        8.3029580621       -4.6171444400  SOLV      5460            0.0000000000
     16499      5471  TIP3      H1             23.6216596079        7.7138204503       -5.2262131631  SOLV      5460            0.0000000000
     16500      5471  TIP3      H2             23.8589079481        8.8630626869       -4.2665806642  SOLV      5460            0.0000000000
     16501      5472  TIP3      OH2            28.1857187936       10.1239060949       -3.6379863147  SOLV      5461            0.0000000000
     16502      5472  TIP3      H1             28.7950407723        9.6775026878       -3.0291844527  SOLV      5461            0.0000000000
     16503      5472  TIP3      H2             28.3840692173       11.0601289873       -3.4119107215  SOLV      5461            0.0000000000
     16504      5473  TIP3      OH2            26.6175361187       24.0651899196       -8.5078402495  SOLV      5462            0.0000000000
     16505      5473  TIP3      H1             27.2082280070       24.7864863368       -8.8360191806  SOLV      5462            0.0000000000
     16506      5473  TIP3      H2             26.6266774484       23.4312262573       -9.2573774201  SOLV      5462            0.0000000000
     16507      5474  TIP3      OH2            26.1659206509       10.7160664222       10.1553383667  SOLV      5463            0.0000000000
     16508      5474  TIP3      H1             25.8243342290       10.0344186281       10.7653677450  SOLV      5463            0.0000000000
     16509      5474  TIP3      H2             27.0973967145       10.7732868394       10.4621911179  SOLV      5463            0.0000000000
     16510      5475  TIP3      OH2            28.6391579637       10.8343617660       11.3868746464  SOLV      5464            0.0000000000
     16511      5475  TIP3      H1             29.4908900360       10.5546611505       11.0081630010  SOLV      5464            0.0000000000
     16512      5475  TIP3      H2             28.4914285661       10.1435366404       12.0653163881  SOLV      5464            0.0000000000
     16513      5476  TIP3      OH2            19.8797064764       22.6475299783       -8.0845060644  SOLV      5465            0.0000000000
     16514      5476  TIP3      H1             19.9183203917       22.7623713996       -7.1269253452  SOLV      5465            0.0000000000
     16515      5476  TIP3      H2             20.7377485203       22.1963611765       -8.2669448379  SOLV      5465            0.0000000000
     16516      5477  TIP3      OH2           -18.3838805789       24.0070082137       13.0082939073  SOLV      5466            0.0000000000
     16517      5477  TIP3      H1            -18.1046086819       24.8490133282       13.4226983078  SOLV      5466            0.0000000000
     16518      5477  TIP3      H2            -18.1546183048       24.1731614262       12.0769364531  SOLV      5466            0.0000000000
     16519      5478  TIP3      OH2           -24.4892771385       25.8767217981       13.2438020812  SOLV      5467            0.0000000000
     16520      5478  TIP3      H1            -24.0632858484       25.0171943318       13.4203620872  SOLV      5467            0.0000000000
     16521      5478  TIP3      H2            -24.9274862182       25.6912636499       12.3912874018  SOLV      5467            0.0000000000
     16522      5479  TIP3      OH2           -24.0726515232       23.3848190968        9.1750840240  SOLV      5468            0.0000000000
     16523      5479  TIP3      H1            -23.3413935943       23.2419665134        9.8226684442  SOLV      5468            0.0000000000
     16524      5479  TIP3      H2            -23.5627751303       23.7183714431        8.4137124417  SOLV      5468            0.0000000000
     16525      5480  TIP3      OH2           -17.6274724050       26.0559381549       14.7367581003  SOLV      5469            0.0000000000
     16526      5480  TIP3      H1            -18.4513090004       26.5498367111       14.5303758006  SOLV      5469            0.0000000000
     16527      5480  TIP3      H2            -17.3233420775       26.5129276397       15.5403600635  SOLV      5469            0.0000000000
     16528      5481  TIP3      OH2           -22.0590931344       23.4388222260       10.9961892875  SOLV      5470            0.0000000000
     16529      5481  TIP3      H1            -22.2658483411       23.0645747324       11.8632493889  SOLV      5470            0.0000000000
     16530      5481  TIP3      H2            -21.5179863361       24.2165497046       11.2392966407  SOLV      5470            0.0000000000
     16531      5482  TIP3      OH2           -20.4530406466       22.9429437817       14.6331063385  SOLV      5471            0.0000000000
     16532      5482  TIP3      H1            -21.3148339241       23.2529930440       14.3091674020  SOLV      5471            0.0000000000
     16533      5482  TIP3      H2            -19.8404399190       23.2942538195       13.9526371446  SOLV      5471            0.0000000000
     16534      5483  TIP3      OH2           -19.1118882932       29.5541666471       13.2175044603  SOLV      5472            0.0000000000
     16535      5483  TIP3      H1            -19.9612047514       30.0561779937       13.2090255686  SOLV      5472            0.0000000000
     16536      5483  TIP3      H2            -18.8852256401       29.5862785260       12.2578195003  SOLV      5472            0.0000000000
     16537      5484  TIP3      OH2           -24.7817199232       28.0940158336        6.8524780254  SOLV      5473            0.0000000000
     16538      5484  TIP3      H1            -25.0714109870       28.6781966397        7.5675577007  SOLV      5473            0.0000000000
     16539      5484  TIP3      H2            -23.9542715844       27.7173446384        7.2283867730  SOLV      5473            0.0000000000
     16540      5485  TIP3      OH2           -22.2142142624       28.0646473112       15.8272392494  SOLV      5474            0.0000000000
     16541      5485  TIP3      H1            -22.3016109502       29.0138448512       16.0937480932  SOLV      5474            0.0000000000
     16542      5485  TIP3      H2            -23.1362984033       27.9505317343       15.4960555399  SOLV      5474            0.0000000000
     16543      5486  TIP3      OH2           -26.3035368684       26.4665941287        5.2332868632  SOLV      5475            0.0000000000
     16544      5486  TIP3      H1            -25.7730358458       27.1666570515        5.6632718954  SOLV      5475            0.0000000000
     16545      5486  TIP3      H2            -26.1326307779       26.6594738462        4.2817596244  SOLV      5475            0.0000000000
     16546      5487  TIP3      OH2           -21.1777625200       18.8662013989        5.4962550267  SOLV      5476            0.0000000000
     16547      5487  TIP3      H1            -21.9743526099       19.0975991855        6.0210686534  SOLV      5476            0.0000000000
     16548      5487  TIP3      H2            -21.0441391991       19.6908576091        4.9831334710  SOLV      5476            0.0000000000
     16549      5488  TIP3      OH2           -19.7849033029       27.9667263645       17.3809383945  SOLV      5477            0.0000000000
     16550      5488  TIP3      H1            -20.6589130632       27.9910436270       16.9577299436  SOLV      5477            0.0000000000
     16551      5488  TIP3      H2            -19.6430406066       27.0060972155       17.4793768814  SOLV      5477            0.0000000000
     16552      5489  TIP3      OH2           -24.5601101204       21.3064983812       18.0233672370  SOLV      5478            0.0000000000
     16553      5489  TIP3      H1            -23.6320648815       21.2507547325       18.3439101572  SOLV      5478            0.0000000000
     16554      5489  TIP3      H2            -24.9451958919       20.5769353035       18.5145713983  SOLV      5478            0.0000000000
     16555      5490  TIP3      OH2           -22.3238838417       25.4577402348       16.8397504540  SOLV      5479            0.0000000000
     16556      5490  TIP3      H1            -22.5900830225       25.6359045656       17.7713686088  SOLV      5479            0.0000000000
     16557      5490  TIP3      H2            -22.3542943325       26.3498520882       16.4456923258  SOLV      5479            0.0000000000
     16558      5491  TIP3      OH2           -25.5395603486       27.0515792124        2.6531732347  SOLV      5480            0.0000000000
     16559      5491  TIP3      H1            -25.9477464204       26.6998017512        1.8319219738  SOLV      5480            0.0000000000
     16560      5491  TIP3      H2            -24.6349867549       27.2156836044        2.3344628381  SOLV      5480            0.0000000000
     16561      5492  TIP3      OH2           -26.8592228680       25.4716805359        8.2773566947  SOLV      5481            0.0000000000
     16562      5492  TIP3      H1            -26.9365533071       26.0511283788        7.5117618607  SOLV      5481            0.0000000000
     16563      5492  TIP3      H2            -26.3751731430       24.7294756953        7.8660070781  SOLV      5481            0.0000000000
     16564      5493  TIP3      OH2           -25.2508742210       25.4153096475       10.6232418705  SOLV      5482            0.0000000000
     16565      5493  TIP3      H1            -25.8811260149       25.6553815610        9.9164958197  SOLV      5482            0.0000000000
     16566      5493  TIP3      H2            -24.8684469514       24.6051545382       10.2258198188  SOLV      5482            0.0000000000
     16567      5494  TIP3      OH2           -24.8393861706       27.7205558003       15.1837143637  SOLV      5483            0.0000000000
     16568      5494  TIP3      H1            -24.7125892134       27.0679572821       14.4470510073  SOLV      5483            0.0000000000
     16569      5494  TIP3      H2            -25.7567919906       27.5861477046       15.3936600158  SOLV      5483            0.0000000000
     16570      5495  TIP3      OH2           -23.5207746484       23.2428505345       13.6731231672  SOLV      5484            0.0000000000
     16571      5495  TIP3      H1            -23.8121464128       23.3798141367       14.6044063731  SOLV      5484            0.0000000000
     16572      5495  TIP3      H2            -24.1875266576       22.5734809743       13.4115791201  SOLV      5484            0.0000000000
     16573      5496  TIP3      OH2           -21.5034261712       30.7926703231       12.9767802089  SOLV      5485            0.0000000000
     16574      5496  TIP3      H1            -21.1712749077       31.4294003588       12.3106094111  SOLV      5485            0.0000000000
     16575      5496  TIP3      H2            -22.3178276048       30.4592491207       12.5520429746  SOLV      5485            0.0000000000
     16576      5497  TIP3      OH2           -26.1703640642       21.7212353914        5.3466781138  SOLV      5486            0.0000000000
     16577      5497  TIP3      H1            -27.0738544792       22.0262703429        5.2124375280  SOLV      5486            0.0000000000
     16578      5497  TIP3      H2            -25.7215404633       22.5855178577        5.4628675751  SOLV      5486            0.0000000000
     16579      5498  TIP3      OH2           -25.2499690404       24.1576567966        6.2952333200  SOLV      5487            0.0000000000
     16580      5498  TIP3      H1            -24.2966742730       24.3502703654        6.3510730147  SOLV      5487            0.0000000000
     16581      5498  TIP3      H2            -25.5851265367       24.9027330301        5.7486209943  SOLV      5487            0.0000000000
     16582      5499  TIP3      OH2           -20.9164148345       25.1140913089        4.5921927022  SOLV      5488            0.0000000000
     16583      5499  TIP3      H1            -21.5047051240       24.6822157804        3.9267959364  SOLV      5488            0.0000000000
     16584      5499  TIP3      H2            -20.9253593535       26.0151012875        4.1942554710  SOLV      5488            0.0000000000
     16585      5500  TIP3      OH2           -23.6834681688       29.6744437429       11.7067911875  SOLV      5489            0.0000000000
     16586      5500  TIP3      H1            -24.3993447247       29.4118126075       12.2943792277  SOLV      5489            0.0000000000
     16587      5500  TIP3      H2            -23.4205759737       28.8113901798       11.3183859308  SOLV      5489            0.0000000000
     16588      5501  TIP3      OH2           -24.5269643545       29.7773651572        4.6463982735  SOLV      5490            0.0000000000
     16589      5501  TIP3      H1            -24.7311961692       29.1682616421        5.3831113967  SOLV      5490            0.0000000000
     16590      5501  TIP3      H2            -23.5628868643       29.6438617525        4.5529459819  SOLV      5490            0.0000000000
     16591      5502  TIP3      OH2           -24.2522471097       23.5703723265       16.2442429638  SOLV      5491            0.0000000000
     16592      5502  TIP3      H1            -23.5509992428       24.1852209689       16.5405213465  SOLV      5491            0.0000000000
     16593      5502  TIP3      H2            -24.3354105317       22.9324039748       16.9726504596  SOLV      5491            0.0000000000
     16594      5503  TIP3      OH2           -25.2448117433       21.1328743552        7.9285349600  SOLV      5492            0.0000000000
     16595      5503  TIP3      H1            -25.7280052437       21.3587911046        7.1047842080  SOLV      5492            0.0000000000
     16596      5503  TIP3      H2            -24.9504306347       22.0148600180        8.2357351107  SOLV      5492            0.0000000000
     16597      5504  TIP3      OH2           -26.5254768708       20.4112109126       10.2211046214  SOLV      5493            0.0000000000
     16598      5504  TIP3      H1            -26.7105256146       21.3187931458       10.4725234821  SOLV      5493            0.0000000000
     16599      5504  TIP3      H2            -26.1479229742       20.5735633427        9.3275354939  SOLV      5493            0.0000000000
     16600      5505  TIP3      OH2           -19.5949473001       25.1847482086       16.8986541775  SOLV      5494            0.0000000000
     16601      5505  TIP3      H1            -20.5672069556       25.0696814653       16.8804282656  SOLV      5494            0.0000000000
     16602      5505  TIP3      H2            -19.3644405944       24.9710203009       15.9852781720  SOLV      5494            0.0000000000
     16603      5506  TIP3      OH2           -23.0153188824       27.1443087319       10.7600578776  SOLV      5495            0.0000000000
     16604      5506  TIP3      H1            -23.7616849096       26.5289890490       10.8958471531  SOLV      5495            0.0000000000
     16605      5506  TIP3      H2            -22.2895623568       26.6826938591       11.2354461167  SOLV      5495            0.0000000000
     16606      5507  TIP3      OH2           -23.1394077602       27.5610853716        1.2919309324  SOLV      5496            0.0000000000
     16607      5507  TIP3      H1            -23.3026628345       27.1804967653        0.4038955601  SOLV      5496            0.0000000000
     16608      5507  TIP3      H2            -23.3878451746       28.4887704705        1.1198621697  SOLV      5496            0.0000000000
     16609      5508  TIP3      OH2             1.9888294665      -24.5183508944      -30.5731417282  SOLV      5497            0.0000000000
     16610      5508  TIP3      H1              1.4853594860      -24.2370452019      -29.8018927133  SOLV      5497            0.0000000000
     16611      5508  TIP3      H2              2.8238294329      -24.8117705442      -30.1430959030  SOLV      5497            0.0000000000
     16612      5509  TIP3      OH2           -20.9285044364       24.6296183068       20.9930962105  SOLV      5498            0.0000000000
     16613      5509  TIP3      H1            -20.9479886151       23.6549934066       21.1035760103  SOLV      5498            0.0000000000
     16614      5509  TIP3      H2            -20.8221616118       24.9544833989       21.9114135940  SOLV      5498            0.0000000000
     16615      5510  TIP3      OH2           -21.8153066880       29.7345357983        4.5109379079  SOLV      5499            0.0000000000
     16616      5510  TIP3      H1            -21.2030307457       30.4353807885        4.2360547160  SOLV      5499            0.0000000000
     16617      5510  TIP3      H2            -21.3683008478       29.3923034499        5.3190263407  SOLV      5499            0.0000000000
     16618      5511  TIP3      OH2           -20.6079486059       28.4198683245        6.5843493255  SOLV      5500            0.0000000000
     16619      5511  TIP3      H1            -21.2504010266       28.0290058230        7.2123012105  SOLV      5500            0.0000000000
     16620      5511  TIP3      H2            -19.8818355630       28.7222848999        7.1705704830  SOLV      5500            0.0000000000
     16621      5512  TIP3      OH2           -21.1540955400       27.4293904419        3.1632453126  SOLV      5501            0.0000000000
     16622      5512  TIP3      H1            -21.8721675524       27.3858221912        2.4909189099  SOLV      5501            0.0000000000
     16623      5512  TIP3      H2            -21.4100502511       28.2441062114        3.6430771495  SOLV      5501            0.0000000000
     16624      5513  TIP3      OH2           -22.4772700228       24.2133076716        2.5674978793  SOLV      5502            0.0000000000
     16625      5513  TIP3      H1            -22.9907646046       24.5713321099        1.8356123698  SOLV      5502            0.0000000000
     16626      5513  TIP3      H2            -22.7118688199       23.2614605712        2.5058948989  SOLV      5502            0.0000000000
     16627      5514  TIP3      OH2           -22.5263532765       27.0018074864        8.0461293930  SOLV      5503            0.0000000000
     16628      5514  TIP3      H1            -22.3915023165       26.0442577612        7.9383569633  SOLV      5503            0.0000000000
     16629      5514  TIP3      H2            -22.6079956128       27.0948959978        9.0197989916  SOLV      5503            0.0000000000
     16630      5515  TIP3      OH2           -17.3864639130       29.2193163222       17.1024136441  SOLV      5504            0.0000000000
     16631      5515  TIP3      H1            -18.2639043066       28.8346653703       17.3113916135  SOLV      5504            0.0000000000
     16632      5515  TIP3      H2            -16.8397239841       28.4096419362       17.0866999647  SOLV      5504            0.0000000000
     16633      5516  TIP3      OH2           -23.0824195771       21.5592428123        2.4626865270  SOLV      5505            0.0000000000
     16634      5516  TIP3      H1            -22.3411756930       21.2317130000        3.0112509179  SOLV      5505            0.0000000000
     16635      5516  TIP3      H2            -23.8172574994       20.9707685435        2.6899119293  SOLV      5505            0.0000000000
     16636      5517  TIP3      OH2           -22.4353746095       24.2128495881        6.9965537945  SOLV      5506            0.0000000000
     16637      5517  TIP3      H1            -22.0252841087       23.3264636163        7.1362660242  SOLV      5506            0.0000000000
     16638      5517  TIP3      H2            -21.8914247486       24.5303475956        6.2508557317  SOLV      5506            0.0000000000
     16639      5518  TIP3      OH2           -20.8671337585       25.8321394741       11.9182451942  SOLV      5507            0.0000000000
     16640      5518  TIP3      H1            -20.0119601432       26.0887375703       11.5011925154  SOLV      5507            0.0000000000
     16641      5518  TIP3      H2            -20.7047965154       26.2059549987       12.8072584352  SOLV      5507            0.0000000000
     16642      5519  TIP3      OH2           -20.0943357033       27.2174745686       14.2110051792  SOLV      5508            0.0000000000
     16643      5519  TIP3      H1            -20.8534743089       27.5534096320       14.7315792815  SOLV      5508            0.0000000000
     16644      5519  TIP3      H2            -19.7488948227       28.0549103801       13.8286178281  SOLV      5508            0.0000000000
     16645      5520  TIP3      OH2           -15.6324431011       23.0509634009       19.7387092672  SOLV      5509            0.0000000000
     16646      5520  TIP3      H1            -15.0116129800       22.4300204164       19.2961544991  SOLV      5509            0.0000000000
     16647      5520  TIP3      H2            -15.9800153642       23.5536895730       18.9713110590  SOLV      5509            0.0000000000
     16648      5521  TIP3      OH2           -21.3943511519       21.6815695105        7.3917545524  SOLV      5510            0.0000000000
     16649      5521  TIP3      H1            -20.9278672787       21.5030853778        8.2350215763  SOLV      5510            0.0000000000
     16650      5521  TIP3      H2            -21.9843008537       20.9019113196        7.3459843118  SOLV      5510            0.0000000000
     16651      5522  TIP3      OH2           -17.0363803090       24.5112576545       17.9591301306  SOLV      5511            0.0000000000
     16652      5522  TIP3      H1            -17.8349546102       25.0054196388       18.2428800962  SOLV      5511            0.0000000000
     16653      5522  TIP3      H2            -17.4477563950       23.8684004602       17.3460563543  SOLV      5511            0.0000000000
     16654      5523  TIP3      OH2           -20.6527825439       20.9562878545        3.7536098159  SOLV      5512            0.0000000000
     16655      5523  TIP3      H1            -20.2465641829       20.2813289912        3.1707369887  SOLV      5512            0.0000000000
     16656      5523  TIP3      H2            -19.9999268656       21.6829011172        3.7182367102  SOLV      5512            0.0000000000
     16657      5524  TIP3      OH2           -18.0319872192       22.2279792667       16.6859297206  SOLV      5513            0.0000000000
     16658      5524  TIP3      H1            -18.9006251199       22.1706020720       16.2519812559  SOLV      5513            0.0000000000
     16659      5524  TIP3      H2            -17.6830850913       21.3150325342       16.5571233134  SOLV      5513            0.0000000000
     16660      5525  TIP3      OH2           -25.5021043975       21.2971351998       13.1709250801  SOLV      5514            0.0000000000
     16661      5525  TIP3      H1            -26.3608201368       20.9915083573       12.9049049991  SOLV      5514            0.0000000000
     16662      5525  TIP3      H2            -24.9132218907       20.9168757180       12.4761742353  SOLV      5514            0.0000000000
     16663      5526  TIP3      OH2           -20.7262928501       20.2307373114       11.9354915813  SOLV      5515            0.0000000000
     16664      5526  TIP3      H1            -20.3516659137       20.7408362901       11.1830325611  SOLV      5515            0.0000000000
     16665      5526  TIP3      H2            -21.6816606279       20.4094192468       11.8300283928  SOLV      5515            0.0000000000
     16666      5527  TIP3      OH2           -19.7706538544       21.1614650161        9.5617202082  SOLV      5516            0.0000000000
     16667      5527  TIP3      H1            -19.0303972260       20.6446928694        9.1776079511  SOLV      5516            0.0000000000
     16668      5527  TIP3      H2            -19.4226237901       22.0745835852        9.4231185506  SOLV      5516            0.0000000000
     16669      5528  TIP3      OH2           -23.5029787660       20.1979053656       11.6121039813  SOLV      5517            0.0000000000
     16670      5528  TIP3      H1            -23.5929576181       19.8269574375       10.7268803537  SOLV      5517            0.0000000000
     16671      5528  TIP3      H2            -23.6497546082       19.4136703140       12.1868544723  SOLV      5517            0.0000000000
     16672      5529  TIP3      OH2           -23.1432437471       19.5022048190        7.3058638351  SOLV      5518            0.0000000000
     16673      5529  TIP3      H1            -23.9513576498       20.0287051674        7.4891019527  SOLV      5518            0.0000000000
     16674      5529  TIP3      H2            -23.3722488476       18.6566405131        7.7463322190  SOLV      5518            0.0000000000
     16675      5530  TIP3      OH2           -20.6303162080       21.8832128719       21.0105624758  SOLV      5519            0.0000000000
     16676      5530  TIP3      H1            -20.4726863470       21.5368382782       21.9175721522  SOLV      5519            0.0000000000
     16677      5530  TIP3      H2            -19.7318242708       21.8457064277       20.6195981799  SOLV      5519            0.0000000000
     16678      5531  TIP3      OH2            -8.4915587275       31.0289944925        3.5920601684  SOLV      5520            0.0000000000
     16679      5531  TIP3      H1             -8.7638896390       31.9509993664        3.6637511305  SOLV      5520            0.0000000000
     16680      5531  TIP3      H2             -9.2829744078       30.6098057786        3.2020553672  SOLV      5520            0.0000000000
     16681      5532  TIP3      OH2            -8.1905543236       31.1678504682        7.3107641678  SOLV      5521            0.0000000000
     16682      5532  TIP3      H1             -8.1905501761       30.8047083105        8.2096099353  SOLV      5521            0.0000000000
     16683      5532  TIP3      H2             -9.0036647451       30.8022764542        6.9372190273  SOLV      5521            0.0000000000
     16684      5533  TIP3      OH2           -15.6158614676       30.0743061969       11.2055891387  SOLV      5522            0.0000000000
     16685      5533  TIP3      H1            -15.0774687359       29.4511134793       11.7176001089  SOLV      5522            0.0000000000
     16686      5533  TIP3      H2            -15.0469957985       30.8581938285       11.1439487505  SOLV      5522            0.0000000000
     16687      5534  TIP3      OH2           -18.8005326418       26.1418755184        6.0795094973  SOLV      5523            0.0000000000
     16688      5534  TIP3      H1            -19.1951812425       27.0087354654        6.2673267777  SOLV      5523            0.0000000000
     16689      5534  TIP3      H2            -19.5523054202       25.6879486773        5.6614008670  SOLV      5523            0.0000000000
     16690      5535  TIP3      OH2           -18.1770543149       29.0947431353        7.7052221617  SOLV      5524            0.0000000000
     16691      5535  TIP3      H1            -17.7938998602       28.3307813527        8.1951820942  SOLV      5524            0.0000000000
     16692      5535  TIP3      H2            -17.3777996665       29.6335457341        7.6010312730  SOLV      5524            0.0000000000
     16693      5536  TIP3      OH2            -0.4191981804       26.6012393917        7.8687508444  SOLV      5525            0.0000000000
     16694      5536  TIP3      H1             -0.1241145675       27.4389643983        8.2791814153  SOLV      5525            0.0000000000
     16695      5536  TIP3      H2             -0.1937918031       26.7587662302        6.9359742293  SOLV      5525            0.0000000000
     16696      5537  TIP3      OH2            -6.4549879432       28.4060823461        8.2027387903  SOLV      5526            0.0000000000
     16697      5537  TIP3      H1             -6.0462834163       27.5354238145        8.3680005616  SOLV      5526            0.0000000000
     16698      5537  TIP3      H2             -6.7965823117       28.2792265169        7.2964873948  SOLV      5526            0.0000000000
     16699      5538  TIP3      OH2           -13.0293391126       24.9967848077        7.8449995267  SOLV      5527            0.0000000000
     16700      5538  TIP3      H1            -13.2359059620       25.7255971815        7.2208948289  SOLV      5527            0.0000000000
     16701      5538  TIP3      H2            -13.5360802231       24.2699017946        7.4213886075  SOLV      5527            0.0000000000
     16702      5539  TIP3      OH2            -6.1097620508       25.9163888183        4.0501663582  SOLV      5528            0.0000000000
     16703      5539  TIP3      H1             -5.3922166669       25.8012787241        4.7161294096  SOLV      5528            0.0000000000
     16704      5539  TIP3      H2             -5.5989023705       26.2860417069        3.3088540406  SOLV      5528            0.0000000000
     16705      5540  TIP3      OH2           -16.7967717848       27.0045442637        8.9405822986  SOLV      5529            0.0000000000
     16706      5540  TIP3      H1            -15.9449980337       26.8870524093        9.3964072574  SOLV      5529            0.0000000000
     16707      5540  TIP3      H2            -16.6256761132       26.5013636667        8.1177162322  SOLV      5529            0.0000000000
     16708      5541  TIP3      OH2           -12.3602559581       28.9769350856        6.6390380208  SOLV      5530            0.0000000000
     16709      5541  TIP3      H1            -11.4420110607       28.7241424586        6.8683093984  SOLV      5530            0.0000000000
     16710      5541  TIP3      H2            -12.7541244039       28.1230351531        6.3622212019  SOLV      5530            0.0000000000
     16711      5542  TIP3      OH2             0.3152500690       28.6891495906        9.5632653730  SOLV      5531            0.0000000000
     16712      5542  TIP3      H1             -0.5336049149       29.1333539278        9.3567761092  SOLV      5531            0.0000000000
     16713      5542  TIP3      H2              0.4283219400       28.9384786404       10.4913392949  SOLV      5531            0.0000000000
     16714      5543  TIP3      OH2           -13.1262183196       24.8437458230       12.2151430146  SOLV      5532            0.0000000000
     16715      5543  TIP3      H1            -13.6900835531       25.2172476922       11.5106258243  SOLV      5532            0.0000000000
     16716      5543  TIP3      H2            -13.6774558508       25.0404610592       13.0015225608  SOLV      5532            0.0000000000
     16717      5544  TIP3      OH2           -12.0563303450       31.8446204692       10.4686626323  SOLV      5533            0.0000000000
     16718      5544  TIP3      H1            -12.9035448066       32.2134510051       10.7267025995  SOLV      5533            0.0000000000
     16719      5544  TIP3      H2            -11.9993078474       32.1821223693        9.5447906484  SOLV      5533            0.0000000000
     16720      5545  TIP3      OH2            -4.0965052277       26.0104450870        5.8681366212  SOLV      5534            0.0000000000
     16721      5545  TIP3      H1             -4.2899307588       25.5917441462        6.7162951239  SOLV      5534            0.0000000000
     16722      5545  TIP3      H2             -3.5639279472       26.7843122094        6.1382926515  SOLV      5534            0.0000000000
     16723      5546  TIP3      OH2           -14.3794735824       25.9879832050       10.0273824742  SOLV      5535            0.0000000000
     16724      5546  TIP3      H1            -13.7672504287       26.7214203867       10.2516829756  SOLV      5535            0.0000000000
     16725      5546  TIP3      H2            -13.8926284103       25.5903539524        9.2687620078  SOLV      5535            0.0000000000
     16726      5547  TIP3      OH2            -2.4977898758       25.6022076704        9.5298278452  SOLV      5536            0.0000000000
     16727      5547  TIP3      H1             -3.3718876719       25.8519253074        9.1895684951  SOLV      5536            0.0000000000
     16728      5547  TIP3      H2             -1.8974989742       25.9189358819        8.8224471801  SOLV      5536            0.0000000000
     16729      5548  TIP3      OH2            -9.6072713213       21.9897288811        9.3750384861  SOLV      5537            0.0000000000
     16730      5548  TIP3      H1             -9.7586403693       21.0445379056        9.5647139128  SOLV      5537            0.0000000000
     16731      5548  TIP3      H2            -10.3750031630       22.3894969232        9.8388939225  SOLV      5537            0.0000000000
     16732      5549  TIP3      OH2           -10.1782371988       29.5318150032        1.9438291740  SOLV      5538            0.0000000000
     16733      5549  TIP3      H1            -11.0465744131       29.9884241641        1.8135661815  SOLV      5538            0.0000000000
     16734      5549  TIP3      H2             -9.6945335339       29.9482806829        1.2114770992  SOLV      5538            0.0000000000
     16735      5550  TIP3      OH2           -10.7335204913       27.5933556352       -1.0003381914  SOLV      5539            0.0000000000
     16736      5550  TIP3      H1            -10.1598304124       28.0695214869       -0.3764539191  SOLV      5539            0.0000000000
     16737      5550  TIP3      H2            -10.0905254585       27.0039272648       -1.4366153827  SOLV      5539            0.0000000000
     16738      5551  TIP3      OH2            -1.2903185686       32.1912703587        8.0814011752  SOLV      5540            0.0000000000
     16739      5551  TIP3      H1             -2.1242645404       32.7028131953        8.0187313940  SOLV      5540            0.0000000000
     16740      5551  TIP3      H2             -1.0053448092       32.1856283449        7.1363884440  SOLV      5540            0.0000000000
     16741      5552  TIP3      OH2            -6.7000084165       30.4905358769        1.5903255918  SOLV      5541            0.0000000000
     16742      5552  TIP3      H1             -7.3004010257       30.6899581204        2.3479056033  SOLV      5541            0.0000000000
     16743      5552  TIP3      H2             -5.8922250866       30.2198354455        2.0722170949  SOLV      5541            0.0000000000
     16744      5553  TIP3      OH2            -4.5014037069       30.8674674681       10.7185726592  SOLV      5542            0.0000000000
     16745      5553  TIP3      H1             -4.5811582798       31.8163689676       10.9141423380  SOLV      5542            0.0000000000
     16746      5553  TIP3      H2             -5.3860997914       30.7334716592       10.3141828972  SOLV      5542            0.0000000000
     16747      5554  TIP3      OH2           -14.4721001033       30.5203248818        5.5669231631  SOLV      5543            0.0000000000
     16748      5554  TIP3      H1            -14.7992817762       29.8369589386        4.9507066872  SOLV      5543            0.0000000000
     16749      5554  TIP3      H2            -13.6327107564       30.1269872019        5.8850662041  SOLV      5543            0.0000000000
     16750      5555  TIP3      OH2           -13.3648183028       29.7725167309        9.0454982699  SOLV      5544            0.0000000000
     16751      5555  TIP3      H1            -13.0559096663       29.5879822932        8.1311358932  SOLV      5544            0.0000000000
     16752      5555  TIP3      H2            -12.8983882536       30.6122580148        9.2023801169  SOLV      5544            0.0000000000
     16753      5556  TIP3      OH2            -8.2430672858       29.0015820517       -0.1305291708  SOLV      5545            0.0000000000
     16754      5556  TIP3      H1             -7.7452286360       29.6548517312        0.4082874871  SOLV      5545            0.0000000000
     16755      5556  TIP3      H2             -8.0490740749       29.3177773566       -1.0410098223  SOLV      5545            0.0000000000
     16756      5557  TIP3      OH2           -14.1547043897       31.0851424815       13.7195562706  SOLV      5546            0.0000000000
     16757      5557  TIP3      H1            -14.1549329808       31.9475476062       14.1413590397  SOLV      5546            0.0000000000
     16758      5557  TIP3      H2            -15.0943677832       30.8135425196       13.8072904852  SOLV      5546            0.0000000000
     16759      5558  TIP3      OH2            -3.2412707691       21.4474840299        0.3897740496  SOLV      5547            0.0000000000
     16760      5558  TIP3      H1             -4.0545324976       21.6693226630        0.8892892515  SOLV      5547            0.0000000000
     16761      5558  TIP3      H2             -3.1058010942       22.2702612911       -0.1238253550  SOLV      5547            0.0000000000
     16762      5559  TIP3      OH2           -15.8527509760       28.7286230932        3.7608852412  SOLV      5548            0.0000000000
     16763      5559  TIP3      H1            -16.6165982577       29.1681805836        3.3360192986  SOLV      5548            0.0000000000
     16764      5559  TIP3      H2            -16.2428941279       27.8972439904        4.0476605471  SOLV      5548            0.0000000000
     16765      5560  TIP3      OH2           -17.6106196390       32.1488194427       12.6003337347  SOLV      5549            0.0000000000
     16766      5560  TIP3      H1            -18.4630693476       32.0476511326       12.1310864735  SOLV      5549            0.0000000000
     16767      5560  TIP3      H2            -17.4395119919       31.2445429349       12.8987754993  SOLV      5549            0.0000000000
     16768      5561  TIP3      OH2            -1.9501079024       30.4906977321       12.5189711306  SOLV      5550            0.0000000000
     16769      5561  TIP3      H1             -2.7956689250       30.5711209178       12.0530248939  SOLV      5550            0.0000000000
     16770      5561  TIP3      H2             -1.7746581542       29.5305840511       12.4350917904  SOLV      5550            0.0000000000
     16771      5562  TIP3      OH2           -11.9714273449       22.7875106200       10.6832550360  SOLV      5551            0.0000000000
     16772      5562  TIP3      H1            -12.8544706505       22.4908439173       10.3787152823  SOLV      5551            0.0000000000
     16773      5562  TIP3      H2            -12.2350348225       23.6013601330       11.1565260393  SOLV      5551            0.0000000000
     16774      5563  TIP3      OH2            -6.5943235447       23.9370728389       12.6168349431  SOLV      5552            0.0000000000
     16775      5563  TIP3      H1             -5.9001602889       23.6468660252       13.2445143617  SOLV      5552            0.0000000000
     16776      5563  TIP3      H2             -7.4220655365       23.7224350042       13.0935746335  SOLV      5552            0.0000000000
     16777      5564  TIP3      OH2            -4.2530407238       28.2508357251       11.7790441076  SOLV      5553            0.0000000000
     16778      5564  TIP3      H1             -4.7540846801       28.2292435763       12.6265878213  SOLV      5553            0.0000000000
     16779      5564  TIP3      H2             -4.5095257681       29.1122004978       11.4025982051  SOLV      5553            0.0000000000
     16780      5565  TIP3      OH2            -7.5893936671       29.6099476349       -2.6565767948  SOLV      5554            0.0000000000
     16781      5565  TIP3      H1             -7.8721270267       29.2246880538       -3.5117772500  SOLV      5554            0.0000000000
     16782      5565  TIP3      H2             -6.6546975913       29.8043532520       -2.8536501362  SOLV      5554            0.0000000000
     16783      5566  TIP3      OH2           -10.5026769186       23.2435112081        0.3674948169  SOLV      5555            0.0000000000
     16784      5566  TIP3      H1            -10.8523308863       23.2394421626        1.2799607997  SOLV      5555            0.0000000000
     16785      5566  TIP3      H2            -10.9194811854       22.4265651848        0.0302946335  SOLV      5555            0.0000000000
     16786      5567  TIP3      OH2           -12.5706029707       27.9188101973       10.8505804584  SOLV      5556            0.0000000000
     16787      5567  TIP3      H1            -13.0985598314       28.1241556942       11.6529062742  SOLV      5556            0.0000000000
     16788      5567  TIP3      H2            -12.8556362835       28.6346225699       10.2361687438  SOLV      5556            0.0000000000
     16789      5568  TIP3      OH2           -13.7986400455       26.7508511971        5.9501228360  SOLV      5557            0.0000000000
     16790      5568  TIP3      H1            -14.7340055440       26.5350315517        6.1498978383  SOLV      5557            0.0000000000
     16791      5568  TIP3      H2            -13.7108459902       26.3452556696        5.0586318462  SOLV      5557            0.0000000000
     16792      5569  TIP3      OH2            -8.8752258997       27.5789440754        3.3094301052  SOLV      5558            0.0000000000
     16793      5569  TIP3      H1             -9.3828439638       28.2916287696        2.8554672560  SOLV      5558            0.0000000000
     16794      5569  TIP3      H2             -8.3173042488       27.2533592757        2.5773804164  SOLV      5558            0.0000000000
     16795      5570  TIP3      OH2            -7.0720368949       30.4644303557       14.1641188185  SOLV      5559            0.0000000000
     16796      5570  TIP3      H1             -7.3216418351       29.6928836994       14.7177190758  SOLV      5559            0.0000000000
     16797      5570  TIP3      H2             -6.1165163274       30.5139301123       14.3492621280  SOLV      5559            0.0000000000
     16798      5571  TIP3      OH2            -7.3267107259       27.9311421428        5.6474712927  SOLV      5560            0.0000000000
     16799      5571  TIP3      H1             -7.9740479967       28.2179414290        4.9713636640  SOLV      5560            0.0000000000
     16800      5571  TIP3      H2             -6.9993622713       27.1292941748        5.1907904746  SOLV      5560            0.0000000000
     16801      5572  TIP3      OH2           -14.3308151490       28.1827898686       12.9383598163  SOLV      5561            0.0000000000
     16802      5572  TIP3      H1            -14.5107157478       28.8517075039       13.6138693833  SOLV      5561            0.0000000000
     16803      5572  TIP3      H2            -14.5293316450       27.3551025363       13.4166711587  SOLV      5561            0.0000000000
     16804      5573  TIP3      OH2           -13.9315482196       23.0368470439        0.0170508902  SOLV      5562            0.0000000000
     16805      5573  TIP3      H1            -14.0450006617       23.0247268304        0.9888008466  SOLV      5562            0.0000000000
     16806      5573  TIP3      H2            -14.7114152263       23.5546872286       -0.2521006985  SOLV      5562            0.0000000000
     16807      5574  TIP3      OH2           -18.5148033244       23.4014813676        8.7769057078  SOLV      5563            0.0000000000
     16808      5574  TIP3      H1            -17.7799994362       23.7664632820        9.3114559329  SOLV      5563            0.0000000000
     16809      5574  TIP3      H2            -18.0962320624       23.1963703175        7.9318502661  SOLV      5563            0.0000000000
     16810      5575  TIP3      OH2           -18.9169839557       23.2215055754        3.9130236309  SOLV      5564            0.0000000000
     16811      5575  TIP3      H1            -18.4715054375       23.6009530600        3.1230546627  SOLV      5564            0.0000000000
     16812      5575  TIP3      H2            -19.5108921669       23.9629331038        4.1362142300  SOLV      5564            0.0000000000
     16813      5576  TIP3      OH2            -7.1631450365       30.3428196861        9.9256488914  SOLV      5565            0.0000000000
     16814      5576  TIP3      H1             -6.8803213669       29.6770775266        9.2557695875  SOLV      5565            0.0000000000
     16815      5576  TIP3      H2             -7.4777243975       29.7456022455       10.6379231103  SOLV      5565            0.0000000000
     16816      5577  TIP3      OH2           -10.4559672602       24.9152028282        6.5593171483  SOLV      5566            0.0000000000
     16817      5577  TIP3      H1            -11.2729519719       24.9715865435        7.0952622527  SOLV      5566            0.0000000000
     16818      5577  TIP3      H2             -9.7678795752       24.9950732719        7.2404456366  SOLV      5566            0.0000000000
     16819      5578  TIP3      OH2           -16.1916082595       25.6088897686        6.6416951266  SOLV      5567            0.0000000000
     16820      5578  TIP3      H1            -17.1340476966       25.6715477628        6.3546194059  SOLV      5567            0.0000000000
     16821      5578  TIP3      H2            -15.9472617808       24.6957683658        6.4047013406  SOLV      5567            0.0000000000
     16822      5579  TIP3      OH2           -13.5506949297       25.5090638865        3.5464200174  SOLV      5568            0.0000000000
     16823      5579  TIP3      H1            -12.6157720678       25.7085463103        3.3458819707  SOLV      5568            0.0000000000
     16824      5579  TIP3      H2            -14.0199239829       25.7613234091        2.7185021977  SOLV      5568            0.0000000000
     16825      5580  TIP3      OH2            -5.6138570078       25.7852754016        8.6194543210  SOLV      5569            0.0000000000
     16826      5580  TIP3      H1             -5.9301852130       25.9214208503        9.5400674872  SOLV      5569            0.0000000000
     16827      5580  TIP3      H2             -6.3101674456       25.1921440932        8.2815891840  SOLV      5569            0.0000000000
     16828      5581  TIP3      OH2           -15.0397496404       25.8776040419        1.3002810142  SOLV      5570            0.0000000000
     16829      5581  TIP3      H1            -15.7442751718       25.4442265260        0.7872223997  SOLV      5570            0.0000000000
     16830      5581  TIP3      H2            -14.5021112726       26.2625927420        0.5752029472  SOLV      5570            0.0000000000
     16831      5582  TIP3      OH2            -9.7979649239       28.2111934301        7.5677164675  SOLV      5571            0.0000000000
     16832      5582  TIP3      H1             -8.9722729297       28.0003267738        7.1159649127  SOLV      5571            0.0000000000
     16833      5582  TIP3      H2             -9.6858638372       27.7908807671        8.4402211556  SOLV      5571            0.0000000000
     16834      5583  TIP3      OH2           -14.5460645093       23.1786557405        6.4078575043  SOLV      5572            0.0000000000
     16835      5583  TIP3      H1            -14.8907520944       22.3988748341        6.8953807748  SOLV      5572            0.0000000000
     16836      5583  TIP3      H2            -14.1185197590       22.7639298222        5.6492951042  SOLV      5572            0.0000000000
     16837      5584  TIP3      OH2            -9.9233946692       27.2709755075       10.4317742380  SOLV      5573            0.0000000000
     16838      5584  TIP3      H1            -10.8299273971       27.6186375929       10.5762369541  SOLV      5573            0.0000000000
     16839      5584  TIP3      H2             -9.3612375616       27.8827762862       10.9470546182  SOLV      5573            0.0000000000
     16840      5585  TIP3      OH2           -12.3412144974       30.9725191907        1.3730287050  SOLV      5574            0.0000000000
     16841      5585  TIP3      H1            -13.1621991104       30.4328788479        1.3795256659  SOLV      5574            0.0000000000
     16842      5585  TIP3      H2            -12.6234727746       31.8730102325        1.5438498817  SOLV      5574            0.0000000000
     16843      5586  TIP3      OH2            -3.7075617598       33.5681827219        7.9453669950  SOLV      5575            0.0000000000
     16844      5586  TIP3      H1             -3.3388867087       34.0591595101        7.1782077719  SOLV      5575            0.0000000000
     16845      5586  TIP3      H2             -4.4623799269       33.0971618466        7.5298227543  SOLV      5575            0.0000000000
     16846      5587  TIP3      OH2            -8.0159555813       24.2854575890        0.0465051859  SOLV      5576            0.0000000000
     16847      5587  TIP3      H1             -8.9738905565       24.0801377374        0.1650501089  SOLV      5576            0.0000000000
     16848      5587  TIP3      H2             -7.9458265167       25.2205713430        0.3275962701  SOLV      5576            0.0000000000
     16849      5588  TIP3      OH2            -7.3227350600       26.7528199235        1.1072608804  SOLV      5577            0.0000000000
     16850      5588  TIP3      H1             -6.3631721642       26.8708845998        1.2382825792  SOLV      5577            0.0000000000
     16851      5588  TIP3      H2             -7.5672176802       27.5585439546        0.5990686137  SOLV      5577            0.0000000000
     16852      5589  TIP3      OH2           -15.9163293116       30.7228715508        8.2022684884  SOLV      5578            0.0000000000
     16853      5589  TIP3      H1            -15.4093855066       31.1089176799        7.4652003740  SOLV      5578            0.0000000000
     16854      5589  TIP3      H2            -15.1836221997       30.3441120007        8.7286128140  SOLV      5578            0.0000000000
     16855      5590  TIP3      OH2           -16.5878767445       30.0628901765       14.3462676364  SOLV      5579            0.0000000000
     16856      5590  TIP3      H1            -16.8469845798       30.4450121729       15.2029446050  SOLV      5579            0.0000000000
     16857      5590  TIP3      H2            -17.4246660554       29.6333085170       14.0746588308  SOLV      5579            0.0000000000
     16858      5591  TIP3      OH2            -9.5597486083       31.5557847813       14.7492894231  SOLV      5580            0.0000000000
     16859      5591  TIP3      H1            -10.1948928377       31.0656289035       14.1909399980  SOLV      5580            0.0000000000
     16860      5591  TIP3      H2             -8.7236510626       31.2859696224       14.3098525131  SOLV      5580            0.0000000000
     16861      5592  TIP3      OH2            -2.9362132813       27.6689973701       -0.5533444002  SOLV      5581            0.0000000000
     16862      5592  TIP3      H1             -3.5509368350       27.2443016504       -1.1970809752  SOLV      5581            0.0000000000
     16863      5592  TIP3      H2             -2.9471638960       28.5712716639       -0.9452447434  SOLV      5581            0.0000000000
     16864      5593  TIP3      OH2            -5.7349373127       32.2275637935        6.6193553563  SOLV      5582            0.0000000000
     16865      5593  TIP3      H1             -6.6484631664       31.9722883134        6.8870535241  SOLV      5582            0.0000000000
     16866      5593  TIP3      H2             -5.4500702328       31.3761708774        6.2255435358  SOLV      5582            0.0000000000
     16867      5594  TIP3      OH2           -18.9496146627       27.4028033384        1.5511631331  SOLV      5583            0.0000000000
     16868      5594  TIP3      H1            -18.5224849843       28.2707372660        1.7279783638  SOLV      5583            0.0000000000
     16869      5594  TIP3      H2            -19.7166340076       27.4645588152        2.1628944505  SOLV      5583            0.0000000000
     16870      5595  TIP3      OH2           -14.7571757988       25.6489595465       14.3342155632  SOLV      5584            0.0000000000
     16871      5595  TIP3      H1            -15.7263989156       25.6988498140       14.4473173413  SOLV      5584            0.0000000000
     16872      5595  TIP3      H2            -14.5065364499       25.0592785544       15.0608127791  SOLV      5584            0.0000000000
     16873      5596  TIP3      OH2            -6.5466022550       32.3247151643       -0.4835091579  SOLV      5585            0.0000000000
     16874      5596  TIP3      H1             -6.7305632030       31.6953107004        0.2504497046  SOLV      5585            0.0000000000
     16875      5596  TIP3      H2             -5.5807158415       32.1982710644       -0.5800326893  SOLV      5585            0.0000000000
     16876      5597  TIP3      OH2           -17.9799575044       29.8524775476        2.3203971106  SOLV      5586            0.0000000000
     16877      5597  TIP3      H1            -18.7429729302       30.4472831147        2.4883601404  SOLV      5586            0.0000000000
     16878      5597  TIP3      H2            -17.4009397467       30.4338554049        1.7835715434  SOLV      5586            0.0000000000
     16879      5598  TIP3      OH2            -6.3161153605       26.3155746101       11.2396725579  SOLV      5587            0.0000000000
     16880      5598  TIP3      H1             -5.4756361070       26.6673534420       11.5757347588  SOLV      5587            0.0000000000
     16881      5598  TIP3      H2             -6.4306609186       25.4902604987       11.7595719581  SOLV      5587            0.0000000000
     16882      5599  TIP3      OH2            -7.5053240958       23.7662825412        2.8989586854  SOLV      5588            0.0000000000
     16883      5599  TIP3      H1             -7.6642983100       24.0098015829        1.9680580089  SOLV      5588            0.0000000000
     16884      5599  TIP3      H2             -7.1014354322       24.5862164386        3.2574652680  SOLV      5588            0.0000000000
     16885      5600  TIP3      OH2           -10.7228134125       25.6260508892        3.8850444758  SOLV      5589            0.0000000000
     16886      5600  TIP3      H1            -10.0709138824       26.3403333445        3.7097158781  SOLV      5589            0.0000000000
     16887      5600  TIP3      H2            -10.6457683454       25.5381067406        4.8582662438  SOLV      5589            0.0000000000
     16888      5601  TIP3      OH2            -7.9499490710       28.6787449947       11.9274744360  SOLV      5590            0.0000000000
     16889      5601  TIP3      H1             -7.7119689316       29.1874704416       12.7236209223  SOLV      5590            0.0000000000
     16890      5601  TIP3      H2             -7.3992313617       27.8803104399       11.9987549779  SOLV      5590            0.0000000000
     16891      5602  TIP3      OH2            -9.2653495308       22.8072863587        4.8722650162  SOLV      5591            0.0000000000
     16892      5602  TIP3      H1             -9.4284209641       23.6017385974        5.4184963892  SOLV      5591            0.0000000000
     16893      5602  TIP3      H2             -8.6178247631       23.1595010300        4.2198927340  SOLV      5591            0.0000000000
     16894      5603  TIP3      OH2           -14.1086877445       22.8714120411        2.7808622490  SOLV      5592            0.0000000000
     16895      5603  TIP3      H1            -14.1498934947       23.7785667732        3.1441270114  SOLV      5592            0.0000000000
     16896      5603  TIP3      H2            -13.1416270560       22.7187323674        2.8511222979  SOLV      5592            0.0000000000
     16897      5604  TIP3      OH2            -1.6005971682       27.8011197877       11.7516613021  SOLV      5593            0.0000000000
     16898      5604  TIP3      H1             -2.5826800786       27.8143326369       11.8251680364  SOLV      5593            0.0000000000
     16899      5604  TIP3      H2             -1.5095343921       27.2934477807       10.9341238377  SOLV      5593            0.0000000000
     16900      5605  TIP3      OH2            -5.0451953444       29.7008239094        5.6058562792  SOLV      5594            0.0000000000
     16901      5605  TIP3      H1             -5.8409050863       29.1533480312        5.7429608739  SOLV      5594            0.0000000000
     16902      5605  TIP3      H2             -4.3647099225       29.2116667457        6.1165623117  SOLV      5594            0.0000000000
     16903      5606  TIP3      OH2           -18.5087828938       24.7106127830        1.6683224995  SOLV      5595            0.0000000000
     16904      5606  TIP3      H1            -18.4737865245       25.6893452884        1.7124223312  SOLV      5595            0.0000000000
     16905      5606  TIP3      H2            -19.3245901917       24.5645424725        1.1838080995  SOLV      5595            0.0000000000
     16906      5607  TIP3      OH2           -14.6113158499       21.9835568834       10.3576481615  SOLV      5596            0.0000000000
     16907      5607  TIP3      H1            -14.9179527137       21.6551927952        9.4853901076  SOLV      5596            0.0000000000
     16908      5607  TIP3      H2            -14.7303864820       21.1955015294       10.9242990803  SOLV      5596            0.0000000000
     16909      5608  TIP3      OH2           -16.8342995580       29.5281537878       -1.1401544311  SOLV      5597            0.0000000000
     16910      5608  TIP3      H1            -16.4477242077       29.9712164474       -0.3690944709  SOLV      5597            0.0000000000
     16911      5608  TIP3      H2            -16.0757995701       29.5548107843       -1.7777683320  SOLV      5597            0.0000000000
     16912      5609  TIP3      OH2           -10.3904211954       34.2089329200       15.1633111340  SOLV      5598            0.0000000000
     16913      5609  TIP3      H1            -10.8612599889       34.3834431930       14.3322993232  SOLV      5598            0.0000000000
     16914      5609  TIP3      H2            -10.0907055451       33.2877751537       15.0193047050  SOLV      5598            0.0000000000
     16915      5610  TIP3      OH2            -5.3252059410       33.8037846408       10.7040830004  SOLV      5599            0.0000000000
     16916      5610  TIP3      H1             -4.7556665092       34.0874157544        9.9710881385  SOLV      5599            0.0000000000
     16917      5610  TIP3      H2             -5.7621915971       34.6382218977       10.9561420997  SOLV      5599            0.0000000000
     16918      5611  TIP3      OH2           -14.4707916196       30.8079155978       17.1746219919  SOLV      5600            0.0000000000
     16919      5611  TIP3      H1            -14.3236873496       30.0541644738       16.5886801136  SOLV      5600            0.0000000000
     16920      5611  TIP3      H2            -15.3284057570       31.1316868447       16.8665491540  SOLV      5600            0.0000000000
     16921      5612  TIP3      OH2           -14.3214432255       29.0653040928        1.3402391611  SOLV      5601            0.0000000000
     16922      5612  TIP3      H1            -14.6742237970       28.5521883691        2.0894286371  SOLV      5601            0.0000000000
     16923      5612  TIP3      H2            -14.0379446165       28.3622214335        0.7186018503  SOLV      5601            0.0000000000
     16924      5613  TIP3      OH2           -11.6670571042       29.9019882712       13.4201397364  SOLV      5602            0.0000000000
     16925      5613  TIP3      H1            -12.5454256198       30.3369696746       13.3824936968  SOLV      5602            0.0000000000
     16926      5613  TIP3      H2            -11.2132016180       30.2778878790       12.6400836967  SOLV      5602            0.0000000000
     16927      5614  TIP3      OH2           -13.4365933084       27.1138885499       -0.5129268073  SOLV      5603            0.0000000000
     16928      5614  TIP3      H1            -13.7061610138       27.0709501129       -1.4561779184  SOLV      5603            0.0000000000
     16929      5614  TIP3      H2            -12.4687624847       27.2251035804       -0.6137252942  SOLV      5603            0.0000000000
     16930      5615  TIP3      OH2            -6.3631364447       33.9630672052       14.6068375928  SOLV      5604            0.0000000000
     16931      5615  TIP3      H1             -5.5450635958       33.6155826956       14.2213626997  SOLV      5604            0.0000000000
     16932      5615  TIP3      H2             -6.7332479141       33.1797335100       15.0283225134  SOLV      5604            0.0000000000
     16933      5616  TIP3      OH2            -5.1692102312       30.1841329824       -3.8524618432  SOLV      5605            0.0000000000
     16934      5616  TIP3      H1             -5.3400867789       29.7822207883       -4.7294450081  SOLV      5605            0.0000000000
     16935      5616  TIP3      H2             -5.5358162666       31.0770157811       -3.9967233068  SOLV      5605            0.0000000000
     16936      5617  TIP3      OH2           -10.5295937720       27.7308498954       14.5601245691  SOLV      5606            0.0000000000
     16937      5617  TIP3      H1            -10.5481032164       26.9596606592       13.9553389924  SOLV      5606            0.0000000000
     16938      5617  TIP3      H2            -10.9518715890       28.4308846412       14.0073191465  SOLV      5606            0.0000000000
     16939      5618  TIP3      OH2           -10.5401842938       25.6296984953       12.6970929554  SOLV      5607            0.0000000000
     16940      5618  TIP3      H1            -10.2562861630       26.0234120332       11.8481874933  SOLV      5607            0.0000000000
     16941      5618  TIP3      H2            -11.4736870565       25.3961394276       12.5026241574  SOLV      5607            0.0000000000
     16942      5619  TIP3      OH2            -9.8475008597       31.0778813090       11.7636819421  SOLV      5608            0.0000000000
     16943      5619  TIP3      H1             -9.1272313045       30.9557591444       11.1240465193  SOLV      5608            0.0000000000
     16944      5619  TIP3      H2            -10.5758277770       31.4267657355       11.1891683303  SOLV      5608            0.0000000000
     16945      5620  TIP3      OH2            -4.4329693982       30.6256867387       15.2356703870  SOLV      5609            0.0000000000
     16946      5620  TIP3      H1             -4.0095144618       29.7592575219       15.3416797502  SOLV      5609            0.0000000000
     16947      5620  TIP3      H2             -3.7481898494       31.1220607062       14.7635502369  SOLV      5609            0.0000000000
     16948      5621  TIP3      OH2            -3.9455759208       33.1949293941       12.9376423964  SOLV      5610            0.0000000000
     16949      5621  TIP3      H1             -4.5694441382       33.4153756046       12.2131482287  SOLV      5610            0.0000000000
     16950      5621  TIP3      H2             -3.0988624023       33.3332331000       12.4563776307  SOLV      5610            0.0000000000
     16951      5622  TIP3      OH2           -11.7053826532       28.6496536553       16.8493001115  SOLV      5611            0.0000000000
     16952      5622  TIP3      H1            -12.4329137698       28.0082791202       16.9971977248  SOLV      5611            0.0000000000
     16953      5622  TIP3      H2            -11.4433094361       28.4366865271       15.9270080095  SOLV      5611            0.0000000000
     16954      5623  TIP3      OH2            -9.2214941712       23.2456745839       13.4076948488  SOLV      5612            0.0000000000
     16955      5623  TIP3      H1             -9.7141344454       24.0553892464       13.1555356091  SOLV      5612            0.0000000000
     16956      5623  TIP3      H2             -9.9023176094       22.5536476169       13.2801266597  SOLV      5612            0.0000000000
     16957      5624  TIP3      OH2            -7.9686507704       28.2504699260       15.4722113267  SOLV      5613            0.0000000000
     16958      5624  TIP3      H1             -8.1606435231       28.0319120693       16.4048990050  SOLV      5613            0.0000000000
     16959      5624  TIP3      H2             -8.8424314200       28.0386535140       15.0775602857  SOLV      5613            0.0000000000
     16960      5625  TIP3      OH2            -5.5507974443       27.8461302829       14.0991785912  SOLV      5614            0.0000000000
     16961      5625  TIP3      H1             -6.3163117884       27.7870613528       14.7028429625  SOLV      5614            0.0000000000
     16962      5625  TIP3      H2             -4.8192669218       27.4966986259       14.6505505759  SOLV      5614            0.0000000000
     16963      5626  TIP3      OH2            -3.2937458745       27.1913875290       15.5757419398  SOLV      5615            0.0000000000
     16964      5626  TIP3      H1             -3.1406454709       26.2310850643       15.7121507904  SOLV      5615            0.0000000000
     16965      5626  TIP3      H2             -3.3126565652       27.5337968523       16.4934512192  SOLV      5615            0.0000000000
     16966      5627  TIP3      OH2           -13.3679459606       26.5808696178       17.5502212523  SOLV      5616            0.0000000000
     16967      5627  TIP3      H1            -13.3233415499       25.6851641757       17.1600598916  SOLV      5616            0.0000000000
     16968      5627  TIP3      H2            -12.9900898460       26.4058013482       18.4373868861  SOLV      5616            0.0000000000
     16969      5628  TIP3      OH2            -8.3248112718       23.3354742272       15.9941028448  SOLV      5617            0.0000000000
     16970      5628  TIP3      H1             -7.6543844965       22.6234681820       15.9375965143  SOLV      5617            0.0000000000
     16971      5628  TIP3      H2             -8.7001749072       23.2891176645       15.0906244390  SOLV      5617            0.0000000000
     16972      5629  TIP3      OH2            -7.5445245993       25.4509139482       17.5137382038  SOLV      5618            0.0000000000
     16973      5629  TIP3      H1             -7.7802932287       24.7210333691       16.8968145648  SOLV      5618            0.0000000000
     16974      5629  TIP3      H2             -8.3286708725       26.0333574684       17.4435169144  SOLV      5618            0.0000000000
     16975      5630  TIP3      OH2            -3.8273948840       32.3032823749       -0.6212650516  SOLV      5619            0.0000000000
     16976      5630  TIP3      H1             -3.2064947261       33.0148831975       -0.8390073521  SOLV      5619            0.0000000000
     16977      5630  TIP3      H2             -3.4175211799       31.9392211539        0.1989351327  SOLV      5619            0.0000000000
     16978      5631  TIP3      OH2            -2.6665239399       31.0355138308        1.4814338199  SOLV      5620            0.0000000000
     16979      5631  TIP3      H1             -3.3028100653       30.5791825316        2.0781825478  SOLV      5620            0.0000000000
     16980      5631  TIP3      H2             -1.9295864895       31.2585124109        2.0878619647  SOLV      5620            0.0000000000
     16981      5632  TIP3      OH2            -3.1900017432       29.9952500458       -1.9746977332  SOLV      5621            0.0000000000
     16982      5632  TIP3      H1             -3.9119594209       29.9660553518       -2.6429231786  SOLV      5621            0.0000000000
     16983      5632  TIP3      H2             -3.4377113826       30.8057777538       -1.4829357032  SOLV      5621            0.0000000000
     16984      5633  TIP3      OH2            -4.5513258723       26.7855641581       -2.5660285917  SOLV      5622            0.0000000000
     16985      5633  TIP3      H1             -5.0090394206       27.0809050416       -3.3595252811  SOLV      5622            0.0000000000
     16986      5633  TIP3      H2             -4.7479798231       25.8236092467       -2.5964263120  SOLV      5622            0.0000000000
     16987      5634  TIP3      OH2            -4.4655221626       29.5475199628        2.9309410588  SOLV      5623            0.0000000000
     16988      5634  TIP3      H1             -4.4202940077       28.5798397381        2.8509978086  SOLV      5623            0.0000000000
     16989      5634  TIP3      H2             -4.6279461358       29.6682365494        3.8935548763  SOLV      5623            0.0000000000
     16990      5635  TIP3      OH2           -18.2096635246       29.5921489516       10.6682108989  SOLV      5624            0.0000000000
     16991      5635  TIP3      H1            -18.4063175601       29.9861874071        9.8054324082  SOLV      5624            0.0000000000
     16992      5635  TIP3      H2            -17.2455205060       29.8007142548       10.7485237732  SOLV      5624            0.0000000000
     16993      5636  TIP3      OH2            -1.6955772577       33.7838183998       11.4666926166  SOLV      5625            0.0000000000
     16994      5636  TIP3      H1             -0.9944395631       33.1821321570       11.1362609683  SOLV      5625            0.0000000000
     16995      5636  TIP3      H2             -1.9563018293       34.3046895206       10.6941498165  SOLV      5625            0.0000000000
     16996      5637  TIP3      OH2             0.2643876702       31.8247742299       11.6615078696  SOLV      5626            0.0000000000
     16997      5637  TIP3      H1             -0.5345112029       31.3686438925       12.0067755616  SOLV      5626            0.0000000000
     16998      5637  TIP3      H2              0.9446071958       31.1420740691       11.8567084431  SOLV      5626            0.0000000000
     16999      5638  TIP3      OH2            -5.1136523246       24.1228481241       -2.7232148331  SOLV      5627            0.0000000000
     17000      5638  TIP3      H1             -4.4107322263       23.7870973582       -2.1312320892  SOLV      5627            0.0000000000
     17001      5638  TIP3      H2             -5.8818652816       23.5667564633       -2.5043059302  SOLV      5627            0.0000000000
     17002      5639  TIP3      OH2            -4.5079621037       26.7538676533        1.8534452499  SOLV      5628            0.0000000000
     17003      5639  TIP3      H1             -4.0982120677       25.8686173272        2.0018231360  SOLV      5628            0.0000000000
     17004      5639  TIP3      H2             -3.9441051018       27.0770321138        1.1274879104  SOLV      5628            0.0000000000
     17005      5640  TIP3      OH2            -2.9203926214       28.4021496387        6.8449060430  SOLV      5629            0.0000000000
     17006      5640  TIP3      H1             -2.0669363385       28.6665828444        6.4302382722  SOLV      5629            0.0000000000
     17007      5640  TIP3      H2             -2.7788784613       28.7825033109        7.7328826757  SOLV      5629            0.0000000000
     17008      5641  TIP3      OH2            -2.2246943422       29.8622558916        9.1577274333  SOLV      5630            0.0000000000
     17009      5641  TIP3      H1             -3.0108506047       30.1863600376        9.6363985841  SOLV      5630            0.0000000000
     17010      5641  TIP3      H2             -1.8863009185       30.6939759909        8.7599914107  SOLV      5630            0.0000000000
     17011      5642  TIP3      OH2           -16.0360690132       26.8614935060       16.9744229833  SOLV      5631            0.0000000000
     17012      5642  TIP3      H1            -15.0688253109       26.8801808110       17.1337456211  SOLV      5631            0.0000000000
     17013      5642  TIP3      H2            -16.2792420643       26.0089024255       17.3900456164  SOLV      5631            0.0000000000
     17014      5643  TIP3      OH2             2.2160138356       25.8355708427       14.6669179691  SOLV      5632            0.0000000000
     17015      5643  TIP3      H1              2.8671178293       25.2087972471       14.2900972696  SOLV      5632            0.0000000000
     17016      5643  TIP3      H2              1.9718477616       26.3720246115       13.8835048229  SOLV      5632            0.0000000000
     17017      5644  TIP3      OH2            -3.4378061497       24.2388093451        2.2478818400  SOLV      5633            0.0000000000
     17018      5644  TIP3      H1             -2.9754699762       24.0620120163        3.0943104240  SOLV      5633            0.0000000000
     17019      5644  TIP3      H2             -4.0585823155       23.4813921745        2.2218375652  SOLV      5633            0.0000000000
     17020      5645  TIP3      OH2           -16.4467812568       24.0904845419       10.4997139643  SOLV      5634            0.0000000000
     17021      5645  TIP3      H1            -15.8106467479       23.3495511876       10.5501150735  SOLV      5634            0.0000000000
     17022      5645  TIP3      H2            -15.8419105991       24.8447667448       10.3838789399  SOLV      5634            0.0000000000
     17023      5646  TIP3      OH2           -18.4494852065       26.8488961207       11.1669949207  SOLV      5635            0.0000000000
     17024      5646  TIP3      H1            -17.9179536864       26.6790373405       10.3649721549  SOLV      5635            0.0000000000
     17025      5646  TIP3      H2            -18.3792551409       27.8222690066       11.1839878913  SOLV      5635            0.0000000000
     17026      5647  TIP3      OH2             0.9614433462       27.1948294694       12.6588488254  SOLV      5636            0.0000000000
     17027      5647  TIP3      H1              0.0808144197       27.5897614142       12.8155893126  SOLV      5636            0.0000000000
     17028      5647  TIP3      H2              0.6965466485       26.4142005719       12.1347561072  SOLV      5636            0.0000000000
     17029      5648  TIP3      OH2            -2.6991081201       23.5253093753       -1.3840945215  SOLV      5637            0.0000000000
     17030      5648  TIP3      H1             -2.2978901383       22.8355158061       -1.9535464880  SOLV      5637            0.0000000000
     17031      5648  TIP3      H2             -2.0287215413       24.2350192747       -1.4121269183  SOLV      5637            0.0000000000
     17032      5649  TIP3      OH2           -18.5827928501       21.7982624970        6.1847563668  SOLV      5638            0.0000000000
     17033      5649  TIP3      H1            -19.5039162540       21.7768799800        6.4939265663  SOLV      5638            0.0000000000
     17034      5649  TIP3      H2            -18.6439148189       22.3975969989        5.4117771461  SOLV      5638            0.0000000000
     17035      5650  TIP3      OH2           -16.3875782129       22.6143212838       14.3521660247  SOLV      5639            0.0000000000
     17036      5650  TIP3      H1            -16.9101370767       22.6330915481       15.1680960485  SOLV      5639            0.0000000000
     17037      5650  TIP3      H2            -17.0186747114       23.0162781405       13.7217107543  SOLV      5639            0.0000000000
     17038      5651  TIP3      OH2            -0.0185981386       24.7838245217       11.5563735660  SOLV      5640            0.0000000000
     17039      5651  TIP3      H1             -0.9200010963       24.6423785356       11.2173315571  SOLV      5640            0.0000000000
     17040      5651  TIP3      H2              0.3555263306       23.8763969783       11.4628697446  SOLV      5640            0.0000000000
     17041      5652  TIP3      OH2            -7.9007447344       23.9907706520        7.8425645148  SOLV      5641            0.0000000000
     17042      5652  TIP3      H1             -8.3656873495       23.2632606630        8.2919783032  SOLV      5641            0.0000000000
     17043      5652  TIP3      H2             -7.2136873658       23.5215604992        7.3332871967  SOLV      5641            0.0000000000
     17044      5653  TIP3      OH2            -2.7931836126       22.8025297669        6.7799565672  SOLV      5642            0.0000000000
     17045      5653  TIP3      H1             -2.4320341776       23.3133447391        6.0217022937  SOLV      5642            0.0000000000
     17046      5653  TIP3      H2             -3.7459266245       23.0038209529        6.7190004623  SOLV      5642            0.0000000000
     17047      5654  TIP3      OH2            -1.8093442157       23.7582629876        4.4204027415  SOLV      5643            0.0000000000
     17048      5654  TIP3      H1             -1.0658993952       23.2334809952        4.0546184928  SOLV      5643            0.0000000000
     17049      5654  TIP3      H2             -1.4614620048       24.6692790371        4.2779200194  SOLV      5643            0.0000000000
     17050      5655  TIP3      OH2           -15.4995626490       21.0372683899        7.9012128728  SOLV      5644            0.0000000000
     17051      5655  TIP3      H1            -16.4233125548       20.7109355591        7.9217756237  SOLV      5644            0.0000000000
     17052      5655  TIP3      H2            -15.0131807616       20.1857796848        7.8556085135  SOLV      5644            0.0000000000
     17053      5656  TIP3      OH2           -17.5570266556       19.7805906954        4.4203394620  SOLV      5645            0.0000000000
     17054      5656  TIP3      H1            -17.2823399395       20.3460843359        3.6763752525  SOLV      5645            0.0000000000
     17055      5656  TIP3      H2            -17.8631660960       20.4419202162        5.0732534609  SOLV      5645            0.0000000000
     17056      5657  TIP3      OH2           -11.0023729960       21.3612126639        6.7231821733  SOLV      5646            0.0000000000
     17057      5657  TIP3      H1            -10.4593359724       21.8427712641        6.0788825455  SOLV      5646            0.0000000000
     17058      5657  TIP3      H2            -10.7234861887       21.7634818846        7.5564798962  SOLV      5646            0.0000000000
     17059      5658  TIP3      OH2            -5.6184030810       22.8525066600        6.5439345254  SOLV      5647            0.0000000000
     17060      5658  TIP3      H1             -5.6060972648       22.4425869546        5.6727832169  SOLV      5647            0.0000000000
     17061      5658  TIP3      H2             -5.7136108760       22.0620864986        7.1304124118  SOLV      5647            0.0000000000
     17062      5659  TIP3      OH2            -5.2710522172       22.1271623773        2.1898736967  SOLV      5648            0.0000000000
     17063      5659  TIP3      H1             -6.1173127993       22.5717574215        2.3869209888  SOLV      5648            0.0000000000
     17064      5659  TIP3      H2             -5.4220403230       21.2560544420        2.6176870065  SOLV      5648            0.0000000000
     17065      5660  TIP3      OH2           -16.4057855605       21.3278412952        2.0246563442  SOLV      5649            0.0000000000
     17066      5660  TIP3      H1            -15.9285941761       20.7082014979        1.4396932860  SOLV      5649            0.0000000000
     17067      5660  TIP3      H2            -15.6701840199       21.8740013854        2.3701036079  SOLV      5649            0.0000000000
     17068      5661  TIP3      OH2           -11.3482587217       23.1284449213        2.9985071532  SOLV      5650            0.0000000000
     17069      5661  TIP3      H1            -10.7393382503       22.6798327392        3.6098367124  SOLV      5650            0.0000000000
     17070      5661  TIP3      H2            -11.1683680907       24.0622539107        3.2488035625  SOLV      5650            0.0000000000
     17071      5662  TIP3      OH2           -13.4192099160       23.8730150779       16.8544115913  SOLV      5651            0.0000000000
     17072      5662  TIP3      H1            -13.7361867732       23.1117648558       17.3717323408  SOLV      5651            0.0000000000
     17073      5662  TIP3      H2            -12.4684399086       23.8645687724       17.0974816907  SOLV      5651            0.0000000000
     17074      5663  TIP3      OH2           -10.8948517376       23.8589187705       18.0100410070  SOLV      5652            0.0000000000
     17075      5663  TIP3      H1            -10.0576734923       23.6056385075       17.5814216254  SOLV      5652            0.0000000000
     17076      5663  TIP3      H2            -11.0018124643       23.1290460094       18.6559563925  SOLV      5652            0.0000000000
     17077      5664  TIP3      OH2            -2.6378726488       24.5110139033       15.8749306005  SOLV      5653            0.0000000000
     17078      5664  TIP3      H1             -2.4513178693       24.1909813533       16.7838911638  SOLV      5653            0.0000000000
     17079      5664  TIP3      H2             -1.7501558811       24.4505043032       15.4615869922  SOLV      5653            0.0000000000
     17080      5665  TIP3      OH2             9.4540082663       33.6159966686       -1.5479104931  SOLV      5654            0.0000000000
     17081      5665  TIP3      H1              9.1921855644       34.5428342314       -1.5283868790  SOLV      5654            0.0000000000
     17082      5665  TIP3      H2              8.6787401865       33.1914375484       -1.9660379830  SOLV      5654            0.0000000000
     17083      5666  TIP3      OH2             9.4497260237       33.7082384664        2.3079861709  SOLV      5655            0.0000000000
     17084      5666  TIP3      H1              9.8034177810       33.4590633658        3.1842598880  SOLV      5655            0.0000000000
     17085      5666  TIP3      H2              9.0086997894       32.8836975062        2.0443959635  SOLV      5655            0.0000000000
     17086      5667  TIP3      OH2             2.3754747591       32.5519187140        5.9290522338  SOLV      5656            0.0000000000
     17087      5667  TIP3      H1              2.7956799283       31.9182078475        6.5383001892  SOLV      5656            0.0000000000
     17088      5667  TIP3      H2              2.9088946656       33.3482718282        6.0727115741  SOLV      5656            0.0000000000
     17089      5668  TIP3      OH2            -0.8286876606       28.7509830213        0.9296096930  SOLV      5657            0.0000000000
     17090      5668  TIP3      H1             -1.2651149467       29.5919477874        1.1355113308  SOLV      5657            0.0000000000
     17091      5668  TIP3      H2             -1.5709575011       28.2473519849        0.5520796220  SOLV      5657            0.0000000000
     17092      5669  TIP3      OH2            -0.2644259880       31.6296051970        2.6241142482  SOLV      5658            0.0000000000
     17093      5669  TIP3      H1              0.1543707324       30.8820209373        3.1121920773  SOLV      5658            0.0000000000
     17094      5669  TIP3      H2              0.5281781966       32.1071682823        2.3406763049  SOLV      5658            0.0000000000
     17095      5670  TIP3      OH2             7.5515580273       35.7389951498        2.2219471359  SOLV      5659            0.0000000000
     17096      5670  TIP3      H1              8.2457342219       35.0478823523        2.1835694057  SOLV      5659            0.0000000000
     17097      5670  TIP3      H2              7.9540375116       36.3772816111        2.8313267752  SOLV      5659            0.0000000000
     17098      5671  TIP3      OH2            17.5630745261       29.0823578034        2.7223407921  SOLV      5660            0.0000000000
     17099      5671  TIP3      H1             17.7776819178       29.9144654327        3.1989774440  SOLV      5660            0.0000000000
     17100      5671  TIP3      H2             17.7388357027       29.3424531677        1.8020638152  SOLV      5660            0.0000000000
     17101      5672  TIP3      OH2            11.4978062444       31.0027225655        3.0320133334  SOLV      5661            0.0000000000
     17102      5672  TIP3      H1             11.9177636205       30.1464421799        3.2488916161  SOLV      5661            0.0000000000
     17103      5672  TIP3      H2             11.1635569131       30.8122623983        2.1334906345  SOLV      5661            0.0000000000
     17104      5673  TIP3      OH2             4.9327218467       27.5796736907        2.6972349969  SOLV      5662            0.0000000000
     17105      5673  TIP3      H1              4.7176931263       28.3007197372        2.0685104369  SOLV      5662            0.0000000000
     17106      5673  TIP3      H2              4.4285870282       26.8432513570        2.2877383291  SOLV      5662            0.0000000000
     17107      5674  TIP3      OH2            11.8620607704       28.4855230247       -1.0812151854  SOLV      5663            0.0000000000
     17108      5674  TIP3      H1             12.5739076330       28.3565994699       -0.4103478125  SOLV      5663            0.0000000000
     17109      5674  TIP3      H2             12.3842676820       28.8456517200       -1.8198995579  SOLV      5663            0.0000000000
     17110      5675  TIP3      OH2             1.1775473839       29.5904110944        3.7981452399  SOLV      5664            0.0000000000
     17111      5675  TIP3      H1              2.0122425690       29.4397141100        4.2779021731  SOLV      5664            0.0000000000
     17112      5675  TIP3      H2              1.3430202993       29.0614877941        2.9913666245  SOLV      5664            0.0000000000
     17113      5676  TIP3      OH2             5.6236322261       31.5690034565        1.5234142558  SOLV      5665            0.0000000000
     17114      5676  TIP3      H1              6.5541686404       31.3258896402        1.7095979717  SOLV      5665            0.0000000000
     17115      5676  TIP3      H2              5.2356738188       30.7124602993        1.2408367805  SOLV      5665            0.0000000000
     17116      5677  TIP3      OH2            18.1150170666       31.2062985440        4.3651546451  SOLV      5666            0.0000000000
     17117      5677  TIP3      H1             17.2877095757       31.6658521087        4.1026041704  SOLV      5666            0.0000000000
     17118      5677  TIP3      H2             18.4433568946       31.8557389928        5.0192488151  SOLV      5666            0.0000000000
     17119      5678  TIP3      OH2             4.8376472344       27.4067120499        7.0799155244  SOLV      5667            0.0000000000
     17120      5678  TIP3      H1              4.2480197858       27.7737841097        6.3947717939  SOLV      5667            0.0000000000
     17121      5678  TIP3      H2              4.3027750260       27.5839241151        7.8822139267  SOLV      5667            0.0000000000
     17122      5679  TIP3      OH2             6.0713421732       34.6260082614        4.4087852709  SOLV      5668            0.0000000000
     17123      5679  TIP3      H1              5.4236353601       35.1793056780        4.8924188480  SOLV      5668            0.0000000000
     17124      5679  TIP3      H2              6.3233859380       35.2114545363        3.6538533331  SOLV      5668            0.0000000000
     17125      5680  TIP3      OH2            13.8572240326       28.5586264781        0.7532553632  SOLV      5669            0.0000000000
     17126      5680  TIP3      H1             13.6908002938       28.1507565256        1.6129491633  SOLV      5669            0.0000000000
     17127      5680  TIP3      H2             14.3845350344       29.3436922491        1.0038095287  SOLV      5669            0.0000000000
     17128      5681  TIP3      OH2             3.5637126892       28.5429028621        4.8841696182  SOLV      5670            0.0000000000
     17129      5681  TIP3      H1              4.1762931825       29.2669265928        5.1375572016  SOLV      5670            0.0000000000
     17130      5681  TIP3      H2              4.0697288199       28.1494189249        4.1370969353  SOLV      5670            0.0000000000
     17131      5682  TIP3      OH2            15.3426944336       27.8381776537        3.9974358099  SOLV      5671            0.0000000000
     17132      5682  TIP3      H1             14.5726180406       28.4228061015        3.9362276061  SOLV      5671            0.0000000000
     17133      5682  TIP3      H2             16.0146851676       28.3063830201        3.4690715867  SOLV      5671            0.0000000000
     17134      5683  TIP3      OH2             8.3430191312       24.5403969178        4.2364883296  SOLV      5672            0.0000000000
     17135      5683  TIP3      H1              8.1928278766       23.5972936986        4.4425867518  SOLV      5672            0.0000000000
     17136      5683  TIP3      H2              7.5803388349       24.9463964626        4.7043774127  SOLV      5672            0.0000000000
     17137      5684  TIP3      OH2             7.7679248170       32.1115027151       -3.1879597019  SOLV      5673            0.0000000000
     17138      5684  TIP3      H1              6.9374265364       32.6132611996       -3.3768211331  SOLV      5673            0.0000000000
     17139      5684  TIP3      H2              8.2796109428       32.3723885128       -3.9722063075  SOLV      5673            0.0000000000
     17140      5685  TIP3      OH2             7.2371791321       30.1532930279       -6.1425868876  SOLV      5674            0.0000000000
     17141      5685  TIP3      H1              7.8324608439       30.6407772074       -5.5482323823  SOLV      5674            0.0000000000
     17142      5685  TIP3      H2              7.8703006419       29.5616341696       -6.5918651466  SOLV      5674            0.0000000000
     17143      5686  TIP3      OH2            16.5378177839       34.6330228556        2.7377245990  SOLV      5675            0.0000000000
     17144      5686  TIP3      H1             15.8457680666       35.3153813362        2.7496510012  SOLV      5675            0.0000000000
     17145      5686  TIP3      H2             16.9948010586       34.8215360790        1.8921079212  SOLV      5675            0.0000000000
     17146      5687  TIP3      OH2            11.2443656414       33.0135328878       -3.5171656044  SOLV      5676            0.0000000000
     17147      5687  TIP3      H1             10.6561066165       33.2264745749       -2.7535628704  SOLV      5676            0.0000000000
     17148      5687  TIP3      H2             12.0644067533       32.7605400542       -3.0462158653  SOLV      5676            0.0000000000
     17149      5688  TIP3      OH2            13.2848453107       33.4364196657        5.4657597226  SOLV      5677            0.0000000000
     17150      5688  TIP3      H1             13.2385783512       34.4056253156        5.6258083058  SOLV      5677            0.0000000000
     17151      5688  TIP3      H2             12.3901010413       33.3214968136        5.0956274205  SOLV      5677            0.0000000000
     17152      5689  TIP3      OH2             3.3864486783       33.0440524206        0.6193688666  SOLV      5678            0.0000000000
     17153      5689  TIP3      H1              3.0006049561       32.4655755423       -0.0729001903  SOLV      5678            0.0000000000
     17154      5689  TIP3      H2              4.2356550235       32.5862775531        0.7969587661  SOLV      5678            0.0000000000
     17155      5690  TIP3      OH2             4.6702526090       32.3662076179        3.9321356575  SOLV      5679            0.0000000000
     17156      5690  TIP3      H1              4.9850390622       32.0932533253        3.0485112760  SOLV      5679            0.0000000000
     17157      5690  TIP3      H2              5.2099630447       33.1768059186        4.0772709254  SOLV      5679            0.0000000000
     17158      5691  TIP3      OH2             9.6573746655       31.6169472158       -5.2671866183  SOLV      5680            0.0000000000
     17159      5691  TIP3      H1             10.2113888870       32.2277335316       -4.7319306904  SOLV      5680            0.0000000000
     17160      5691  TIP3      H2              9.8955651368       31.8977162435       -6.1801217688  SOLV      5680            0.0000000000
     17161      5692  TIP3      OH2             3.7280226895       33.4928133339        8.3540821362  SOLV      5681            0.0000000000
     17162      5692  TIP3      H1              3.8604736615       34.3633763822        8.7735489120  SOLV      5681            0.0000000000
     17163      5692  TIP3      H2              2.7871405712       33.3333600474        8.5782421564  SOLV      5681            0.0000000000
     17164      5693  TIP3      OH2            14.7429945100       24.0156868862       -4.7347852537  SOLV      5682            0.0000000000
     17165      5693  TIP3      H1             13.9217253497       24.2275878522       -4.2453886497  SOLV      5682            0.0000000000
     17166      5693  TIP3      H2             14.8666515223       24.8313128225       -5.2616116977  SOLV      5682            0.0000000000
     17167      5694  TIP3      OH2             2.0637931186       31.3924391881       -1.2636917765  SOLV      5683            0.0000000000
     17168      5694  TIP3      H1              1.3015238981       31.7483234293       -1.7635831649  SOLV      5683            0.0000000000
     17169      5694  TIP3      H2              1.7767416094       30.4914440418       -1.0817106260  SOLV      5683            0.0000000000
     17170      5695  TIP3      OH2             0.4426890141       34.7293804346        7.2740834152  SOLV      5684            0.0000000000
     17171      5695  TIP3      H1             -0.4208192242       34.5471808638        6.8564200189  SOLV      5684            0.0000000000
     17172      5695  TIP3      H2              0.5481076232       33.9736790662        7.8787827235  SOLV      5684            0.0000000000
     17173      5696  TIP3      OH2            15.8925173719       33.9652795657        6.9341066721  SOLV      5685            0.0000000000
     17174      5696  TIP3      H1             15.1469439307       33.4114176000        6.6683893603  SOLV      5685            0.0000000000
     17175      5696  TIP3      H2             16.3421252832       33.4018442198        7.6092447141  SOLV      5685            0.0000000000
     17176      5697  TIP3      OH2             5.9872919887       25.3608007015        5.5451226230  SOLV      5686            0.0000000000
     17177      5697  TIP3      H1              5.1044297925       25.0564117115        5.2476184950  SOLV      5686            0.0000000000
     17178      5697  TIP3      H2              5.7177697215       26.1601811291        6.0401657268  SOLV      5686            0.0000000000
     17179      5698  TIP3      OH2            11.3293996303       26.5224084877        7.4363634133  SOLV      5687            0.0000000000
     17180      5698  TIP3      H1             12.0254143320       26.2740753628        8.0795848531  SOLV      5687            0.0000000000
     17181      5698  TIP3      H2             10.5033191860       26.3263087255        7.9249603176  SOLV      5687            0.0000000000
     17182      5699  TIP3      OH2            13.7989322780       30.8900687181        6.6350148640  SOLV      5688            0.0000000000
     17183      5699  TIP3      H1             13.3311551245       30.8615375136        7.4961614937  SOLV      5688            0.0000000000
     17184      5699  TIP3      H2             13.5089707740       31.7468356815        6.2707646780  SOLV      5688            0.0000000000
     17185      5700  TIP3      OH2            10.4128050623       32.1874008185       -7.7925562164  SOLV      5689            0.0000000000
     17186      5700  TIP3      H1             10.1051269137       31.8137246452       -8.6439232518  SOLV      5689            0.0000000000
     17187      5700  TIP3      H2             11.3358964168       32.4016227291       -8.0320033921  SOLV      5689            0.0000000000
     17188      5701  TIP3      OH2             7.4423713812       25.8264128820       -4.7732984403  SOLV      5690            0.0000000000
     17189      5701  TIP3      H1              7.1066385425       25.8139705907       -3.8555658839  SOLV      5690            0.0000000000
     17190      5701  TIP3      H2              7.0457561379       24.9959821841       -5.1026423020  SOLV      5690            0.0000000000
     17191      5702  TIP3      OH2             5.3648315182       30.4516851362        5.7115038502  SOLV      5691            0.0000000000
     17192      5702  TIP3      H1              4.8499440412       30.6270455120        6.5273981859  SOLV      5691            0.0000000000
     17193      5702  TIP3      H2              5.0764365130       31.1956130189        5.1341125346  SOLV      5691            0.0000000000
     17194      5703  TIP3      OH2             4.1522738387       29.3642170524        0.8146478578  SOLV      5692            0.0000000000
     17195      5703  TIP3      H1              3.2288023452       29.1052171530        1.0259359438  SOLV      5692            0.0000000000
     17196      5703  TIP3      H2              4.2532562242       28.9387703330       -0.0669491318  SOLV      5692            0.0000000000
     17197      5704  TIP3      OH2             9.0773624232       30.1557735595       -1.8230509192  SOLV      5693            0.0000000000
     17198      5704  TIP3      H1              8.5689048366       30.8679084548       -2.2756599044  SOLV      5693            0.0000000000
     17199      5704  TIP3      H2              9.6364876651       29.8297843963       -2.5554072129  SOLV      5693            0.0000000000
     17200      5705  TIP3      OH2            10.9092752625       33.0049579704        8.9075323966  SOLV      5694            0.0000000000
     17201      5705  TIP3      H1             10.6952960154       32.2526180137        9.5066282491  SOLV      5694            0.0000000000
     17202      5705  TIP3      H2             11.8903336335       32.9790234531        8.9162487775  SOLV      5694            0.0000000000
     17203      5706  TIP3      OH2            10.6301740347       30.4689040399        0.4898228663  SOLV      5695            0.0000000000
     17204      5706  TIP3      H1              9.9822547590       30.7235033821       -0.1999540357  SOLV      5695            0.0000000000
     17205      5706  TIP3      H2             10.9911855872       29.6723481824        0.0474236364  SOLV      5695            0.0000000000
     17206      5707  TIP3      OH2             3.5671089592       30.6789752935        7.7673286412  SOLV      5696            0.0000000000
     17207      5707  TIP3      H1              3.7495629341       31.3606106763        8.4328624356  SOLV      5696            0.0000000000
     17208      5707  TIP3      H2              3.4114097683       29.8847357094        8.3173498535  SOLV      5696            0.0000000000
     17209      5708  TIP3      OH2             4.0134311220       25.6009142022       -5.1184653306  SOLV      5697            0.0000000000
     17210      5708  TIP3      H1              3.9187373918       25.5753428849       -4.1443860027  SOLV      5697            0.0000000000
     17211      5708  TIP3      H2              3.2290076258       26.1185941720       -5.3674482169  SOLV      5697            0.0000000000
     17212      5709  TIP3      OH2            -0.5507931364       25.9955112401        3.5996780548  SOLV      5698            0.0000000000
     17213      5709  TIP3      H1              0.1903141397       26.3254896942        4.1484457026  SOLV      5698            0.0000000000
     17214      5709  TIP3      H2             -0.1179682317       25.6968193097        2.7893900382  SOLV      5698            0.0000000000
     17215      5710  TIP3      OH2            -0.9432671336       25.7810053488       -1.2283020223  SOLV      5699            0.0000000000
     17216      5710  TIP3      H1             -0.4824050165       26.1648767934       -2.0056443732  SOLV      5699            0.0000000000
     17217      5710  TIP3      H2             -1.5423188789       26.5188646131       -1.0062723528  SOLV      5699            0.0000000000
     17218      5711  TIP3      OH2            10.5718544457       32.8904449422        4.6973529070  SOLV      5700            0.0000000000
     17219      5711  TIP3      H1             10.9503194384       32.2068529299        4.0918630568  SOLV      5700            0.0000000000
     17220      5711  TIP3      H2             10.3506585310       32.3203753556        5.4657823290  SOLV      5700            0.0000000000
     17221      5712  TIP3      OH2             7.5122786723       27.5709105668        1.4408381190  SOLV      5701            0.0000000000
     17222      5712  TIP3      H1              6.7079326927       27.5721526214        1.9982115213  SOLV      5701            0.0000000000
     17223      5712  TIP3      H2              8.2188616643       27.4934333569        2.1054587830  SOLV      5701            0.0000000000
     17224      5713  TIP3      OH2             1.7823596527       28.1839235504        1.4930217404  SOLV      5702            0.0000000000
     17225      5713  TIP3      H1              0.8374643989       28.2448628909        1.2156268450  SOLV      5702            0.0000000000
     17226      5713  TIP3      H2              2.0143374266       27.2590798849        1.2873261449  SOLV      5702            0.0000000000
     17227      5714  TIP3      OH2             4.4057108647       28.0978295602       -1.5754577572  SOLV      5703            0.0000000000
     17228      5714  TIP3      H1              5.3514710156       28.2577586641       -1.7663196056  SOLV      5703            0.0000000000
     17229      5714  TIP3      H2              3.9578422333       28.3293370421       -2.4197696731  SOLV      5703            0.0000000000
     17230      5715  TIP3      OH2            12.2884881019       28.3913218111        3.4617276561  SOLV      5704            0.0000000000
     17231      5715  TIP3      H1             12.0108235882       28.5105285571        4.3971022385  SOLV      5704            0.0000000000
     17232      5715  TIP3      H2             11.6077117923       27.7741297016        3.1442056618  SOLV      5704            0.0000000000
     17233      5716  TIP3      OH2             2.9102533631       28.4872915238       -3.8269848580  SOLV      5705            0.0000000000
     17234      5716  TIP3      H1              2.2057909649       28.0331125507       -4.3211282296  SOLV      5705            0.0000000000
     17235      5716  TIP3      H2              3.4496101386       28.8429688884       -4.5654653039  SOLV      5705            0.0000000000
     17236      5717  TIP3      OH2             3.6508700285       35.7353539620        9.9315772085  SOLV      5706            0.0000000000
     17237      5717  TIP3      H1              4.4826502545       35.9931229200       10.4088514059  SOLV      5706            0.0000000000
     17238      5717  TIP3      H2              3.3210471566       35.0608329486       10.5474739450  SOLV      5706            0.0000000000
     17239      5718  TIP3      OH2             8.2462600882       30.9085740378        2.4190628565  SOLV      5707            0.0000000000
     17240      5718  TIP3      H1              8.9697445158       30.4642679012        1.9546724789  SOLV      5707            0.0000000000
     17241      5718  TIP3      H2              8.2536598794       30.4640087982        3.2900783303  SOLV      5707            0.0000000000
     17242      5719  TIP3      OH2             3.4149407926       25.7380775020        1.2871455522  SOLV      5708            0.0000000000
     17243      5719  TIP3      H1              3.0567533101       24.9719462485        1.7878383743  SOLV      5708            0.0000000000
     17244      5719  TIP3      H2              3.8826659507       25.2947084762        0.5693290711  SOLV      5708            0.0000000000
     17245      5720  TIP3      OH2             8.0283722421       29.9160287408        5.2230110545  SOLV      5709            0.0000000000
     17246      5720  TIP3      H1              7.1172415613       30.2058696199        5.4414052688  SOLV      5709            0.0000000000
     17247      5720  TIP3      H2              8.5848665325       30.4737595665        5.8003429771  SOLV      5709            0.0000000000
     17248      5721  TIP3      OH2             5.6091831485       33.5640515338       -3.8243605599  SOLV      5710            0.0000000000
     17249      5721  TIP3      H1              4.8010362129       33.0160799300       -3.7400641723  SOLV      5710            0.0000000000
     17250      5721  TIP3      H2              5.3714609398       34.4327047554       -3.4849710372  SOLV      5710            0.0000000000
     17251      5722  TIP3      OH2            14.2043312239       36.2981168284        2.8717914850  SOLV      5711            0.0000000000
     17252      5722  TIP3      H1             14.6092907277       36.6824719140        2.0582757687  SOLV      5711            0.0000000000
     17253      5722  TIP3      H2             13.4985627250       35.7453250593        2.4771310110  SOLV      5711            0.0000000000
     17254      5723  TIP3      OH2             9.9461283161       26.8483977570       -5.0614336787  SOLV      5712            0.0000000000
     17255      5723  TIP3      H1              8.9858007629       26.6475648092       -4.9600369427  SOLV      5712            0.0000000000
     17256      5723  TIP3      H2             10.0119789240       27.7893975881       -4.8022237993  SOLV      5712            0.0000000000
     17257      5724  TIP3      OH2            10.6267111839       29.3434813377       -4.0276791819  SOLV      5713            0.0000000000
     17258      5724  TIP3      H1             11.5904043050       29.4334009534       -3.9010350048  SOLV      5713            0.0000000000
     17259      5724  TIP3      H2             10.4044429627       30.1435773427       -4.5494530678  SOLV      5713            0.0000000000
     17260      5725  TIP3      OH2             2.0539219489       33.3788558069        3.0503114799  SOLV      5714            0.0000000000
     17261      5725  TIP3      H1              2.6250112136       33.3471916979        2.2558419517  SOLV      5714            0.0000000000
     17262      5725  TIP3      H2              2.6626824868       33.0244206557        3.7268069561  SOLV      5714            0.0000000000
     17263      5726  TIP3      OH2             1.1623187083       32.9715294493        9.3006737469  SOLV      5715            0.0000000000
     17264      5726  TIP3      H1              1.2473856403       32.7212906922       10.2404503442  SOLV      5715            0.0000000000
     17265      5726  TIP3      H2              0.4185584188       32.3956867318        9.0329053111  SOLV      5715            0.0000000000
     17266      5727  TIP3      OH2             8.3459224788       33.8835372200        9.1474636616  SOLV      5716            0.0000000000
     17267      5727  TIP3      H1              7.7352650264       33.3465458497        8.6090947499  SOLV      5716            0.0000000000
     17268      5727  TIP3      H2              9.2163399692       33.5600828726        8.8396617448  SOLV      5716            0.0000000000
     17269      5728  TIP3      OH2            15.0111176333       30.2377179108       -5.6904265141  SOLV      5717            0.0000000000
     17270      5728  TIP3      H1             14.3884640791       29.8049916937       -6.3234087113  SOLV      5717            0.0000000000
     17271      5728  TIP3      H2             14.9882618928       31.1358170528       -6.0932879388  SOLV      5717            0.0000000000
     17272      5729  TIP3      OH2            12.2072439919       34.8056953590        1.5251793595  SOLV      5718            0.0000000000
     17273      5729  TIP3      H1             11.2869642084       34.6051199861        1.7762748881  SOLV      5718            0.0000000000
     17274      5729  TIP3      H2             12.4766137830       33.9455506912        1.1403552933  SOLV      5718            0.0000000000
     17275      5730  TIP3      OH2            -1.0134818672       29.9758228372       -3.6127978555  SOLV      5719            0.0000000000
     17276      5730  TIP3      H1             -0.5778886005       30.8365348191       -3.4215101283  SOLV      5719            0.0000000000
     17277      5730  TIP3      H2             -1.7648076866       30.0232515992       -2.9801530481  SOLV      5719            0.0000000000
     17278      5731  TIP3      OH2             3.2046389975       28.2278712027        9.2039368184  SOLV      5720            0.0000000000
     17279      5731  TIP3      H1              2.2332160788       28.2574961928        9.3035536442  SOLV      5720            0.0000000000
     17280      5731  TIP3      H2              3.4646788143       27.6739156332        9.9564432153  SOLV      5720            0.0000000000
     17281      5732  TIP3      OH2            11.3860060564       34.8946083352       -5.5032778296  SOLV      5721            0.0000000000
     17282      5732  TIP3      H1             11.2642716816       34.2325009367       -4.7863227382  SOLV      5721            0.0000000000
     17283      5732  TIP3      H2             12.3448706546       34.7866356421       -5.6740218336  SOLV      5721            0.0000000000
     17284      5733  TIP3      OH2            -0.0200956763       32.4094725765       -2.8288483267  SOLV      5722            0.0000000000
     17285      5733  TIP3      H1             -0.7789494753       33.0106400657       -2.6626215946  SOLV      5722            0.0000000000
     17286      5733  TIP3      H2              0.5676435544       32.9885206460       -3.3592801650  SOLV      5722            0.0000000000
     17287      5734  TIP3      OH2            11.6490561141       28.9207354234        6.0911385301  SOLV      5723            0.0000000000
     17288      5734  TIP3      H1             12.4377105023       29.3060136077        6.5078890736  SOLV      5723            0.0000000000
     17289      5734  TIP3      H2             11.5161612983       28.0973642397        6.6099451318  SOLV      5723            0.0000000000
     17290      5735  TIP3      OH2            10.4411630674       26.3442530674       -2.2306353541  SOLV      5724            0.0000000000
     17291      5735  TIP3      H1             10.3040539312       26.5784505323       -3.1680324575  SOLV      5724            0.0000000000
     17292      5735  TIP3      H2             10.8592721074       27.1577992164       -1.8751964895  SOLV      5724            0.0000000000
     17293      5736  TIP3      OH2             7.2220932063       28.2069851965       -1.2399282419  SOLV      5725            0.0000000000
     17294      5736  TIP3      H1              7.8854365104       28.9086455674       -1.4201666934  SOLV      5725            0.0000000000
     17295      5736  TIP3      H2              7.3173419826       28.1064538188       -0.2680678098  SOLV      5725            0.0000000000
     17296      5737  TIP3      OH2             9.9918470213       31.2657843042        6.7864165932  SOLV      5726            0.0000000000
     17297      5737  TIP3      H1             10.2891193910       31.7435798029        7.5830443078  SOLV      5726            0.0000000000
     17298      5737  TIP3      H2             10.5385871680       30.4579226688        6.8198934397  SOLV      5726            0.0000000000
     17299      5738  TIP3      OH2             8.7048458434       25.3741014427       -0.2641040737  SOLV      5727            0.0000000000
     17300      5738  TIP3      H1              8.6199472048       26.1552274956        0.3128242816  SOLV      5727            0.0000000000
     17301      5738  TIP3      H2              9.3456687763       25.7104452871       -0.9325806897  SOLV      5727            0.0000000000
     17302      5739  TIP3      OH2             3.8577592665       25.4473190736       -2.3623493571  SOLV      5728            0.0000000000
     17303      5739  TIP3      H1              3.8138923595       26.3386152542       -1.9649023416  SOLV      5728            0.0000000000
     17304      5739  TIP3      H2              4.8229198748       25.2857839682       -2.2832849576  SOLV      5728            0.0000000000
     17305      5740  TIP3      OH2            16.3411776643       29.6722055520        6.2619467723  SOLV      5729            0.0000000000
     17306      5740  TIP3      H1             15.4696455882       30.0472420689        6.5252056388  SOLV      5729            0.0000000000
     17307      5740  TIP3      H2             16.6576392062       30.3449298442        5.6605976710  SOLV      5729            0.0000000000
     17308      5741  TIP3      OH2            12.8924690812       32.2686698472        0.4679189771  SOLV      5730            0.0000000000
     17309      5741  TIP3      H1             12.1184645843       31.6902566010        0.5992249655  SOLV      5730            0.0000000000
     17310      5741  TIP3      H2             13.5909651574       31.7893715070        0.9645072803  SOLV      5730            0.0000000000
     17311      5742  TIP3      OH2            -0.5294209053       27.2875774784       -3.4742959018  SOLV      5731            0.0000000000
     17312      5742  TIP3      H1             -0.5218167666       28.2661139656       -3.4336529948  SOLV      5731            0.0000000000
     17313      5742  TIP3      H2             -1.3679244166       27.1104888367       -3.9077969477  SOLV      5731            0.0000000000
     17314      5743  TIP3      OH2             3.3524769136       24.5482924182        5.2256416517  SOLV      5732            0.0000000000
     17315      5743  TIP3      H1              3.0417055119       24.2027541335        4.3619662140  SOLV      5732            0.0000000000
     17316      5743  TIP3      H2              3.2393658008       23.7691411820        5.8078555096  SOLV      5732            0.0000000000
     17317      5744  TIP3      OH2             1.1909690184       35.6274838918       11.7916473554  SOLV      5733            0.0000000000
     17318      5744  TIP3      H1              1.7359028436       34.8401151311       11.9724424030  SOLV      5733            0.0000000000
     17319      5744  TIP3      H2              0.7188395674       35.3594637310       11.0042110451  SOLV      5733            0.0000000000
     17320      5745  TIP3      OH2             1.1177051065       32.1061083061       -6.2749712508  SOLV      5734            0.0000000000
     17321      5745  TIP3      H1              1.5239915893       32.5099755795       -5.4913764394  SOLV      5734            0.0000000000
     17322      5745  TIP3      H2              1.8729661955       32.1250724056       -6.9161052956  SOLV      5734            0.0000000000
     17323      5746  TIP3      OH2             7.7233871776       36.4369763054        9.5869736974  SOLV      5735            0.0000000000
     17324      5746  TIP3      H1              7.3526982231       36.7301224723        8.7503389104  SOLV      5735            0.0000000000
     17325      5746  TIP3      H2              7.9416959207       35.4986357410        9.4021193163  SOLV      5735            0.0000000000
     17326      5747  TIP3      OH2            12.5986740168       36.1345846028        5.4556101900  SOLV      5736            0.0000000000
     17327      5747  TIP3      H1             13.0867214456       36.4208686596        4.6721126947  SOLV      5736            0.0000000000
     17328      5747  TIP3      H2             12.7770132836       36.8567510112        6.0875866647  SOLV      5736            0.0000000000
     17329      5748  TIP3      OH2             3.1413046019       33.5202262531       11.6007632572  SOLV      5737            0.0000000000
     17330      5748  TIP3      H1              3.8132187952       32.8360197344       11.4269461448  SOLV      5737            0.0000000000
     17331      5748  TIP3      H2              3.3650121800       33.7671602573       12.5244533209  SOLV      5737            0.0000000000
     17332      5749  TIP3      OH2             3.6394501560       31.6200253319       -3.7819832874  SOLV      5738            0.0000000000
     17333      5749  TIP3      H1              3.3149058118       31.0497285702       -3.0671045840  SOLV      5738            0.0000000000
     17334      5749  TIP3      H2              3.9506085200       30.9603279533       -4.4383871237  SOLV      5738            0.0000000000
     17335      5750  TIP3      OH2             6.2128337377       32.3161294285        8.0628013664  SOLV      5739            0.0000000000
     17336      5750  TIP3      H1              5.3635280168       32.8053818688        8.1196657200  SOLV      5739            0.0000000000
     17337      5750  TIP3      H2              6.6200686340       32.7046673147        7.2612474700  SOLV      5739            0.0000000000
     17338      5751  TIP3      OH2             4.5305452929       29.7006535301       -5.6499026845  SOLV      5740            0.0000000000
     17339      5751  TIP3      H1              4.2738099808       29.6410609374       -6.5952261105  SOLV      5740            0.0000000000
     17340      5751  TIP3      H2              5.5022559729       29.7922644659       -5.7404396511  SOLV      5740            0.0000000000
     17341      5752  TIP3      OH2            12.8203928915       32.7347565222       -9.0125780376  SOLV      5741            0.0000000000
     17342      5752  TIP3      H1             12.7066252283       32.2134166806       -9.8279865745  SOLV      5741            0.0000000000
     17343      5752  TIP3      H2             12.7765462321       33.6294495534       -9.3859923160  SOLV      5741            0.0000000000
     17344      5753  TIP3      OH2             7.3645102152       30.2946558617        9.4710087072  SOLV      5742            0.0000000000
     17345      5753  TIP3      H1              7.4133950489       29.5060814722        8.8953821735  SOLV      5742            0.0000000000
     17346      5753  TIP3      H2              6.9617202788       30.9570758797        8.8652038891  SOLV      5742            0.0000000000
     17347      5754  TIP3      OH2             7.4316485750       28.1911851747        7.5288768724  SOLV      5743            0.0000000000
     17348      5754  TIP3      H1              7.6993424239       28.5752373710        6.6743749585  SOLV      5743            0.0000000000
     17349      5754  TIP3      H2              6.4924197529       27.9619007121        7.3596910999  SOLV      5743            0.0000000000
     17350      5755  TIP3      OH2             7.7722514168       33.5274959629        6.2238728892  SOLV      5744            0.0000000000
     17351      5755  TIP3      H1              8.6236906923       33.4413524839        5.7957185156  SOLV      5744            0.0000000000
     17352      5755  TIP3      H2              7.2334351114       33.9837582026        5.5388985279  SOLV      5744            0.0000000000
     17353      5756  TIP3      OH2             5.6699316821       31.4181115059       11.4743499121  SOLV      5745            0.0000000000
     17354      5756  TIP3      H1              5.2628577498       30.5686898673       11.7410573290  SOLV      5745            0.0000000000
     17355      5756  TIP3      H2              6.2706768970       31.1265968701       10.7618905334  SOLV      5745            0.0000000000
     17356      5757  TIP3      OH2             8.7252254835       25.8039601892        8.2377903317  SOLV      5746            0.0000000000
     17357      5757  TIP3      H1              8.2316521741       26.6193589885        8.0063403633  SOLV      5746            0.0000000000
     17358      5757  TIP3      H2              8.0315017253       25.1195606199        8.1385322707  SOLV      5746            0.0000000000
     17359      5758  TIP3      OH2             9.9794351294       30.8529282175       10.2786728237  SOLV      5747            0.0000000000
     17360      5758  TIP3      H1             10.0134484082       30.7176809612       11.2430395300  SOLV      5747            0.0000000000
     17361      5758  TIP3      H2              9.0481641953       30.5981330190       10.1016743806  SOLV      5747            0.0000000000
     17362      5759  TIP3      OH2            12.3109587410       30.3700742918        8.8663306948  SOLV      5748            0.0000000000
     17363      5759  TIP3      H1             11.5174172152       30.3350684620        9.4376431949  SOLV      5748            0.0000000000
     17364      5759  TIP3      H2             13.0042941975       30.0959350050        9.5126362007  SOLV      5748            0.0000000000
     17365      5760  TIP3      OH2            14.1980881583       29.6181860750       10.6842931769  SOLV      5749            0.0000000000
     17366      5760  TIP3      H1             14.5339983684       28.7048400703       10.7478937419  SOLV      5749            0.0000000000
     17367      5760  TIP3      H2             14.7112793173       30.0831435642       11.3518791861  SOLV      5749            0.0000000000
     17368      5761  TIP3      OH2             4.5451539357       29.0769865880       12.3612134803  SOLV      5750            0.0000000000
     17369      5761  TIP3      H1              4.5794932799       28.1528944031       12.0463056693  SOLV      5750            0.0000000000
     17370      5761  TIP3      H2              4.9456024880       28.9738535315       13.2514268475  SOLV      5750            0.0000000000
     17371      5762  TIP3      OH2             9.6750905839       25.9266589143       10.8050706004  SOLV      5751            0.0000000000
     17372      5762  TIP3      H1             10.2770389744       25.1613506421       10.7361220913  SOLV      5751            0.0000000000
     17373      5762  TIP3      H2              9.2493689019       25.8916211261        9.9248265444  SOLV      5751            0.0000000000
     17374      5763  TIP3      OH2            10.2878452221       28.0699786297       12.4049091802  SOLV      5752            0.0000000000
     17375      5763  TIP3      H1             10.1248473707       27.3293439563       11.7775200190  SOLV      5752            0.0000000000
     17376      5763  TIP3      H2              9.4733537916       28.6057232978       12.2902469229  SOLV      5752            0.0000000000
     17377      5764  TIP3      OH2            14.1001928557       34.8822389451       -5.7526790085  SOLV      5753            0.0000000000
     17378      5764  TIP3      H1             14.7101671091       35.5552712482       -6.1042950509  SOLV      5753            0.0000000000
     17379      5764  TIP3      H2             14.5731304402       34.5834749769       -4.9446962069  SOLV      5753            0.0000000000
     17380      5765  TIP3      OH2            15.3687285385       33.6340432231       -3.6225942030  SOLV      5754            0.0000000000
     17381      5765  TIP3      H1             14.7001919874       33.1764393213       -3.0637186844  SOLV      5754            0.0000000000
     17382      5765  TIP3      H2             16.0551724557       33.8808548381       -2.9768638778  SOLV      5754            0.0000000000
     17383      5766  TIP3      OH2            14.7411673201       32.5667069775       -7.0851527963  SOLV      5755            0.0000000000
     17384      5766  TIP3      H1             14.0299461929       32.5234909357       -7.7652421247  SOLV      5755            0.0000000000
     17385      5766  TIP3      H2             14.4765330101       33.3794551482       -6.6055124123  SOLV      5755            0.0000000000
     17386      5767  TIP3      OH2            13.3842654246       29.3685040526       -7.6630687181  SOLV      5756            0.0000000000
     17387      5767  TIP3      H1             13.1377035267       29.6760768074       -8.5429148147  SOLV      5756            0.0000000000
     17388      5767  TIP3      H2             13.1393085179       28.4183002392       -7.7220319087  SOLV      5756            0.0000000000
     17389      5768  TIP3      OH2            13.5175625977       32.1322469645       -2.2106828250  SOLV      5757            0.0000000000
     17390      5768  TIP3      H1             13.5636684580       31.1646935051       -2.2945199124  SOLV      5757            0.0000000000
     17391      5768  TIP3      H2             13.3432385643       32.2472234338       -1.2497555218  SOLV      5757            0.0000000000
     17392      5769  TIP3      OH2            -0.2721696422       32.1595173574        5.5582295189  SOLV      5758            0.0000000000
     17393      5769  TIP3      H1             -0.4612686608       32.4527035464        4.6541496092  SOLV      5758            0.0000000000
     17394      5769  TIP3      H2              0.6946845659       32.3586858893        5.6155413280  SOLV      5758            0.0000000000
     17395      5770  TIP3      OH2            12.8385731608       26.7071794377       -7.8213329784  SOLV      5759            0.0000000000
     17396      5770  TIP3      H1             13.5560374650       26.3630224130       -7.2530923743  SOLV      5759            0.0000000000
     17397      5770  TIP3      H2             12.0885262753       26.1210620924       -7.6260188776  SOLV      5759            0.0000000000
     17398      5771  TIP3      OH2            13.4499614448       29.3167501095       -3.2859146040  SOLV      5760            0.0000000000
     17399      5771  TIP3      H1             13.8582821464       28.4306854381       -3.1355138573  SOLV      5760            0.0000000000
     17400      5771  TIP3      H2             14.0106584356       29.6333721433       -4.0174448554  SOLV      5760            0.0000000000
     17401      5772  TIP3      OH2            15.0210443868       30.9425455948        1.6714051475  SOLV      5761            0.0000000000
     17402      5772  TIP3      H1             15.8832556363       31.2094564345        1.2764046543  SOLV      5761            0.0000000000
     17403      5772  TIP3      H2             15.1323690666       31.3445381880        2.5563375910  SOLV      5761            0.0000000000
     17404      5773  TIP3      OH2            15.6414689932       32.3974486389        3.9664490469  SOLV      5762            0.0000000000
     17405      5773  TIP3      H1             14.8697751228       32.7498058831        4.4470022385  SOLV      5762            0.0000000000
     17406      5773  TIP3      H2             15.9923088326       33.2216679738        3.5492181058  SOLV      5762            0.0000000000
     17407      5774  TIP3      OH2             1.9143853046       29.7322449757       12.1031243643  SOLV      5763            0.0000000000
     17408      5774  TIP3      H1              2.8926656435       29.6516138274       12.1264703821  SOLV      5763            0.0000000000
     17409      5774  TIP3      H2              1.6688634430       28.8421836127       12.4249936452  SOLV      5763            0.0000000000
     17410      5775  TIP3      OH2            14.5191318626       26.8046731928       -2.8779392404  SOLV      5764            0.0000000000
     17411      5775  TIP3      H1             14.9811132061       26.6236842764       -2.0320862139  SOLV      5764            0.0000000000
     17412      5775  TIP3      H2             13.9021792000       26.0440347462       -2.9103282753  SOLV      5764            0.0000000000
     17413      5776  TIP3      OH2             1.5123634166       26.6501051555        5.3282691743  SOLV      5765            0.0000000000
     17414      5776  TIP3      H1              2.1378346800       25.9027434986        5.4105973345  SOLV      5765            0.0000000000
     17415      5776  TIP3      H2              2.1310002086       27.3968684850        5.2407071013  SOLV      5765            0.0000000000
     17416      5777  TIP3      OH2            -0.5050118795       29.4111446232        6.0357873604  SOLV      5766            0.0000000000
     17417      5777  TIP3      H1              0.0270072813       29.2262705946        5.2391357087  SOLV      5766            0.0000000000
     17418      5777  TIP3      H2             -0.4209983133       30.3825459660        6.0526917472  SOLV      5766            0.0000000000
     17419      5778  TIP3      OH2            18.4616663011       29.3480468720        8.4049866103  SOLV      5767            0.0000000000
     17420      5778  TIP3      H1             18.1618904669       30.2358657837        8.7280744349  SOLV      5767            0.0000000000
     17421      5778  TIP3      H2             18.2240970235       29.4514330387        7.4740194390  SOLV      5767            0.0000000000
     17422      5779  TIP3      OH2            15.2802791980       26.0868438202       -6.5168475211  SOLV      5768            0.0000000000
     17423      5779  TIP3      H1             15.6584112898       25.3903043647       -7.0953967516  SOLV      5768            0.0000000000
     17424      5779  TIP3      H2             15.9513342957       26.7927375718       -6.5721317338  SOLV      5768            0.0000000000
     17425      5780  TIP3      OH2            -0.6202897844       24.3784239297        1.0634731690  SOLV      5769            0.0000000000
     17426      5780  TIP3      H1             -1.5408972385       24.3376040717        1.3745865551  SOLV      5769            0.0000000000
     17427      5780  TIP3      H2             -0.6944622156       24.9697009359        0.2863276914  SOLV      5769            0.0000000000
     17428      5781  TIP3      OH2             1.5785250601       25.2111121671        9.2165916933  SOLV      5770            0.0000000000
     17429      5781  TIP3      H1              1.0580519098       25.1551588171       10.0335333978  SOLV      5770            0.0000000000
     17430      5781  TIP3      H2              0.9210987466       25.5981713457        8.6051657150  SOLV      5770            0.0000000000
     17431      5782  TIP3      OH2            17.6276589253       27.0413560640        6.1994761615  SOLV      5771            0.0000000000
     17432      5782  TIP3      H1             17.2947755477       27.7350618815        5.6032256327  SOLV      5771            0.0000000000
     17433      5782  TIP3      H2             18.3171129002       26.5950736604        5.6690967560  SOLV      5771            0.0000000000
     17434      5783  TIP3      OH2             9.9726092388       26.5233907743        2.6401125791  SOLV      5772            0.0000000000
     17435      5783  TIP3      H1              9.5753357969       25.7900744216        3.1438941705  SOLV      5772            0.0000000000
     17436      5783  TIP3      H2             10.7123476804       26.0852197831        2.1764000568  SOLV      5772            0.0000000000
     17437      5784  TIP3      OH2            15.1570230825       25.3171545922        1.6100721551  SOLV      5773            0.0000000000
     17438      5784  TIP3      H1             15.5245043142       25.8627705655        0.8798822177  SOLV      5773            0.0000000000
     17439      5784  TIP3      H2             14.2221507340       25.5902433958        1.6071291155  SOLV      5773            0.0000000000
     17440      5785  TIP3      OH2            16.1523814506       26.3266012462       -0.7111547076  SOLV      5774            0.0000000000
     17441      5785  TIP3      H1             16.8902881855       25.7938735455       -1.0761208328  SOLV      5774            0.0000000000
     17442      5785  TIP3      H2             16.5059084200       27.2364031302       -0.8498081960  SOLV      5774            0.0000000000
     17443      5786  TIP3      OH2             2.4606435384       23.5981488794        2.7650768147  SOLV      5775            0.0000000000
     17444      5786  TIP3      H1              1.5407193894       23.2602904089        2.7997743280  SOLV      5775            0.0000000000
     17445      5786  TIP3      H2              2.9542042594       22.7494532326        2.7274047449  SOLV      5775            0.0000000000
     17446      5787  TIP3      OH2             0.3622742815       22.3498713049       -0.7116533381  SOLV      5776            0.0000000000
     17447      5787  TIP3      H1              0.6546364539       22.9183314999       -1.4450481600  SOLV      5776            0.0000000000
     17448      5787  TIP3      H2              0.0797467499       23.0082750284       -0.0456287782  SOLV      5776            0.0000000000
     17449      5788  TIP3      OH2             6.9419724207       23.9482822683        1.5877814616  SOLV      5777            0.0000000000
     17450      5788  TIP3      H1              7.5064196766       24.4146092881        0.9511097971  SOLV      5777            0.0000000000
     17451      5788  TIP3      H2              7.2540066992       24.3028533971        2.4312334181  SOLV      5777            0.0000000000
     17452      5789  TIP3      OH2            12.3029199955       25.4169051976        1.4233118966  SOLV      5778            0.0000000000
     17453      5789  TIP3      H1             12.3755323385       24.9989840379        0.5589508004  SOLV      5778            0.0000000000
     17454      5789  TIP3      H2             12.2347197640       24.6275188069        2.0150089669  SOLV      5778            0.0000000000
     17455      5790  TIP3      OH2            12.6910540036       24.6912456495       -2.9412559441  SOLV      5779            0.0000000000
     17456      5790  TIP3      H1             11.8374043992       25.1199246502       -2.7460021790  SOLV      5779            0.0000000000
     17457      5790  TIP3      H2             12.5538854588       23.8172069569       -2.5136560614  SOLV      5779            0.0000000000
     17458      5791  TIP3      OH2             1.5629627163       23.9229246986       -3.1357584189  SOLV      5780            0.0000000000
     17459      5791  TIP3      H1              2.0385647703       23.2784349412       -3.6946668411  SOLV      5780            0.0000000000
     17460      5791  TIP3      H2              2.3041616086       24.4490567966       -2.7721640926  SOLV      5780            0.0000000000
     17461      5792  TIP3      OH2             6.6156061169       25.7054596383       -2.1355647060  SOLV      5781            0.0000000000
     17462      5792  TIP3      H1              7.2128087703       25.2401929764       -1.5248888479  SOLV      5781            0.0000000000
     17463      5792  TIP3      H2              6.8106974336       26.6332201701       -1.8762583942  SOLV      5781            0.0000000000
     17464      5793  TIP3      OH2             4.5449881601       26.3578208983       11.6992474752  SOLV      5782            0.0000000000
     17465      5793  TIP3      H1              4.2233616877       25.6468377768       12.2867946380  SOLV      5782            0.0000000000
     17466      5793  TIP3      H2              5.4915154274       26.3792661576       11.9610122220  SOLV      5782            0.0000000000
     17467      5794  TIP3      OH2             7.0405175832       26.3781927094       12.8861318849  SOLV      5783            0.0000000000
     17468      5794  TIP3      H1              7.8998385998       26.1089796883       12.5194218185  SOLV      5783            0.0000000000
     17469      5794  TIP3      H2              6.9158978477       25.6902884009       13.5728032865  SOLV      5783            0.0000000000
     17470      5795  TIP3      OH2            15.1629340883       26.9457417745       10.8606694169  SOLV      5784            0.0000000000
     17471      5795  TIP3      H1             15.2741349018       26.5000038145       11.7238637905  SOLV      5784            0.0000000000
     17472      5795  TIP3      H2             16.0502747598       26.9012475180       10.4680834080  SOLV      5784            0.0000000000
     17473      5796  TIP3      OH2            17.0526089698       31.3349100222       -4.1750816537  SOLV      5785            0.0000000000
     17474      5796  TIP3      H1             16.6025894922       32.1807726167       -4.0128106273  SOLV      5785            0.0000000000
     17475      5796  TIP3      H2             16.3373489647       30.8273717229       -4.5974607868  SOLV      5785            0.0000000000
     17476      5797  TIP3      OH2            17.9316875446       34.3244812984       -2.5542962186  SOLV      5786            0.0000000000
     17477      5797  TIP3      H1             18.2719546558       33.5244489251       -2.0934605872  SOLV      5786            0.0000000000
     17478      5797  TIP3      H2             18.7179351927       34.5335578446       -3.0997123073  SOLV      5786            0.0000000000
     17479      5798  TIP3      OH2            22.7036012898       30.2463844130       -2.3313272746  SOLV      5787            0.0000000000
     17480      5798  TIP3      H1             22.5140402787       30.8306784834       -3.0939795695  SOLV      5787            0.0000000000
     17481      5798  TIP3      H2             22.3420947865       29.4064952189       -2.6819927187  SOLV      5787            0.0000000000
     17482      5799  TIP3      OH2            19.0879525298       32.1615631720       -1.3216914306  SOLV      5788            0.0000000000
     17483      5799  TIP3      H1             19.9080494428       31.9680433732       -0.8304835811  SOLV      5788            0.0000000000
     17484      5799  TIP3      H2             19.2124072604       31.5755919871       -2.0983346088  SOLV      5788            0.0000000000
     17485      5800  TIP3      OH2            22.7582141939       29.9376947101        1.9640029814  SOLV      5789            0.0000000000
     17486      5800  TIP3      H1             22.1344773398       30.3917079798        1.3790116649  SOLV      5789            0.0000000000
     17487      5800  TIP3      H2             22.3427430888       30.1067539172        2.8369586005  SOLV      5789            0.0000000000
     17488      5801  TIP3      OH2            21.4448736054       31.2670655907       -0.1510312690  SOLV      5790            0.0000000000
     17489      5801  TIP3      H1             22.0227001637       32.0201549552        0.0207565458  SOLV      5790            0.0000000000
     17490      5801  TIP3      H2             21.9214967578       30.8298506202       -0.8996823278  SOLV      5790            0.0000000000
     17491      5802  TIP3      OH2            25.9603198382       27.0338428174       -1.0754244308  SOLV      5791            0.0000000000
     17492      5802  TIP3      H1             26.0501247639       26.1363777189       -0.6949497171  SOLV      5791            0.0000000000
     17493      5802  TIP3      H2             25.2958663221       27.4241327290       -0.4627713687  SOLV      5791            0.0000000000
     17494      5803  TIP3      OH2            23.9318024331       27.9872612103        0.4914423459  SOLV      5792            0.0000000000
     17495      5803  TIP3      H1             23.0300604338       27.7261747462        0.2184290654  SOLV      5792            0.0000000000
     17496      5803  TIP3      H2             23.7097721106       28.7782837031        1.0338231315  SOLV      5792            0.0000000000
     17497      5804  TIP3      OH2            21.8565558691       31.7629981452       -4.4441155840  SOLV      5793            0.0000000000
     17498      5804  TIP3      H1             21.0095229801       31.3908797887       -4.1048754369  SOLV      5793            0.0000000000
     17499      5804  TIP3      H2             21.5391799142       32.1546151284       -5.2765629267  SOLV      5793            0.0000000000
     17500      5805  TIP3      OH2            21.3477068804       27.7101731430      -10.1701834208  SOLV      5794            0.0000000000
     17501      5805  TIP3      H1             21.4102164957       27.8787185941       -9.2116847730  SOLV      5794            0.0000000000
     17502      5805  TIP3      H2             20.8733243342       28.4906265376      -10.4900904901  SOLV      5794            0.0000000000
     17503      5806  TIP3      OH2            17.3958532785       28.5728207730       -1.5083163587  SOLV      5795            0.0000000000
     17504      5806  TIP3      H1             18.1530425129       28.9145384953       -0.9876587597  SOLV      5795            0.0000000000
     17505      5806  TIP3      H2             17.7943885949       28.3016952285       -2.3451055117  SOLV      5795            0.0000000000
     17506      5807  TIP3      OH2            17.0392843905       28.3684140413       -6.3409166854  SOLV      5796            0.0000000000
     17507      5807  TIP3      H1             17.4529470673       28.7279011408       -7.1559062157  SOLV      5796            0.0000000000
     17508      5807  TIP3      H2             16.4203480326       29.0942230291       -6.1347580572  SOLV      5796            0.0000000000
     17509      5808  TIP3      OH2            19.5775436510       30.5870806188       -3.5196664078  SOLV      5797            0.0000000000
     17510      5808  TIP3      H1             18.6522402984       30.7458112600       -3.8252608289  SOLV      5797            0.0000000000
     17511      5808  TIP3      H2             19.7446177979       29.6697448109       -3.7873746794  SOLV      5797            0.0000000000
     17512      5809  TIP3      OH2            20.1248441725       31.5017333054       -9.3033638502  SOLV      5798            0.0000000000
     17513      5809  TIP3      H1             19.7091743822       30.7906073733       -9.8320363130  SOLV      5798            0.0000000000
     17514      5809  TIP3      H2             20.7428174064       31.8799343016       -9.9361604723  SOLV      5798            0.0000000000
     17515      5810  TIP3      OH2            21.4592204732       28.2267763250       -3.8161517588  SOLV      5799            0.0000000000
     17516      5810  TIP3      H1             21.1178052902       27.4651011380       -3.3009672629  SOLV      5799            0.0000000000
     17517      5810  TIP3      H2             21.6774379533       27.8163581065       -4.6576398640  SOLV      5799            0.0000000000
     17518      5811  TIP3      OH2            16.8519682233       32.5335991803       -8.8020408180  SOLV      5800            0.0000000000
     17519      5811  TIP3      H1             17.1970808236       33.4292710986       -8.7083591327  SOLV      5800            0.0000000000
     17520      5811  TIP3      H2             16.1059494047       32.5499679189       -8.1610984016  SOLV      5800            0.0000000000
     17521      5812  TIP3      OH2            21.0927188246       30.6260073664        4.0714580818  SOLV      5801            0.0000000000
     17522      5812  TIP3      H1             20.1889338257       30.9416619492        3.9007810332  SOLV      5801            0.0000000000
     17523      5812  TIP3      H2             21.0736985363       30.5542846866        5.0369530704  SOLV      5801            0.0000000000
     17524      5813  TIP3      OH2            21.7813884817       28.0070981787       -7.4636846184  SOLV      5802            0.0000000000
     17525      5813  TIP3      H1             21.9384017605       28.9785011075       -7.3993557557  SOLV      5802            0.0000000000
     17526      5813  TIP3      H2             22.6597745913       27.6515762610       -7.2811859339  SOLV      5802            0.0000000000
     17527      5814  TIP3      OH2            17.3526838846       29.8181930738       -8.6364333129  SOLV      5803            0.0000000000
     17528      5814  TIP3      H1             17.4675483617       30.7882168996       -8.6219739873  SOLV      5803            0.0000000000
     17529      5814  TIP3      H2             16.4835629525       29.7271053917       -9.0378602541  SOLV      5803            0.0000000000
     17530      5815  TIP3      OH2            21.2933328323       27.1318342907        0.0982852412  SOLV      5804            0.0000000000
     17531      5815  TIP3      H1             20.9935132120       26.7751621887       -0.7619756667  SOLV      5804            0.0000000000
     17532      5815  TIP3      H2             21.2212839247       26.3511273721        0.6815543205  SOLV      5804            0.0000000000
     17533      5816  TIP3      OH2            17.9362732276       34.8027345799        0.3665769290  SOLV      5805            0.0000000000
     17534      5816  TIP3      H1             17.5897107114       34.8400357289       -0.5405207766  SOLV      5805            0.0000000000
     17535      5816  TIP3      H2             18.6747126063       35.4142831347        0.3031267306  SOLV      5805            0.0000000000
     17536      5817  TIP3      OH2            19.4926349137       29.2396638933        0.1593339541  SOLV      5806            0.0000000000
     17537      5817  TIP3      H1             20.1315496557       28.5046682844        0.2542871487  SOLV      5806            0.0000000000
     17538      5817  TIP3      H2             20.0903189389       30.0065239120        0.1596968381  SOLV      5806            0.0000000000
     17539      5818  TIP3      OH2            17.4510424332       31.9589181608        0.9324885752  SOLV      5807            0.0000000000
     17540      5818  TIP3      H1             17.9544373710       31.8827098783        0.0993068404  SOLV      5807            0.0000000000
     17541      5818  TIP3      H2             17.5879996754       32.9007584457        1.1247065903  SOLV      5807            0.0000000000
     17542      5819  TIP3      OH2            17.3738066250       26.9956816853       -4.0334328386  SOLV      5808            0.0000000000
     17543      5819  TIP3      H1             16.4475848401       26.9007082581       -3.7507064987  SOLV      5808            0.0000000000
     17544      5819  TIP3      H2             17.2811977785       27.5520877043       -4.8350607611  SOLV      5808            0.0000000000
     17545      5820  TIP3      OH2            19.4633212372       27.6526637184        4.1041649602  SOLV      5809            0.0000000000
     17546      5820  TIP3      H1             19.4078400304       28.3264546205        4.7820770774  SOLV      5809            0.0000000000
     17547      5820  TIP3      H2             18.8413490303       28.0156987259        3.4311834448  SOLV      5809            0.0000000000
     17548      5821  TIP3      OH2            20.3967547811       26.1060031234       -2.3497497006  SOLV      5810            0.0000000000
     17549      5821  TIP3      H1             19.4320983102       25.9214918988       -2.3237392265  SOLV      5810            0.0000000000
     17550      5821  TIP3      H2             20.7270032697       25.2070971554       -2.4445932801  SOLV      5810            0.0000000000
     17551      5822  TIP3      OH2            18.4170688450       24.8776776266       -5.7863654345  SOLV      5811            0.0000000000
     17552      5822  TIP3      H1             18.6612880138       25.3960924724       -6.5769857327  SOLV      5811            0.0000000000
     17553      5822  TIP3      H2             18.0944854808       25.5691656285       -5.1797377200  SOLV      5811            0.0000000000
     17554      5823  TIP3      OH2            24.6006552800       26.5265780479       -3.4235815135  SOLV      5812            0.0000000000
     17555      5823  TIP3      H1             25.2809580054       26.6022912319       -4.1021126069  SOLV      5812            0.0000000000
     17556      5823  TIP3      H2             25.0793787586       26.7847176638       -2.6084517509  SOLV      5812            0.0000000000
     17557      5824  TIP3      OH2            19.4423865838       26.3751635248       -8.1545857273  SOLV      5813            0.0000000000
     17558      5824  TIP3      H1             19.9262690719       25.8219113232       -8.8005229107  SOLV      5813            0.0000000000
     17559      5824  TIP3      H2             20.1573487879       26.9462158061       -7.8171652572  SOLV      5813            0.0000000000
     17560      5825  TIP3      OH2             5.8992973537      -16.4735557875       30.6264611399  SOLV      5814            0.0000000000
     17561      5825  TIP3      H1              5.4254869325      -16.8730648724       29.8764301113  SOLV      5814            0.0000000000
     17562      5825  TIP3      H2              5.4236932186      -15.6293773033       30.7252248042  SOLV      5814            0.0000000000
     17563      5826  TIP3      OH2             6.9669840474      -12.8394227925       30.8481323879  SOLV      5815            0.0000000000
     17564      5826  TIP3      H1              7.5933917548      -13.5893113438       30.6917574937  SOLV      5815            0.0000000000
     17565      5826  TIP3      H2              7.5517026108      -12.0785918691       30.6150771422  SOLV      5815            0.0000000000
     17566      5827  TIP3      OH2             8.4539065932      -15.0625270355       30.3740920769  SOLV      5816            0.0000000000
     17567      5827  TIP3      H1              7.8347279715      -15.7742240254       30.1324359769  SOLV      5816            0.0000000000
     17568      5827  TIP3      H2              8.8574226481      -15.4073658405       31.1828717864  SOLV      5816            0.0000000000
     17569      5828  TIP3      OH2             5.0559885063      -20.4233873252       30.3597018048  SOLV      5817            0.0000000000
     17570      5828  TIP3      H1              4.2549461190      -19.8962871054       30.1550618307  SOLV      5817            0.0000000000
     17571      5828  TIP3      H2              5.5268469340      -20.4280200446       29.5053835691  SOLV      5817            0.0000000000
     17572      5829  TIP3      OH2             4.6725698305      -22.4652951677       27.7568135545  SOLV      5818            0.0000000000
     17573      5829  TIP3      H1              5.3770509501      -21.9570418669       28.1962960248  SOLV      5818            0.0000000000
     17574      5829  TIP3      H2              5.2183369520      -23.0621009806       27.2056828793  SOLV      5818            0.0000000000
     17575      5830  TIP3      OH2             8.3884227386      -19.4753722724       30.3398901531  SOLV      5819            0.0000000000
     17576      5830  TIP3      H1              7.7061257989      -19.6368349214       31.0140099219  SOLV      5819            0.0000000000
     17577      5830  TIP3      H2              9.1427613607      -19.9372541443       30.7260057416  SOLV      5819            0.0000000000
     17578      5831  TIP3      OH2             6.9592234309      -20.9222286149       28.4611953551  SOLV      5820            0.0000000000
     17579      5831  TIP3      H1              7.5320104479      -20.2837642646       28.9314030332  SOLV      5820            0.0000000000
     17580      5831  TIP3      H2              7.2185639961      -20.7390470827       27.5249405575  SOLV      5820            0.0000000000
     17581      5832  TIP3      OH2             4.4829146933      -13.8214661994       30.9114483547  SOLV      5821            0.0000000000
     17582      5832  TIP3      H1              5.3415576199      -13.3900781219       30.9116167846  SOLV      5821            0.0000000000
     17583      5832  TIP3      H2              3.9311289106      -13.2131865066       30.3858394706  SOLV      5821            0.0000000000
     17584      5833  TIP3      OH2            10.1202578344      -14.8472533647       24.5478873933  SOLV      5822            0.0000000000
     17585      5833  TIP3      H1             10.1917181067      -13.8839168647       24.3776862209  SOLV      5822            0.0000000000
     17586      5833  TIP3      H2             11.0430327801      -15.1391149911       24.3907865272  SOLV      5822            0.0000000000
     17587      5834  TIP3      OH2             3.1816798323      -11.7527449317       29.3290173209  SOLV      5823            0.0000000000
     17588      5834  TIP3      H1              2.7465260758      -11.9546811215       28.4771871795  SOLV      5823            0.0000000000
     17589      5834  TIP3      H2              2.9185892188      -10.8219803689       29.4720807120  SOLV      5823            0.0000000000
     17590      5835  TIP3      OH2             5.1995988811      -12.6471572409       25.6964730366  SOLV      5824            0.0000000000
     17591      5835  TIP3      H1              5.7748466218      -13.3604736672       25.3388805697  SOLV      5824            0.0000000000
     17592      5835  TIP3      H2              5.5673513200      -12.5357078329       26.5983743743  SOLV      5824            0.0000000000
     17593      5836  TIP3      OH2             5.7216750202      -12.1181077612       28.3622087874  SOLV      5825            0.0000000000
     17594      5836  TIP3      H1              4.8329888491      -12.0488888257       28.7663219255  SOLV      5825            0.0000000000
     17595      5836  TIP3      H2              6.2488851985      -12.4539110929       29.1079427708  SOLV      5825            0.0000000000
     17596      5837  TIP3      OH2             7.7728426629      -20.4769714744       25.9679175539  SOLV      5826            0.0000000000
     17597      5837  TIP3      H1              7.3507546494      -20.6924181585       25.1118426218  SOLV      5826            0.0000000000
     17598      5837  TIP3      H2              8.6078918289      -20.0675811163       25.6712841604  SOLV      5826            0.0000000000
     17599      5838  TIP3      OH2            15.2821811142       -6.4440694177      -32.4668727762  SOLV      5827            0.0000000000
     17600      5838  TIP3      H1             14.4893794796       -6.9515882596      -32.6753913483  SOLV      5827            0.0000000000
     17601      5838  TIP3      H2             15.0997952501       -6.1276605964      -31.5669861702  SOLV      5827            0.0000000000
     17602      5839  TIP3      OH2             7.3498804055      -25.4549230161       27.9438022924  SOLV      5828            0.0000000000
     17603      5839  TIP3      H1              6.7241922247      -25.9764113587       28.4574437871  SOLV      5828            0.0000000000
     17604      5839  TIP3      H2              7.6053416888      -24.7633158900       28.5974283821  SOLV      5828            0.0000000000
     17605      5840  TIP3      OH2             7.8690798603      -23.3058953542       29.5451211655  SOLV      5829            0.0000000000
     17606      5840  TIP3      H1              8.7661527612      -23.0289372786       29.8074847144  SOLV      5829            0.0000000000
     17607      5840  TIP3      H2              7.4979228429      -22.4707066104       29.1980630189  SOLV      5829            0.0000000000
     17608      5841  TIP3      OH2             4.2047853384      -17.3085608012       28.3842055559  SOLV      5830            0.0000000000
     17609      5841  TIP3      H1              3.7106184478      -16.4546234859       28.3842414121  SOLV      5830            0.0000000000
     17610      5841  TIP3      H2              3.6129181184      -17.8704693100       28.9277966881  SOLV      5830            0.0000000000
     17611      5842  TIP3      OH2            12.3067682536      -22.2678005993       28.0180371767  SOLV      5831            0.0000000000
     17612      5842  TIP3      H1             11.8101606512      -22.7441538964       27.3097750066  SOLV      5831            0.0000000000
     17613      5842  TIP3      H2             12.2954621212      -21.3734698150       27.5768945685  SOLV      5831            0.0000000000
     17614      5843  TIP3      OH2             9.4662104631      -14.0955724909       27.1944748938  SOLV      5832            0.0000000000
     17615      5843  TIP3      H1              9.1896292540      -14.8019358182       27.7948483772  SOLV      5832            0.0000000000
     17616      5843  TIP3      H2              9.5806754130      -14.5611120240       26.3459678336  SOLV      5832            0.0000000000
     17617      5844  TIP3      OH2             7.0374466888      -16.7560069902       26.1728962290  SOLV      5833            0.0000000000
     17618      5844  TIP3      H1              7.5616060175      -17.0340022405       26.9598042057  SOLV      5833            0.0000000000
     17619      5844  TIP3      H2              6.1676125856      -17.1251602137       26.3936344380  SOLV      5833            0.0000000000
     17620      5845  TIP3      OH2            10.4016613604      -12.0791180976       24.3422799800  SOLV      5834            0.0000000000
     17621      5845  TIP3      H1             10.6991094029      -11.3205125684       23.8149724010  SOLV      5834            0.0000000000
     17622      5845  TIP3      H2              9.5882433213      -11.6873317621       24.7242630934  SOLV      5834            0.0000000000
     17623      5846  TIP3      OH2             8.6409185181      -17.5125569630       28.2795721113  SOLV      5835            0.0000000000
     17624      5846  TIP3      H1              8.5326806296      -18.1100446559       29.0426903448  SOLV      5835            0.0000000000
     17625      5846  TIP3      H2              9.6122489066      -17.5375238972       28.1567166714  SOLV      5835            0.0000000000
     17626      5847  TIP3      OH2             0.6874039675      -17.0342527826       26.0275811666  SOLV      5836            0.0000000000
     17627      5847  TIP3      H1              0.7813325618      -17.9709928182       25.7713075581  SOLV      5836            0.0000000000
     17628      5847  TIP3      H2              0.5307785137      -17.1222936052       26.9914964136  SOLV      5836            0.0000000000
     17629      5848  TIP3      OH2             0.1729304164      -16.8993065967       28.7011401148  SOLV      5837            0.0000000000
     17630      5848  TIP3      H1              0.6621515325      -16.9444795020       29.5541759466  SOLV      5837            0.0000000000
     17631      5848  TIP3      H2              0.0289087673      -15.9298870081       28.6783223723  SOLV      5837            0.0000000000
     17632      5849  TIP3      OH2             2.8102746267      -14.9840042219       28.3759625702  SOLV      5838            0.0000000000
     17633      5849  TIP3      H1              1.8986350276      -14.8659364112       28.6955251123  SOLV      5838            0.0000000000
     17634      5849  TIP3      H2              2.8715053752      -14.2669445846       27.7294750019  SOLV      5838            0.0000000000
     17635      5850  TIP3      OH2             0.1628262208      -14.1820849515       28.9062144245  SOLV      5839            0.0000000000
     17636      5850  TIP3      H1             -0.0959512137      -13.5103487580       28.2333540661  SOLV      5839            0.0000000000
     17637      5850  TIP3      H2              0.1268842444      -13.6574269520       29.7122721530  SOLV      5839            0.0000000000
     17638      5851  TIP3      OH2            -2.4769313966      -17.6246864834       28.6517905352  SOLV      5840            0.0000000000
     17639      5851  TIP3      H1             -1.5213204554      -17.4559425543       28.5883885542  SOLV      5840            0.0000000000
     17640      5851  TIP3      H2             -2.5220863185      -18.5076200411       28.2576164983  SOLV      5840            0.0000000000
     17641      5852  TIP3      OH2            10.1930023306      -10.5836471775       33.6647461064  SOLV      5841            0.0000000000
     17642      5852  TIP3      H1              9.9088516322       -9.9654983507       32.9552623422  SOLV      5841            0.0000000000
     17643      5852  TIP3      H2             11.1573286649      -10.3895773197       33.6154840347  SOLV      5841            0.0000000000
     17644      5853  TIP3      OH2             2.3068144077      -14.9771824356       25.2673493623  SOLV      5842            0.0000000000
     17645      5853  TIP3      H1              1.7563929503      -15.7297655798       25.5927189485  SOLV      5842            0.0000000000
     17646      5853  TIP3      H2              3.0654655207      -15.4598553973       24.8895125579  SOLV      5842            0.0000000000
     17647      5854  TIP3      OH2             6.6432794470      -14.6132227602       24.4323137854  SOLV      5843            0.0000000000
     17648      5854  TIP3      H1              7.0052452425      -15.2916967935       25.0391930745  SOLV      5843            0.0000000000
     17649      5854  TIP3      H2              7.2321868875      -14.6768086621       23.6575058175  SOLV      5843            0.0000000000
     17650      5855  TIP3      OH2            -1.2952519403      -19.9170614012       27.3970052412  SOLV      5844            0.0000000000
     17651      5855  TIP3      H1             -0.8151409325      -20.2759153490       28.1495449466  SOLV      5844            0.0000000000
     17652      5855  TIP3      H2             -0.5743525737      -19.8358322886       26.7349521677  SOLV      5844            0.0000000000
     17653      5856  TIP3      OH2             4.0444979924      -17.8077779582       25.6464903648  SOLV      5845            0.0000000000
     17654      5856  TIP3      H1              3.9648670796      -17.7077165945       26.6143724007  SOLV      5845            0.0000000000
     17655      5856  TIP3      H2              4.0242086137      -18.7889427480       25.5632396062  SOLV      5845            0.0000000000
     17656      5857  TIP3      OH2             1.8880044454      -22.4229824542       28.1318367746  SOLV      5846            0.0000000000
     17657      5857  TIP3      H1              1.6297926985      -22.5266161478       27.1994226248  SOLV      5846            0.0000000000
     17658      5857  TIP3      H2              2.8550779369      -22.5208559310       28.0786617539  SOLV      5846            0.0000000000
     17659      5858  TIP3      OH2            10.0858503214      -19.5401792495       24.7836335968  SOLV      5847            0.0000000000
     17660      5858  TIP3      H1              9.8569922567      -19.9681001607       23.9353542353  SOLV      5847            0.0000000000
     17661      5858  TIP3      H2              9.7469663369      -18.6340240670       24.5907736099  SOLV      5847            0.0000000000
     17662      5859  TIP3      OH2            -0.0127331131      -12.0790642822       27.2047632109  SOLV      5848            0.0000000000
     17663      5859  TIP3      H1              0.9231032260      -12.2094615948       26.9649831980  SOLV      5848            0.0000000000
     17664      5859  TIP3      H2             -0.3306015544      -11.6418386389       26.3906327117  SOLV      5848            0.0000000000
     17665      5860  TIP3      OH2            12.5734066784       -9.4164944648       33.1035794337  SOLV      5849            0.0000000000
     17666      5860  TIP3      H1             12.6938086748       -8.5898603237       33.6079721224  SOLV      5849            0.0000000000
     17667      5860  TIP3      H2             13.2961554071       -9.3424373963       32.4618495458  SOLV      5849            0.0000000000
     17668      5861  TIP3      OH2            11.4203014004      -17.6511342707       28.0807413156  SOLV      5850            0.0000000000
     17669      5861  TIP3      H1             12.0953908086      -17.0050346913       27.7890513743  SOLV      5850            0.0000000000
     17670      5861  TIP3      H2             11.8190015448      -17.9876229285       28.9121375202  SOLV      5850            0.0000000000
     17671      5862  TIP3      OH2            12.5854457847      -18.8371799238       30.2643529127  SOLV      5851            0.0000000000
     17672      5862  TIP3      H1             12.2551808590      -19.2726022104       31.0567610888  SOLV      5851            0.0000000000
     17673      5862  TIP3      H2             13.4523177277      -18.4929877203       30.5802110481  SOLV      5851            0.0000000000
     17674      5863  TIP3      OH2            12.0594383870      -19.8970613047       26.6160698321  SOLV      5852            0.0000000000
     17675      5863  TIP3      H1             11.3514670752      -19.8819322155       25.9307922877  SOLV      5852            0.0000000000
     17676      5863  TIP3      H2             11.7877730159      -19.1198280031       27.1449362151  SOLV      5852            0.0000000000
     17677      5864  TIP3      OH2            10.8449981119      -23.1562294207       25.9180636946  SOLV      5853            0.0000000000
     17678      5864  TIP3      H1             10.3007448462      -22.7418982895       25.2359960796  SOLV      5853            0.0000000000
     17679      5864  TIP3      H2             10.4538593245      -24.0541570943       25.9584377202  SOLV      5853            0.0000000000
     17680      5865  TIP3      OH2             9.8966962559      -25.6612084890       26.4969315887  SOLV      5854            0.0000000000
     17681      5865  TIP3      H1             10.2454779131      -25.7700798477       27.3857909134  SOLV      5854            0.0000000000
     17682      5865  TIP3      H2              8.9670552009      -25.9144962692       26.6494824380  SOLV      5854            0.0000000000
     17683      5866  TIP3      OH2            10.5255631890      -22.8709090321       30.2098377676  SOLV      5855            0.0000000000
     17684      5866  TIP3      H1             10.4512440197      -23.8325046030       30.0264231654  SOLV      5855            0.0000000000
     17685      5866  TIP3      H2             11.1786868214      -22.5941717163       29.5525377530  SOLV      5855            0.0000000000
     17686      5867  TIP3      OH2             8.3861335019      -10.8290763073       29.8154970752  SOLV      5856            0.0000000000
     17687      5867  TIP3      H1              8.9547442954      -10.9769041321       29.0334599660  SOLV      5856            0.0000000000
     17688      5867  TIP3      H2              8.9129589422      -10.1907038339       30.3314698579  SOLV      5856            0.0000000000
     17689      5868  TIP3      OH2             2.6185004720      -12.6695568923       26.6667589508  SOLV      5857            0.0000000000
     17690      5868  TIP3      H1              3.4988578068      -12.4473866137       26.2932892669  SOLV      5857            0.0000000000
     17691      5868  TIP3      H2              2.3878778596      -13.4124719693       26.0599813375  SOLV      5857            0.0000000000
     17692      5869  TIP3      OH2             9.8822253968      -11.4225880998       27.5569228021  SOLV      5858            0.0000000000
     17693      5869  TIP3      H1              9.7719570739      -12.3990570970       27.4665831074  SOLV      5858            0.0000000000
     17694      5869  TIP3      H2              9.3865201425      -11.1100147796       26.7721933285  SOLV      5858            0.0000000000
     17695      5870  TIP3      OH2            -4.3088844911      -14.2516993059       27.1802035622  SOLV      5859            0.0000000000
     17696      5870  TIP3      H1             -4.4331781749      -14.3555877615       28.1303853193  SOLV      5859            0.0000000000
     17697      5870  TIP3      H2             -3.4633905415      -14.7332146680       27.0312422129  SOLV      5859            0.0000000000
     17698      5871  TIP3      OH2            14.2252724018      -21.1937861750       29.7045505527  SOLV      5860            0.0000000000
     17699      5871  TIP3      H1             13.7942179382      -20.3248215678       29.7369522167  SOLV      5860            0.0000000000
     17700      5871  TIP3      H2             13.6085704792      -21.6995012308       29.1624278153  SOLV      5860            0.0000000000
     17701      5872  TIP3      OH2            15.1349247124      -18.3937273231       31.0875606187  SOLV      5861            0.0000000000
     17702      5872  TIP3      H1             15.5854297653      -18.9221015417       31.7597577971  SOLV      5861            0.0000000000
     17703      5872  TIP3      H2             15.8333447584      -18.2746444663       30.4355219822  SOLV      5861            0.0000000000
     17704      5873  TIP3      OH2            23.6748937218      -13.4714963296       25.3940139024  SOLV      5862            0.0000000000
     17705      5873  TIP3      H1             23.2284775888      -13.9204079318       24.6593911201  SOLV      5862            0.0000000000
     17706      5873  TIP3      H2             22.9863243359      -12.8433906812       25.6954897055  SOLV      5862            0.0000000000
     17707      5874  TIP3      OH2            13.3917985363      -15.9267361062       27.0006617954  SOLV      5863            0.0000000000
     17708      5874  TIP3      H1             12.9901649130      -15.6713619059       26.1511791371  SOLV      5863            0.0000000000
     17709      5874  TIP3      H2             13.6986037738      -15.0611015821       27.3456695836  SOLV      5863            0.0000000000
     17710      5875  TIP3      OH2            22.3130743544      -19.5847655901       22.5948969116  SOLV      5864            0.0000000000
     17711      5875  TIP3      H1             22.9968238810      -19.1590270452       23.1350057053  SOLV      5864            0.0000000000
     17712      5875  TIP3      H2             22.5565889989      -20.5299859989       22.6743334521  SOLV      5864            0.0000000000
     17713      5876  TIP3      OH2            22.0560866511      -11.3074530805       26.2176262514  SOLV      5865            0.0000000000
     17714      5876  TIP3      H1             22.8089900032      -10.7225466318       26.3063405424  SOLV      5865            0.0000000000
     17715      5876  TIP3      H2             21.4619681975      -10.7783697647       25.6586087853  SOLV      5865            0.0000000000
     17716      5877  TIP3      OH2            17.5475309296      -18.4707547541       27.0764415283  SOLV      5866            0.0000000000
     17717      5877  TIP3      H1             16.7004989047      -18.2135162437       26.6655313691  SOLV      5866            0.0000000000
     17718      5877  TIP3      H2             17.3811048281      -19.3689254658       27.3815747614  SOLV      5866            0.0000000000
     17719      5878  TIP3      OH2            27.9059740731      -12.2257212740       19.2574921573  SOLV      5867            0.0000000000
     17720      5878  TIP3      H1             27.9331625396      -11.2563672506       19.0950949478  SOLV      5867            0.0000000000
     17721      5878  TIP3      H2             28.8506218920      -12.4261864759       19.3159164134  SOLV      5867            0.0000000000
     17722      5879  TIP3      OH2            13.6886183416      -12.7333080459       32.3173457343  SOLV      5868            0.0000000000
     17723      5879  TIP3      H1             14.3699267741      -13.3122891076       32.6543787134  SOLV      5868            0.0000000000
     17724      5879  TIP3      H2             13.4207014938      -12.2502178128       33.1242670158  SOLV      5868            0.0000000000
     17725      5880  TIP3      OH2            21.2160239803       -9.1970438246       24.3069322273  SOLV      5869            0.0000000000
     17726      5880  TIP3      H1             20.8026960005       -9.2961357299       23.4332265589  SOLV      5869            0.0000000000
     17727      5880  TIP3      H2             20.9439308857       -8.2962144355       24.5660105530  SOLV      5869            0.0000000000
     17728      5881  TIP3      OH2            15.5127099884      -10.6366817034       27.9305738315  SOLV      5870            0.0000000000
     17729      5881  TIP3      H1             15.9261782295      -10.7397059179       28.8172480395  SOLV      5870            0.0000000000
     17730      5881  TIP3      H2             14.9276779247      -11.4101523733       27.9178113196  SOLV      5870            0.0000000000
     17731      5882  TIP3      OH2            23.0946450654      -10.1064152399       20.5859264863  SOLV      5871            0.0000000000
     17732      5882  TIP3      H1             23.6787081151      -10.7899121635       20.1821832255  SOLV      5871            0.0000000000
     17733      5882  TIP3      H2             23.5043168522      -10.0175142287       21.4740782948  SOLV      5871            0.0000000000
     17734      5883  TIP3      OH2            23.7454190888       -9.5849968550       23.2137917580  SOLV      5872            0.0000000000
     17735      5883  TIP3      H1             22.9522010066       -9.5545828650       23.7892751958  SOLV      5872            0.0000000000
     17736      5883  TIP3      H2             24.4808924295       -9.5450265598       23.8566951063  SOLV      5872            0.0000000000
     17737      5884  TIP3      OH2            25.6151268082      -17.6540294548       20.4908247604  SOLV      5873            0.0000000000
     17738      5884  TIP3      H1             25.2863679094      -17.8986016597       19.6102811131  SOLV      5873            0.0000000000
     17739      5884  TIP3      H2             26.5190242393      -17.3483582514       20.2737256804  SOLV      5873            0.0000000000
     17740      5885  TIP3      OH2            19.7488774790      -23.3076950568       23.3642599736  SOLV      5874            0.0000000000
     17741      5885  TIP3      H1             19.6535681910      -23.7978330839       24.2106524900  SOLV      5874            0.0000000000
     17742      5885  TIP3      H2             18.8697800137      -22.9098686641       23.2815524984  SOLV      5874            0.0000000000
     17743      5886  TIP3      OH2            14.5355355307      -24.1005806445       27.7739971318  SOLV      5875            0.0000000000
     17744      5886  TIP3      H1             14.9847714987      -23.7698022685       26.9527587317  SOLV      5875            0.0000000000
     17745      5886  TIP3      H2             13.8865400251      -23.4040317722       27.8782321109  SOLV      5875            0.0000000000
     17746      5887  TIP3      OH2            18.0798263885      -21.4361799889       24.9732199811  SOLV      5876            0.0000000000
     17747      5887  TIP3      H1             17.4712696003      -21.7252417594       24.2699321163  SOLV      5876            0.0000000000
     17748      5887  TIP3      H2             18.7975317508      -21.0554272858       24.4336302230  SOLV      5876            0.0000000000
     17749      5888  TIP3      OH2            20.3876481366      -15.9673600706       24.6805117970  SOLV      5877            0.0000000000
     17750      5888  TIP3      H1             19.9343545340      -16.8303479242       24.5696106009  SOLV      5877            0.0000000000
     17751      5888  TIP3      H2             20.2331332149      -15.8112525449       25.6371098618  SOLV      5877            0.0000000000
     17752      5889  TIP3      OH2            22.2122649949      -14.7035042137       23.0896369347  SOLV      5878            0.0000000000
     17753      5889  TIP3      H1             21.6909274144      -13.8748194729       23.1781075160  SOLV      5878            0.0000000000
     17754      5889  TIP3      H2             21.6645685869      -15.3070407125       23.6434900636  SOLV      5878            0.0000000000
     17755      5890  TIP3      OH2            27.2489263642      -11.5587638167       21.8800930584  SOLV      5879            0.0000000000
     17756      5890  TIP3      H1             27.4256597991      -12.2714173722       22.5080612143  SOLV      5879            0.0000000000
     17757      5890  TIP3      H2             27.4927960387      -11.9540286877       21.0235243378  SOLV      5879            0.0000000000
     17758      5891  TIP3      OH2            18.6220537439      -12.8292245454       28.0599718363  SOLV      5880            0.0000000000
     17759      5891  TIP3      H1             18.6766079501      -12.0357789012       27.4875412377  SOLV      5880            0.0000000000
     17760      5891  TIP3      H2             17.6673032388      -12.8673448045       28.1972912859  SOLV      5880            0.0000000000
     17761      5892  TIP3      OH2            14.2926747297      -19.9334934796       24.9975426524  SOLV      5881            0.0000000000
     17762      5892  TIP3      H1             14.7387273134      -19.0850870792       25.2064742394  SOLV      5881            0.0000000000
     17763      5892  TIP3      H2             13.5227848803      -19.8889557273       25.6024066826  SOLV      5881            0.0000000000
     17764      5893  TIP3      OH2            19.5770032690      -15.3295747983       27.2148980522  SOLV      5882            0.0000000000
     17765      5893  TIP3      H1             19.1895948909      -14.4571711795       27.4503000702  SOLV      5882            0.0000000000
     17766      5893  TIP3      H2             18.9524169792      -15.9521412204       27.6039921751  SOLV      5882            0.0000000000
     17767      5894  TIP3      OH2            17.8547099690      -10.5586628464       26.4598708446  SOLV      5883            0.0000000000
     17768      5894  TIP3      H1             16.9727569669      -10.4732077744       26.8797478626  SOLV      5883            0.0000000000
     17769      5894  TIP3      H2             18.1685351755       -9.6259836035       26.5098423900  SOLV      5883            0.0000000000
     17770      5895  TIP3      OH2            24.9237778265      -14.1645607727       21.0191785162  SOLV      5884            0.0000000000
     17771      5895  TIP3      H1             25.6166603369      -14.5143654252       21.6175843942  SOLV      5884            0.0000000000
     17772      5895  TIP3      H2             24.1179265794      -14.4342479176       21.4858392338  SOLV      5884            0.0000000000
     17773      5896  TIP3      OH2            28.2596204706       -9.4925533909       19.2081384426  SOLV      5885            0.0000000000
     17774      5896  TIP3      H1             28.5545807539       -8.8364348035       18.5552053311  SOLV      5885            0.0000000000
     17775      5896  TIP3      H2             27.4978204156       -9.0067950321       19.5921617364  SOLV      5885            0.0000000000
     17776      5897  TIP3      OH2            16.3416750782      -11.1202006714       33.7831531460  SOLV      5886            0.0000000000
     17777      5897  TIP3      H1             17.0889773244      -11.6741907316       33.9976759528  SOLV      5886            0.0000000000
     17778      5897  TIP3      H2             16.3092786862      -10.5320638682       34.5748899458  SOLV      5886            0.0000000000
     17779      5898  TIP3      OH2            18.5043543944      -14.4240407643       21.0914641108  SOLV      5887            0.0000000000
     17780      5898  TIP3      H1             18.7037874190      -15.3289853872       20.7780024210  SOLV      5887            0.0000000000
     17781      5898  TIP3      H2             18.3642390718      -14.5891134066       22.0459051305  SOLV      5887            0.0000000000
     17782      5899  TIP3      OH2            18.0318954471      -14.4208212552       23.8220749491  SOLV      5888            0.0000000000
     17783      5899  TIP3      H1             18.8325242196      -14.8152939204       24.2112590421  SOLV      5888            0.0000000000
     17784      5899  TIP3      H2             18.1751254650      -13.4599994004       23.9658280060  SOLV      5888            0.0000000000
     17785      5900  TIP3      OH2            15.2960991672      -17.4951243866       25.7840413727  SOLV      5889            0.0000000000
     17786      5900  TIP3      H1             14.6496044905      -17.0204065755       26.3482447543  SOLV      5889            0.0000000000
     17787      5900  TIP3      H2             15.4980620971      -16.8038353001       25.1256733056  SOLV      5889            0.0000000000
     17788      5901  TIP3      OH2            20.7858040243      -12.4284331943       23.3374686314  SOLV      5890            0.0000000000
     17789      5901  TIP3      H1             19.9110891950      -12.1437608429       23.6714722388  SOLV      5890            0.0000000000
     17790      5901  TIP3      H2             20.9536733774      -11.7573551827       22.6643348045  SOLV      5890            0.0000000000
     17791      5902  TIP3      OH2            18.2419710572      -11.6516719418       23.9706147731  SOLV      5891            0.0000000000
     17792      5902  TIP3      H1             17.8697085286      -10.9973143480       23.3522840657  SOLV      5891            0.0000000000
     17793      5902  TIP3      H2             18.0630796275      -11.2408865152       24.8464681044  SOLV      5891            0.0000000000
     17794      5903  TIP3      OH2            15.4177108478      -15.4265039583       23.8286688933  SOLV      5892            0.0000000000
     17795      5903  TIP3      H1             16.2164452540      -14.8769255852       23.9568776699  SOLV      5892            0.0000000000
     17796      5903  TIP3      H2             15.7867462176      -16.0683042755       23.1811964038  SOLV      5892            0.0000000000
     17797      5904  TIP3      OH2            14.7119011880      -22.6665203300       25.3677273297  SOLV      5893            0.0000000000
     17798      5904  TIP3      H1             14.9037374232      -21.7086247151       25.3928386651  SOLV      5893            0.0000000000
     17799      5904  TIP3      H2             13.9915712753      -22.6886324232       24.7474573818  SOLV      5893            0.0000000000
     17800      5905  TIP3      OH2            14.0148912558      -13.2592993284       27.7170404374  SOLV      5894            0.0000000000
     17801      5905  TIP3      H1             13.4382500427      -12.9386774557       28.4212146607  SOLV      5894            0.0000000000
     17802      5905  TIP3      H2             13.6415034811      -12.8157668503       26.9264523036  SOLV      5894            0.0000000000
     17803      5906  TIP3      OH2            20.2623430126      -12.4426676867       20.2258027585  SOLV      5895            0.0000000000
     17804      5906  TIP3      H1             19.7593900520      -13.2098620397       20.5833510993  SOLV      5895            0.0000000000
     17805      5906  TIP3      H2             21.0306693912      -12.9013561429       19.8308294193  SOLV      5895            0.0000000000
     17806      5907  TIP3      OH2            24.5558068623      -11.9947894495       19.2920803602  SOLV      5896            0.0000000000
     17807      5907  TIP3      H1             24.9842449517      -12.6327878273       19.8969702538  SOLV      5896            0.0000000000
     17808      5907  TIP3      H2             25.1250331821      -12.0338945459       18.4971572757  SOLV      5896            0.0000000000
     17809      5908  TIP3      OH2            16.7509322616      -17.3322489562       22.4341936373  SOLV      5897            0.0000000000
     17810      5908  TIP3      H1             17.3127435719      -17.6664740447       23.1600430487  SOLV      5897            0.0000000000
     17811      5908  TIP3      H2             17.4195770442      -17.2846112621       21.7145011944  SOLV      5897            0.0000000000
     17812      5909  TIP3      OH2            21.6976438543      -15.2350444613       20.4281383927  SOLV      5898            0.0000000000
     17813      5909  TIP3      H1             21.8346322562      -15.1366923045       21.3903777079  SOLV      5898            0.0000000000
     17814      5909  TIP3      H2             21.7612149288      -16.2128513882       20.3410763862  SOLV      5898            0.0000000000
     17815      5910  TIP3      OH2            18.7227390318      -18.1395902231       24.5638195376  SOLV      5899            0.0000000000
     17816      5910  TIP3      H1             18.4811640814      -18.4545877602       25.4604923966  SOLV      5899            0.0000000000
     17817      5910  TIP3      H2             19.0373549421      -18.9670213774       24.1384216776  SOLV      5899            0.0000000000
     17818      5911  TIP3      OH2            19.6302136119      -20.1681253406       22.9999818961  SOLV      5900            0.0000000000
     17819      5911  TIP3      H1             19.3620291511      -20.1791685922       22.0601517649  SOLV      5900            0.0000000000
     17820      5911  TIP3      H2             20.5857684277      -19.9746523531       22.9079521438  SOLV      5900            0.0000000000
     17821      5912  TIP3      OH2            28.0605463277      -17.0604207808       19.3452322966  SOLV      5901            0.0000000000
     17822      5912  TIP3      H1             27.7295730123      -17.3708597445       18.4866851691  SOLV      5901            0.0000000000
     17823      5912  TIP3      H2             27.8186398994      -16.1056762257       19.2841248522  SOLV      5901            0.0000000000
     17824      5913  TIP3      OH2            17.8072966765       -9.8887089246       21.7142139067  SOLV      5902            0.0000000000
     17825      5913  TIP3      H1             18.7847203916       -9.8248202918       21.7728040594  SOLV      5902            0.0000000000
     17826      5913  TIP3      H2             17.5701406708       -9.0029451063       21.3942912645  SOLV      5902            0.0000000000
     17827      5914  TIP3      OH2            12.7078354751      -15.8041995160       24.1633341637  SOLV      5903            0.0000000000
     17828      5914  TIP3      H1             13.6648408454      -15.6141240081       24.0460671597  SOLV      5903            0.0000000000
     17829      5914  TIP3      H2             12.6399317376      -16.7032194334       23.7737542232  SOLV      5903            0.0000000000
     17830      5915  TIP3      OH2            11.8798525791       -9.7180880873       28.3215316526  SOLV      5904            0.0000000000
     17831      5915  TIP3      H1             11.2110917097      -10.3266430781       27.9382943483  SOLV      5904            0.0000000000
     17832      5915  TIP3      H2             12.3210704618      -10.3183501771       28.9609385602  SOLV      5904            0.0000000000
     17833      5916  TIP3      OH2            13.2731347175      -11.2423443835       30.0815257596  SOLV      5905            0.0000000000
     17834      5916  TIP3      H1             13.2689629946      -11.9258753242       30.7889884896  SOLV      5905            0.0000000000
     17835      5916  TIP3      H2             13.6826358705      -10.5190942170       30.5899226068  SOLV      5905            0.0000000000
     17836      5917  TIP3      OH2            25.9846700573       -8.9593595861       24.7114090912  SOLV      5906            0.0000000000
     17837      5917  TIP3      H1             26.5935374347       -8.9821185567       23.9355431240  SOLV      5906            0.0000000000
     17838      5917  TIP3      H2             26.1632548936       -8.0539626879       25.0527862128  SOLV      5906            0.0000000000
     17839      5918  TIP3      OH2            15.9147299960       -7.7495028204       33.8600579872  SOLV      5907            0.0000000000
     17840      5918  TIP3      H1             15.0641672386       -7.3801896282       33.5697051907  SOLV      5907            0.0000000000
     17841      5918  TIP3      H2             15.8219526773       -7.5946236201       34.8224234325  SOLV      5907            0.0000000000
     17842      5919  TIP3      OH2            18.5198207454       -7.6258283912       32.7598178563  SOLV      5908            0.0000000000
     17843      5919  TIP3      H1             17.6675624296       -7.7518434502       33.2271133992  SOLV      5908            0.0000000000
     17844      5919  TIP3      H2             18.1976893592       -7.3027798851       31.8962792521  SOLV      5908            0.0000000000
     17845      5920  TIP3      OH2            14.9564636287       -9.5823363970       31.6024784050  SOLV      5909            0.0000000000
     17846      5920  TIP3      H1             15.3412147087       -9.6511100137       32.5012025645  SOLV      5909            0.0000000000
     17847      5920  TIP3      H2             15.6149788898      -10.1163003340       31.1130617125  SOLV      5909            0.0000000000
     17848      5921  TIP3      OH2            16.8339370394      -11.0922088967       30.2850342455  SOLV      5910            0.0000000000
     17849      5921  TIP3      H1             17.0149570391      -11.7048856542       31.0058023953  SOLV      5910            0.0000000000
     17850      5921  TIP3      H2             17.7021627589      -10.6174972637       30.2287440113  SOLV      5910            0.0000000000
     17851      5922  TIP3      OH2            19.3114751886      -10.0426767546       30.3076100478  SOLV      5911            0.0000000000
     17852      5922  TIP3      H1             19.9984734594      -10.6886773551       30.1257023005  SOLV      5911            0.0000000000
     17853      5922  TIP3      H2             19.7473914517       -9.5387874554       31.0246434860  SOLV      5911            0.0000000000
     17854      5923  TIP3      OH2            12.8288789108      -11.8972281286       25.6794578454  SOLV      5912            0.0000000000
     17855      5923  TIP3      H1             11.9646363021      -12.2018169694       25.3396752305  SOLV      5912            0.0000000000
     17856      5923  TIP3      H2             12.7619238940      -10.9528755630       25.4479649913  SOLV      5912            0.0000000000
     17857      5924  TIP3      OH2            20.5210802103      -10.0416048885       21.4987298693  SOLV      5913            0.0000000000
     17858      5924  TIP3      H1             21.4263518967       -9.8286519365       21.1785529489  SOLV      5913            0.0000000000
     17859      5924  TIP3      H2             20.3766763555      -10.8578403311       20.9656409365  SOLV      5913            0.0000000000
     17860      5925  TIP3      OH2            27.6038884270       -8.9429902902       22.5283612218  SOLV      5914            0.0000000000
     17861      5925  TIP3      H1             27.5704526236       -9.8969487498       22.2865406246  SOLV      5914            0.0000000000
     17862      5925  TIP3      H2             27.3119562993       -8.5322222651       21.6936629303  SOLV      5914            0.0000000000
     17863      5926  TIP3      OH2            13.5500751981      -11.5086570271       22.0816204897  SOLV      5915            0.0000000000
     17864      5926  TIP3      H1             13.2921512053      -11.1852056040       22.9567170891  SOLV      5915            0.0000000000
     17865      5926  TIP3      H2             14.3147928267      -12.0626676268       22.2782105618  SOLV      5915            0.0000000000
     17866      5927  TIP3      OH2            30.7360862591       -9.5627672059       20.4358007765  SOLV      5916            0.0000000000
     17867      5927  TIP3      H1             29.8082993480       -9.6275845468       20.1313821963  SOLV      5916            0.0000000000
     17868      5927  TIP3      H2             30.7606049763       -8.6274207738       20.6846342455  SOLV      5916            0.0000000000
     17869      5928  TIP3      OH2            31.5384867222       -8.8909867644       17.0270442615  SOLV      5917            0.0000000000
     17870      5928  TIP3      H1             31.4772806855       -8.6326467388       17.9571993064  SOLV      5917            0.0000000000
     17871      5928  TIP3      H2             32.3752706972       -9.3988730948       16.9872543575  SOLV      5917            0.0000000000
     17872      5929  TIP3      OH2           -11.4816100471        0.7281656266       26.0602288245  SOLV      5918            0.0000000000
     17873      5929  TIP3      H1            -11.4069019989        1.6893092754       25.8655445352  SOLV      5918            0.0000000000
     17874      5929  TIP3      H2            -10.5580995616        0.4324969147       25.9099518155  SOLV      5918            0.0000000000
     17875      5930  TIP3      OH2           -18.2677477590        4.2510293962       30.0641514015  SOLV      5919            0.0000000000
     17876      5930  TIP3      H1            -18.6584760524        4.0732392310       29.1912692506  SOLV      5919            0.0000000000
     17877      5930  TIP3      H2            -18.6648892105        5.1040690121       30.2982210661  SOLV      5919            0.0000000000
     17878      5931  TIP3      OH2           -16.3278744396        2.9097368440       27.1636866409  SOLV      5920            0.0000000000
     17879      5931  TIP3      H1            -15.7611803442        2.2067551657       26.7747805403  SOLV      5920            0.0000000000
     17880      5931  TIP3      H2            -15.9353586567        2.9988773588       28.0586213555  SOLV      5920            0.0000000000
     17881      5932  TIP3      OH2           -15.6862591785        3.4304771977       29.8453594666  SOLV      5921            0.0000000000
     17882      5932  TIP3      H1            -16.6300925532        3.6388595996       30.0193607940  SOLV      5921            0.0000000000
     17883      5932  TIP3      H2            -15.3569264737        3.3557319992       30.7601407761  SOLV      5921            0.0000000000
     17884      5933  TIP3      OH2           -14.0920967629       -4.9680781925       27.3640209202  SOLV      5922            0.0000000000
     17885      5933  TIP3      H1            -14.2818299158       -5.1461219453       26.4284293241  SOLV      5922            0.0000000000
     17886      5933  TIP3      H2            -13.2109390497       -4.5597528750       27.3154742411  SOLV      5922            0.0000000000
     17887      5934  TIP3      OH2            -8.9817347372       -6.7010294859       29.3267301872  SOLV      5923            0.0000000000
     17888      5934  TIP3      H1             -9.7287768617       -7.0822040487       28.8151124442  SOLV      5923            0.0000000000
     17889      5934  TIP3      H2             -9.0576377551       -5.7717196162       29.0426210744  SOLV      5923            0.0000000000
     17890      5935  TIP3      OH2           -12.1070756746        1.3849731289       28.6823537948  SOLV      5924            0.0000000000
     17891      5935  TIP3      H1            -12.4731915721        0.6159671682       29.1372990630  SOLV      5924            0.0000000000
     17892      5935  TIP3      H2            -11.9420309509        1.0369033680       27.7843402533  SOLV      5924            0.0000000000
     17893      5936  TIP3      OH2           -14.5720645056       -1.1480898928       27.6337986801  SOLV      5925            0.0000000000
     17894      5936  TIP3      H1            -13.9411404113       -1.4290290865       28.3384888602  SOLV      5925            0.0000000000
     17895      5936  TIP3      H2            -15.4119381752       -1.2599926600       28.0997736145  SOLV      5925            0.0000000000
     17896      5937  TIP3      OH2           -11.2022887759        3.4762002128       25.8480999240  SOLV      5926            0.0000000000
     17897      5937  TIP3      H1            -10.8347832912        4.1766312737       25.2844917668  SOLV      5926            0.0000000000
     17898      5937  TIP3      H2            -12.0007224702        3.9436271031       26.1746893626  SOLV      5926            0.0000000000
     17899      5938  TIP3      OH2           -12.8112783613       -1.7404147396       29.6281216596  SOLV      5927            0.0000000000
     17900      5938  TIP3      H1            -13.0146546163       -2.0687474442       30.5159179543  SOLV      5927            0.0000000000
     17901      5938  TIP3      H2            -11.8503939793       -1.9248187170       29.5804283371  SOLV      5927            0.0000000000
     17902      5939  TIP3      OH2           -20.8704859253       -1.4328356632       27.6579162197  SOLV      5928            0.0000000000
     17903      5939  TIP3      H1            -20.6011399060       -2.2185462594       27.1702268398  SOLV      5928            0.0000000000
     17904      5939  TIP3      H2            -20.8045229923       -1.7223168636       28.5803084640  SOLV      5928            0.0000000000
     17905      5940  TIP3      OH2           -18.8166027450        1.2157282183       29.9869902877  SOLV      5929            0.0000000000
     17906      5940  TIP3      H1            -19.7831985637        1.0685902466       30.1277820842  SOLV      5929            0.0000000000
     17907      5940  TIP3      H2            -18.8278416578        1.8919218622       29.2983329608  SOLV      5929            0.0000000000
     17908      5941  TIP3      OH2           -19.2612716597        0.5437281580       26.7285461007  SOLV      5930            0.0000000000
     17909      5941  TIP3      H1            -19.8069651515       -0.1619671721       27.1430264761  SOLV      5930            0.0000000000
     17910      5941  TIP3      H2            -18.5337024728        0.0240390070       26.3354401056  SOLV      5930            0.0000000000
     17911      5942  TIP3      OH2           -14.9363010614        0.9593363238       25.8552477655  SOLV      5931            0.0000000000
     17912      5942  TIP3      H1            -14.5352852407        0.2992660470       26.4552258267  SOLV      5931            0.0000000000
     17913      5942  TIP3      H2            -14.3550628176        0.9222997533       25.0699410921  SOLV      5931            0.0000000000
     17914      5943  TIP3      OH2           -17.7740092346       -2.2319941799       27.1214612893  SOLV      5932            0.0000000000
     17915      5943  TIP3      H1            -17.6238650334       -1.9194354479       28.0355248898  SOLV      5932            0.0000000000
     17916      5943  TIP3      H2            -17.6600282986       -3.1966220453       27.2092709106  SOLV      5932            0.0000000000
     17917      5944  TIP3      OH2           -11.6055867234       -4.0074388027       26.3386946112  SOLV      5933            0.0000000000
     17918      5944  TIP3      H1            -11.7733651211       -4.4345510421       25.4777122194  SOLV      5933            0.0000000000
     17919      5944  TIP3      H2            -11.9089371649       -3.0965157522       26.1179482088  SOLV      5933            0.0000000000
     17920      5945  TIP3      OH2           -21.4781836700        3.5631357727       28.6456963639  SOLV      5934            0.0000000000
     17921      5945  TIP3      H1            -20.6049739696        3.3101870286       28.2941105433  SOLV      5934            0.0000000000
     17922      5945  TIP3      H2            -21.8665598067        3.9336808228       27.8287902856  SOLV      5934            0.0000000000
     17923      5946  TIP3      OH2           -10.0451749642       -2.1095906966       29.7608392587  SOLV      5935            0.0000000000
     17924      5946  TIP3      H1             -9.4248091016       -1.4894882189       29.3171290753  SOLV      5935            0.0000000000
     17925      5946  TIP3      H2             -9.6502030468       -2.1553570882       30.6389275748  SOLV      5935            0.0000000000
     17926      5947  TIP3      OH2            -9.5168063631       -4.2562865195       28.0932990880  SOLV      5936            0.0000000000
     17927      5947  TIP3      H1            -10.2666239314       -4.2565195766       27.4565370431  SOLV      5936            0.0000000000
     17928      5947  TIP3      H2             -9.7980621026       -3.5401230402       28.6950836978  SOLV      5936            0.0000000000
     17929      5948  TIP3      OH2           -10.9106640761       -7.5395548307       27.5712889410  SOLV      5937            0.0000000000
     17930      5948  TIP3      H1            -11.2711584539       -7.0314157314       26.8398345071  SOLV      5937            0.0000000000
     17931      5948  TIP3      H2            -11.1872709953       -8.4484474380       27.3443230413  SOLV      5937            0.0000000000
     17932      5949  TIP3      OH2           -11.3141574540      -10.2670045043       27.2436673608  SOLV      5938            0.0000000000
     17933      5949  TIP3      H1            -10.3396371249      -10.3253239237       27.3275261913  SOLV      5938            0.0000000000
     17934      5949  TIP3      H2            -11.5611775016      -10.6576217305       28.0951266658  SOLV      5938            0.0000000000
     17935      5950  TIP3      OH2            -8.7761402787      -10.6582946291       28.4706423806  SOLV      5939            0.0000000000
     17936      5950  TIP3      H1             -8.1690496744      -11.4157831135       28.3708041547  SOLV      5939            0.0000000000
     17937      5950  TIP3      H2             -8.1320321950       -9.9338137481       28.5547714572  SOLV      5939            0.0000000000
     17938      5951  TIP3      OH2           -12.3338814966        4.5314325224       31.6225935679  SOLV      5940            0.0000000000
     17939      5951  TIP3      H1            -12.2891873185        4.2936956732       30.6720771126  SOLV      5940            0.0000000000
     17940      5951  TIP3      H2            -12.4731730944        5.4869833830       31.5580403228  SOLV      5940            0.0000000000
     17941      5952  TIP3      OH2           -18.9843831604        2.9999168935       27.7358150309  SOLV      5941            0.0000000000
     17942      5952  TIP3      H1            -18.0620796873        3.1417764431       27.4256380088  SOLV      5941            0.0000000000
     17943      5952  TIP3      H2            -19.1716932757        2.1539794648       27.2667996633  SOLV      5941            0.0000000000
     17944      5953  TIP3      OH2           -11.7401395689        4.0842450423       29.0044270822  SOLV      5942            0.0000000000
     17945      5953  TIP3      H1            -11.8647097928        3.1131734769       28.8845833505  SOLV      5942            0.0000000000
     17946      5953  TIP3      H2            -12.2470583241        4.4332278842       28.2423590596  SOLV      5942            0.0000000000
     17947      5954  TIP3      OH2             3.1062152740       -0.7341671973       28.5638591952  SOLV      5943            0.0000000000
     17948      5954  TIP3      H1              2.8250153942        0.1884410774       28.3847025074  SOLV      5943            0.0000000000
     17949      5954  TIP3      H2              2.2953571555       -1.2053979404       28.3321706241  SOLV      5943            0.0000000000
     17950      5955  TIP3      OH2             3.1021475393       -0.6205788995       32.3960921788  SOLV      5944            0.0000000000
     17951      5955  TIP3      H1              3.3361207268       -0.8548940800       33.3074307570  SOLV      5944            0.0000000000
     17952      5955  TIP3      H2              2.8541150470       -1.4743913131       32.0156313241  SOLV      5944            0.0000000000
     17953      5956  TIP3      OH2             5.5692295622        2.3622106250       29.3025005310  SOLV      5945            0.0000000000
     17954      5956  TIP3      H1              5.5112857002        1.7218876060       30.0238862661  SOLV      5945            0.0000000000
     17955      5956  TIP3      H2              5.8932709096        3.1563898273       29.7695212008  SOLV      5945            0.0000000000
     17956      5957  TIP3      OH2             2.0768393205        6.9063007826       29.4337418218  SOLV      5946            0.0000000000
     17957      5957  TIP3      H1              2.4924216615        6.1996360620       28.8994579349  SOLV      5946            0.0000000000
     17958      5957  TIP3      H2              2.1459881132        6.5434944765       30.3239899761  SOLV      5946            0.0000000000
     17959      5958  TIP3      OH2             1.1576417374        1.5047066483       32.7002428821  SOLV      5947            0.0000000000
     17960      5958  TIP3      H1              1.6711476369        0.7331456672       32.3995981509  SOLV      5947            0.0000000000
     17961      5958  TIP3      H2              1.8903456978        2.0921993412       32.9412774209  SOLV      5947            0.0000000000
     17962      5959  TIP3      OH2            11.4669457927       -5.1853388226       32.7629581779  SOLV      5948            0.0000000000
     17963      5959  TIP3      H1             11.6367383075       -4.3952120837       33.3188856263  SOLV      5948            0.0000000000
     17964      5959  TIP3      H2             11.7154133327       -4.8483603390       31.8823768194  SOLV      5948            0.0000000000
     17965      5960  TIP3      OH2             5.9506065259       -4.0922705523       33.0480653281  SOLV      5949            0.0000000000
     17966      5960  TIP3      H1              5.4610687146       -3.7033943232       33.7540846505  SOLV      5949            0.0000000000
     17967      5960  TIP3      H2              5.3150865340       -4.0017412290       32.3059482812  SOLV      5949            0.0000000000
     17968      5961  TIP3      OH2             5.6371196409       -5.8875010138       29.1568257814  SOLV      5950            0.0000000000
     17969      5961  TIP3      H1              6.3233749891       -6.0446365040       29.8519157003  SOLV      5950            0.0000000000
     17970      5961  TIP3      H2              6.1975906996       -5.5520145260       28.4350367079  SOLV      5950            0.0000000000
     17971      5962  TIP3      OH2            -0.7237151778       -2.8366365581       31.4776557617  SOLV      5951            0.0000000000
     17972      5962  TIP3      H1              0.2391874641       -2.9731984315       31.6331959685  SOLV      5951            0.0000000000
     17973      5962  TIP3      H2             -0.9665391669       -3.6138638462       30.9570542476  SOLV      5951            0.0000000000
     17974      5963  TIP3      OH2            12.0289548236       -3.1288638404       34.5364924691  SOLV      5952            0.0000000000
     17975      5963  TIP3      H1             11.1591407737       -2.7215984331       34.3478158008  SOLV      5952            0.0000000000
     17976      5963  TIP3      H2             12.0327100817       -3.0627343787       35.5241431901  SOLV      5952            0.0000000000
     17977      5964  TIP3      OH2             1.8058558886        1.4048273093       27.3317316295  SOLV      5953            0.0000000000
     17978      5964  TIP3      H1              1.7239090585        1.4831200817       26.3769142160  SOLV      5953            0.0000000000
     17979      5964  TIP3      H2              1.4595114217        2.2766286716       27.6173528284  SOLV      5953            0.0000000000
     17980      5965  TIP3      OH2             7.6835287607       -5.8369466526       30.9580940322  SOLV      5954            0.0000000000
     17981      5965  TIP3      H1              7.9217666945       -6.1600097922       31.8448211492  SOLV      5954            0.0000000000
     17982      5965  TIP3      H2              8.0532922942       -4.9367753579       31.0493557305  SOLV      5954            0.0000000000
     17983      5966  TIP3      OH2            -8.1883556120       -0.4342366485       28.5165906878  SOLV      5955            0.0000000000
     17984      5966  TIP3      H1             -8.5494254232       -0.1739131862       27.6501413053  SOLV      5955            0.0000000000
     17985      5966  TIP3      H2             -7.8662470575        0.4152973209       28.8720470112  SOLV      5955            0.0000000000
     17986      5967  TIP3      OH2             6.1757919814        4.7540533237       30.8041400396  SOLV      5956            0.0000000000
     17987      5967  TIP3      H1              5.2699129055        4.7415197821       31.1851931566  SOLV      5956            0.0000000000
     17988      5967  TIP3      H2              6.1964382862        5.6537417209       30.4164707458  SOLV      5956            0.0000000000
     17989      5968  TIP3      OH2             8.9278112786       -6.1388393732       33.4534042694  SOLV      5957            0.0000000000
     17990      5968  TIP3      H1              9.0491526689       -5.5667101714       34.2257850313  SOLV      5957            0.0000000000
     17991      5968  TIP3      H2              9.7996353689       -6.0107949160       33.0301300401  SOLV      5957            0.0000000000
     17992      5969  TIP3      OH2             3.1858812300        5.2014951927       27.5602717309  SOLV      5958            0.0000000000
     17993      5969  TIP3      H1              3.7037479584        4.3810675390       27.3752420573  SOLV      5958            0.0000000000
     17994      5969  TIP3      H2              3.8091593717        5.8677744523       27.1909475844  SOLV      5958            0.0000000000
     17995      5970  TIP3      OH2             4.5920855431        3.0022923880       26.7925829505  SOLV      5959            0.0000000000
     17996      5970  TIP3      H1              4.5913124866        2.1768753880       26.2918341375  SOLV      5959            0.0000000000
     17997      5970  TIP3      H2              5.0020960939        2.7253761258       27.6441876440  SOLV      5959            0.0000000000
     17998      5971  TIP3      OH2             8.5437152231        3.9483530070       34.5894365368  SOLV      5960            0.0000000000
     17999      5971  TIP3      H1              8.4206761560        3.1606769660       34.0355257593  SOLV      5960            0.0000000000
     18000      5971  TIP3      H2              8.5134167253        4.6627127084       33.9289750490  SOLV      5960            0.0000000000
     18001      5972  TIP3      OH2             1.3194630324       -2.3269992193       26.9011969829  SOLV      5961            0.0000000000
     18002      5972  TIP3      H1              0.6137588896       -1.6783987250       26.6933482046  SOLV      5961            0.0000000000
     18003      5972  TIP3      H2              1.9101230239       -2.2329642590       26.1298412744  SOLV      5961            0.0000000000
     18004      5973  TIP3      OH2             1.1406043317       -4.3068684053       24.1612259183  SOLV      5962            0.0000000000
     18005      5973  TIP3      H1              1.8535559713       -3.7519725275       24.5418120897  SOLV      5962            0.0000000000
     18006      5973  TIP3      H2              1.6831849699       -4.9191709369       23.6190302221  SOLV      5962            0.0000000000
     18007      5974  TIP3      OH2            10.4798454009        0.2809010397       32.8494489714  SOLV      5963            0.0000000000
     18008      5974  TIP3      H1              9.6593139148        0.8194440168       32.8841631115  SOLV      5963            0.0000000000
     18009      5974  TIP3      H2             10.7861511519        0.5023665511       31.9396061158  SOLV      5963            0.0000000000
     18010      5975  TIP3      OH2             4.9108053368       -1.3728180426       26.6281915529  SOLV      5964            0.0000000000
     18011      5975  TIP3      H1              4.3818362716       -1.1134112743       27.4193960828  SOLV      5964            0.0000000000
     18012      5975  TIP3      H2              5.7603645031       -1.6161748749       27.0584227096  SOLV      5964            0.0000000000
     18013      5976  TIP3      OH2            -2.9367915953       -1.4243222166       30.9354040627  SOLV      5965            0.0000000000
     18014      5976  TIP3      H1             -3.1434518112       -2.0160228465       30.2054507370  SOLV      5965            0.0000000000
     18015      5976  TIP3      H2             -2.0527462089       -1.7620151718       31.2197726417  SOLV      5965            0.0000000000
     18016      5977  TIP3      OH2            -1.3174252236        2.9762754378       32.2035223100  SOLV      5966            0.0000000000
     18017      5977  TIP3      H1             -1.7075937197        2.2539697900       31.7019370966  SOLV      5966            0.0000000000
     18018      5977  TIP3      H2             -0.4740419474        2.5674603380       32.4840682698  SOLV      5966            0.0000000000
     18019      5978  TIP3      OH2             3.7512659644        4.8545135329       32.0286462236  SOLV      5967            0.0000000000
     18020      5978  TIP3      H1              3.6637032993        5.6480793250       32.5936370376  SOLV      5967            0.0000000000
     18021      5978  TIP3      H2              3.7144475236        4.1104367518       32.6636028646  SOLV      5967            0.0000000000
     18022      5979  TIP3      OH2             3.2596299772       -2.7156351510       24.9270177352  SOLV      5968            0.0000000000
     18023      5979  TIP3      H1              3.8897017124       -2.1453538194       25.4267511806  SOLV      5968            0.0000000000
     18024      5979  TIP3      H2              3.5393966817       -2.5234899791       23.9975835146  SOLV      5968            0.0000000000
     18025      5980  TIP3      OH2             0.7343218107        3.9842729850       27.6244837428  SOLV      5969            0.0000000000
     18026      5980  TIP3      H1              1.5819586208        4.4562713719       27.7259863726  SOLV      5969            0.0000000000
     18027      5980  TIP3      H2              0.1747192014        4.6685639918       27.2316738414  SOLV      5969            0.0000000000
     18028      5981  TIP3      OH2             8.4641233027      -10.4050825553       25.4135462005  SOLV      5970            0.0000000000
     18029      5981  TIP3      H1              7.6548086289      -10.1784141045       25.9188074087  SOLV      5970            0.0000000000
     18030      5981  TIP3      H2              8.6031584082       -9.5763164133       24.9086137766  SOLV      5970            0.0000000000
     18031      5982  TIP3      OH2             6.4810708747        3.2921570800       20.9203496848  SOLV      5971            0.0000000000
     18032      5982  TIP3      H1              6.5561841054        4.2572759743       20.7531263252  SOLV      5971            0.0000000000
     18033      5982  TIP3      H2              7.4070555149        3.0040812492       20.7630998042  SOLV      5971            0.0000000000
     18034      5983  TIP3      OH2            -0.4347448046        6.4020764378       25.7440229771  SOLV      5972            0.0000000000
     18035      5983  TIP3      H1             -0.8543412682        6.2616973162       24.8759571182  SOLV      5972            0.0000000000
     18036      5983  TIP3      H2             -0.7318348429        7.3008780207       25.9776263388  SOLV      5972            0.0000000000
     18037      5984  TIP3      OH2            -6.0442442566        4.9605282499       29.5998182432  SOLV      5973            0.0000000000
     18038      5984  TIP3      H1             -5.6067008090        4.8564944538       30.4680561054  SOLV      5973            0.0000000000
     18039      5984  TIP3      H2             -6.5564946025        4.1372573647       29.5395967167  SOLV      5973            0.0000000000
     18040      5985  TIP3      OH2             1.5699576935        5.4872665059       22.0775140701  SOLV      5974            0.0000000000
     18041      5985  TIP3      H1              2.1506335439        4.7821734421       21.7163576850  SOLV      5974            0.0000000000
     18042      5985  TIP3      H2              1.9435713137        5.6070437158       22.9764852636  SOLV      5974            0.0000000000
     18043      5986  TIP3      OH2             2.0905603884        5.9975757883       24.7667001096  SOLV      5975            0.0000000000
     18044      5986  TIP3      H1              1.2245493239        6.0563298073       25.2258450055  SOLV      5975            0.0000000000
     18045      5986  TIP3      H2              2.6657188727        5.6947257116       25.4879234811  SOLV      5975            0.0000000000
     18046      5987  TIP3      OH2             4.0657569113       -2.4056223431       22.3759718363  SOLV      5976            0.0000000000
     18047      5987  TIP3      H1              3.7112141260       -2.5755445169       21.4826458844  SOLV      5976            0.0000000000
     18048      5987  TIP3      H2              4.9118627454       -1.9678106297       22.1501426045  SOLV      5976            0.0000000000
     18049      5988  TIP3      OH2             1.1544958481       -8.5378075648       25.4406544139  SOLV      5977            0.0000000000
     18050      5988  TIP3      H1              0.8228460824       -8.6215330097       26.3546704163  SOLV      5977            0.0000000000
     18051      5988  TIP3      H2              0.7855422208       -9.3568873145       25.0561255725  SOLV      5977            0.0000000000
     18052      5989  TIP3      OH2            -2.2173416608       -5.0223520931       30.3578490010  SOLV      5978            0.0000000000
     18053      5989  TIP3      H1             -3.0391436859       -5.3360558660       30.7693094788  SOLV      5978            0.0000000000
     18054      5989  TIP3      H2             -1.7053843126       -5.8334308870       30.2969406780  SOLV      5978            0.0000000000
     18055      5990  TIP3      OH2             2.7267552134       -4.2880629488       28.2545511547  SOLV      5979            0.0000000000
     18056      5990  TIP3      H1              2.2793852395       -3.5397470393       27.8032336680  SOLV      5979            0.0000000000
     18057      5990  TIP3      H2              3.3545500924       -4.5859135394       27.5644597996  SOLV      5979            0.0000000000
     18058      5991  TIP3      OH2             4.2916216390       -3.8835148903       30.6009193132  SOLV      5980            0.0000000000
     18059      5991  TIP3      H1              3.7370390165       -3.6678055344       29.8288865162  SOLV      5980            0.0000000000
     18060      5991  TIP3      H2              4.7288135414       -4.6868285994       30.2461829867  SOLV      5980            0.0000000000
     18061      5992  TIP3      OH2            -2.1222063407       -8.7186524133       24.9316186154  SOLV      5981            0.0000000000
     18062      5992  TIP3      H1             -2.3643531788       -8.8296565327       25.8780991068  SOLV      5981            0.0000000000
     18063      5992  TIP3      H2             -2.9471902535       -8.3297067275       24.5949092106  SOLV      5981            0.0000000000
     18064      5993  TIP3      OH2            -6.9855741907       -8.4569764252       28.9001131178  SOLV      5982            0.0000000000
     18065      5993  TIP3      H1             -6.5791423519       -8.1246346253       28.0614593427  SOLV      5982            0.0000000000
     18066      5993  TIP3      H2             -7.6612339185       -7.7461400673       29.0019694858  SOLV      5982            0.0000000000
     18067      5994  TIP3      OH2             0.9272893614       -6.6900906575       31.7779301114  SOLV      5983            0.0000000000
     18068      5994  TIP3      H1              0.6123108338       -6.7035821953       32.6884680163  SOLV      5983            0.0000000000
     18069      5994  TIP3      H2              1.8836066233       -6.6667988338       31.9604900233  SOLV      5983            0.0000000000
     18070      5995  TIP3      OH2            -3.1994139944       -6.1712949294       26.4056582343  SOLV      5984            0.0000000000
     18071      5995  TIP3      H1             -3.9642408526       -5.4344737839       27.0210199595  SOLV      5984            0.0000000000
     18072      5995  TIP3      H2             -4.1700754057       -5.9628092044       25.6874290401  SOLV      5984            0.0000000000
     18073      5996  TIP3      OH2             1.8382895586       -3.6395493115       31.9768637688  SOLV      5985            0.0000000000
     18074      5996  TIP3      H1              2.7069419858       -3.7686765892       31.5535403085  SOLV      5985            0.0000000000
     18075      5996  TIP3      H2              1.9779952573       -4.1487892167       32.7947774572  SOLV      5985            0.0000000000
     18076      5997  TIP3      OH2            -2.3432537277       -9.3860994267       30.3117689051  SOLV      5986            0.0000000000
     18077      5997  TIP3      H1             -2.5213939860       -8.8550978292       31.1274351016  SOLV      5986            0.0000000000
     18078      5997  TIP3      H2             -1.3978577598       -9.5636630251       30.4056070537  SOLV      5986            0.0000000000
     18079      5998  TIP3      OH2            -0.8819545872       -0.6864783346       26.4415343252  SOLV      5987            0.0000000000
     18080      5998  TIP3      H1             -1.7845106052       -0.6675502464       26.1091777450  SOLV      5987            0.0000000000
     18081      5998  TIP3      H2             -1.0089133114       -0.3176687047       27.3506961521  SOLV      5987            0.0000000000
     18082      5999  TIP3      OH2             8.1375945984        1.7412451056       32.7401679365  SOLV      5988            0.0000000000
     18083      5999  TIP3      H1              8.4433396147        2.2749494103       31.9711549315  SOLV      5988            0.0000000000
     18084      5999  TIP3      H2              7.2989238060        1.3645343195       32.4068228385  SOLV      5988            0.0000000000
     18085      6000  TIP3      OH2             3.6927940449       -7.5649931223       25.1255568280  SOLV      5989            0.0000000000
     18086      6000  TIP3      H1              2.7285098640       -7.7456967375       25.2132850763  SOLV      5989            0.0000000000
     18087      6000  TIP3      H2              3.7667340860       -6.6104852933       25.3214092367  SOLV      5989            0.0000000000
     18088      6001  TIP3      OH2             4.3869719689       -5.0401458250       26.1193300350  SOLV      5990            0.0000000000
     18089      6001  TIP3      H1              5.3525281797       -5.0067193830       26.2879433798  SOLV      5990            0.0000000000
     18090      6001  TIP3      H2              4.2413997659       -4.2327547126       25.5933002936  SOLV      5990            0.0000000000
     18091      6002  TIP3      OH2             0.6074668976        0.8439345379       24.6371038214  SOLV      5991            0.0000000000
     18092      6002  TIP3      H1              0.1162023407        1.6978631594       24.6920243627  SOLV      5991            0.0000000000
     18093      6002  TIP3      H2              0.1378808619        0.3118309853       25.3078267218  SOLV      5991            0.0000000000
     18094      6003  TIP3      OH2             8.7523946018       -4.1100991990       24.4503999436  SOLV      5992            0.0000000000
     18095      6003  TIP3      H1              8.1443073323       -4.5528460201       23.8122231589  SOLV      5992            0.0000000000
     18096      6003  TIP3      H2              8.7208187477       -3.2106638089       24.0527316271  SOLV      5992            0.0000000000
     18097      6004  TIP3      OH2             5.7712565026        4.0685997312       23.5279190005  SOLV      5993            0.0000000000
     18098      6004  TIP3      H1              5.5897944107        3.3408841840       24.1349998892  SOLV      5993            0.0000000000
     18099      6004  TIP3      H2              5.9648432005        3.6157078988       22.6866005835  SOLV      5993            0.0000000000
     18100      6005  TIP3      OH2             5.7531907034        0.3742162177       31.8266769774  SOLV      5994            0.0000000000
     18101      6005  TIP3      H1              4.8150270994        0.1224576152       31.9114140322  SOLV      5994            0.0000000000
     18102      6005  TIP3      H2              6.1243619043       -0.4401192823       31.4270333983  SOLV      5994            0.0000000000
     18103      6006  TIP3      OH2            -3.1157699350        2.6360476823       29.4323486619  SOLV      5995            0.0000000000
     18104      6006  TIP3      H1             -2.9026943559        3.4727247840       28.9756044497  SOLV      5995            0.0000000000
     18105      6006  TIP3      H2             -4.0110413990        2.4818431547       29.1187218794  SOLV      5995            0.0000000000
     18106      6007  TIP3      OH2            -7.2855271847       -4.3189377387       26.4850059355  SOLV      5996            0.0000000000
     18107      6007  TIP3      H1             -6.8114153212       -3.4993036510       26.7405705103  SOLV      5996            0.0000000000
     18108      6007  TIP3      H2             -8.0532278981       -4.2724621308       27.1139510682  SOLV      5996            0.0000000000
     18109      6008  TIP3      OH2            -1.7726454220        0.2467836035       28.8324399415  SOLV      5997            0.0000000000
     18110      6008  TIP3      H1             -1.9790141389        1.1789585110       29.0395043005  SOLV      5997            0.0000000000
     18111      6008  TIP3      H2             -2.0240215796       -0.1813416527       29.6651902643  SOLV      5997            0.0000000000
     18112      6009  TIP3      OH2            -0.5161695678        6.5591056892       33.7779680946  SOLV      5998            0.0000000000
     18113      6009  TIP3      H1              0.2128268280        7.0318702511       33.3410858317  SOLV      5998            0.0000000000
     18114      6009  TIP3      H2             -0.0436071005        5.9105100519       34.3440429833  SOLV      5998            0.0000000000
     18115      6010  TIP3      OH2            -3.7594292166        5.0247483184       27.9487649340  SOLV      5999            0.0000000000
     18116      6010  TIP3      H1             -4.6089766456        5.1583018947       28.4077480791  SOLV      5999            0.0000000000
     18117      6010  TIP3      H2             -3.3903086423        5.9375134278       27.9813160559  SOLV      5999            0.0000000000
     18118      6011  TIP3      OH2             3.7707407868        2.5330668575       33.5844844016  SOLV      6000            0.0000000000
     18119      6011  TIP3      H1              3.3943712044        2.3365876571       34.4715943695  SOLV      6000            0.0000000000
     18120      6011  TIP3      H2              4.4829215882        1.8848769617       33.5100459480  SOLV      6000            0.0000000000
     18121      6012  TIP3      OH2             3.4471440366        1.3308475668       22.5988417800  SOLV      6001            0.0000000000
     18122      6012  TIP3      H1              3.9808082032        1.1059985358       23.3939024148  SOLV      6001            0.0000000000
     18123      6012  TIP3      H2              2.5629388418        1.0699738735       22.8931986527  SOLV      6001            0.0000000000
     18124      6013  TIP3      OH2             6.7663846129        6.0546428731       20.7207719651  SOLV      6002            0.0000000000
     18125      6013  TIP3      H1              7.1539116748        6.8098711199       20.2465621481  SOLV      6002            0.0000000000
     18126      6013  TIP3      H2              5.9664866025        6.4911444905       21.0816476104  SOLV      6002            0.0000000000
     18127      6014  TIP3      OH2             5.0360090568        0.7015919066       24.7869191696  SOLV      6003            0.0000000000
     18128      6014  TIP3      H1              4.9582049878       -0.0190771486       25.4449783381  SOLV      6003            0.0000000000
     18129      6014  TIP3      H2              5.9992637011        0.6576609413       24.6002817985  SOLV      6003            0.0000000000
     18130      6015  TIP3      OH2            -2.9626328058        1.1441494427       22.5939078271  SOLV      6004            0.0000000000
     18131      6015  TIP3      H1             -2.8381063074        0.2362092850       22.2690113380  SOLV      6004            0.0000000000
     18132      6015  TIP3      H2             -3.0915160577        1.0003099257       23.5494946779  SOLV      6004            0.0000000000
     18133      6016  TIP3      OH2            -3.3604730162        1.1808064122       25.4009506110  SOLV      6005            0.0000000000
     18134      6016  TIP3      H1             -2.7016205190        1.2626644541       26.0977872013  SOLV      6005            0.0000000000
     18135      6016  TIP3      H2             -3.5369792177        2.1375053775       25.2501854813  SOLV      6005            0.0000000000
     18136      6017  TIP3      OH2            -6.1663037222       -1.9066505598       27.1963383369  SOLV      6006            0.0000000000
     18137      6017  TIP3      H1             -6.7638625937       -1.5383218302       27.8749788841  SOLV      6006            0.0000000000
     18138      6017  TIP3      H2             -6.1211205506       -1.1515617238       26.5820765454  SOLV      6006            0.0000000000
     18139      6018  TIP3      OH2             4.2858044529       -7.9963518267       27.8517955345  SOLV      6007            0.0000000000
     18140      6018  TIP3      H1              4.1704031090       -7.7552237729       26.9107271180  SOLV      6007            0.0000000000
     18141      6018  TIP3      H2              4.6974420976       -7.1901557209       28.2302697903  SOLV      6007            0.0000000000
     18142      6019  TIP3      OH2            -0.8819283612        3.1071142837       24.7616265463  SOLV      6008            0.0000000000
     18143      6019  TIP3      H1             -1.7507695432        3.4074022305       25.0885090880  SOLV      6008            0.0000000000
     18144      6019  TIP3      H2             -0.6461283669        3.8589166985       24.1969162942  SOLV      6008            0.0000000000
     18145      6020  TIP3      OH2             0.7472989585       -6.0695106733       29.0109722361  SOLV      6009            0.0000000000
     18146      6020  TIP3      H1              1.4984732696       -5.4725481804       28.8039268727  SOLV      6009            0.0000000000
     18147      6020  TIP3      H2              0.8928175809       -6.2266743173       29.9692025156  SOLV      6009            0.0000000000
     18148      6021  TIP3      OH2             2.5921974431       -9.0154369285       29.7255209154  SOLV      6010            0.0000000000
     18149      6021  TIP3      H1              2.9989995295       -8.6808219075       30.5522399600  SOLV      6010            0.0000000000
     18150      6021  TIP3      H2              3.2098673241       -8.6213628000       29.0564455910  SOLV      6010            0.0000000000
     18151      6022  TIP3      OH2            -3.4576169701        3.8842738116       25.4369777308  SOLV      6011            0.0000000000
     18152      6022  TIP3      H1             -3.6983052906        4.5949080847       24.7972302451  SOLV      6011            0.0000000000
     18153      6022  TIP3      H2             -3.5795442929        4.3533794412       26.2913303271  SOLV      6011            0.0000000000
     18154      6023  TIP3      OH2            -2.4348289447       -9.0411305679       27.6069551302  SOLV      6012            0.0000000000
     18155      6023  TIP3      H1             -2.6474761344       -9.0693191656       28.5374374406  SOLV      6012            0.0000000000
     18156      6023  TIP3      H2             -1.4426166223       -9.0472017494       27.6628269815  SOLV      6012            0.0000000000
     18157      6024  TIP3      OH2             6.5877639603       -2.0756884952       30.6699502639  SOLV      6013            0.0000000000
     18158      6024  TIP3      H1              5.8569541542       -2.7048291447       30.7966152815  SOLV      6013            0.0000000000
     18159      6024  TIP3      H2              7.3325331349       -2.5394722878       31.1197579081  SOLV      6013            0.0000000000
     18160      6025  TIP3      OH2            -6.2366800812        0.1932228453       25.3647613637  SOLV      6014            0.0000000000
     18161      6025  TIP3      H1             -5.5844003602        0.9127084619       25.3973678223  SOLV      6014            0.0000000000
     18162      6025  TIP3      H2             -5.8328902883       -0.3636763065       24.6639150285  SOLV      6014            0.0000000000
     18163      6026  TIP3      OH2            -6.8424076445       -7.0877626219       26.6215049935  SOLV      6015            0.0000000000
     18164      6026  TIP3      H1             -6.6989267867       -6.1333605730       26.5772199294  SOLV      6015            0.0000000000
     18165      6026  TIP3      H2             -7.5908256429       -7.1937909680       26.0288404229  SOLV      6015            0.0000000000
     18166      6027  TIP3      OH2             6.3489352252        7.4549125281       30.1116757870  SOLV      6016            0.0000000000
     18167      6027  TIP3      H1              5.9162480025        7.9328093151       29.3708457472  SOLV      6016            0.0000000000
     18168      6027  TIP3      H2              7.2848355397        7.7149313644       29.9399666828  SOLV      6016            0.0000000000
     18169      6028  TIP3      OH2            -7.4892574670        2.3791133117       29.1877355528  SOLV      6017            0.0000000000
     18170      6028  TIP3      H1             -8.1860486582        2.5774638417       29.8214322442  SOLV      6017            0.0000000000
     18171      6028  TIP3      H2             -7.8440126583        2.8015508667       28.3751288240  SOLV      6017            0.0000000000
     18172      6029  TIP3      OH2            -1.3366758613        3.1603250459       21.6289822236  SOLV      6018            0.0000000000
     18173      6029  TIP3      H1             -1.8492379930        2.4198451436       22.0260282822  SOLV      6018            0.0000000000
     18174      6029  TIP3      H2             -0.5835298974        2.6817338309       21.2331798941  SOLV      6018            0.0000000000
     18175      6030  TIP3      OH2             3.0073019674        3.5109985812       20.7898423495  SOLV      6019            0.0000000000
     18176      6030  TIP3      H1              3.4694233138        2.9029168880       21.3959677163  SOLV      6019            0.0000000000
     18177      6030  TIP3      H2              3.5772856978        3.4986489067       19.9964950329  SOLV      6019            0.0000000000
     18178      6031  TIP3      OH2            -5.0085200527       -1.6341749990       23.7673371657  SOLV      6020            0.0000000000
     18179      6031  TIP3      H1             -4.6303319353       -2.2760569984       24.3738293900  SOLV      6020            0.0000000000
     18180      6031  TIP3      H2             -4.2858614916       -1.5661894840       23.0978956481  SOLV      6020            0.0000000000
     18181      6032  TIP3      OH2             0.2950492412        0.2974232815       21.9776970528  SOLV      6021            0.0000000000
     18182      6032  TIP3      H1              0.3328630184        0.4480818731       22.9443997616  SOLV      6021            0.0000000000
     18183      6032  TIP3      H2              0.3189716103       -0.6824849751       21.9410205164  SOLV      6021            0.0000000000
     18184      6033  TIP3      OH2            -1.5346931120       -4.5478816557       24.4881937030  SOLV      6022            0.0000000000
     18185      6033  TIP3      H1             -1.9598856952       -4.5074446206       23.6531854668  SOLV      6022            0.0000000000
     18186      6033  TIP3      H2             -0.5964796679       -4.4070175613       24.2090227389  SOLV      6022            0.0000000000
     18187      6034  TIP3      OH2             6.3777940545       -1.4214813477       21.2092265369  SOLV      6023            0.0000000000
     18188      6034  TIP3      H1              6.1971813909       -1.8454566339       20.3480210791  SOLV      6023            0.0000000000
     18189      6034  TIP3      H2              6.0796647414       -0.5060474241       20.9941630887  SOLV      6023            0.0000000000
     18190      6035  TIP3      OH2            -3.6716315583        5.8846168403       23.5772761739  SOLV      6024            0.0000000000
     18191      6035  TIP3      H1             -2.7185743654        5.8227668202       23.3787342873  SOLV      6024            0.0000000000
     18192      6035  TIP3      H2             -3.9595140548        6.4291434915       22.8190645045  SOLV      6024            0.0000000000
     18193      6036  TIP3      OH2            -8.9177295571       -0.2657921931       25.7185347525  SOLV      6025            0.0000000000
     18194      6036  TIP3      H1             -7.9741533570       -0.0436253115       25.5572185159  SOLV      6025            0.0000000000
     18195      6036  TIP3      H2             -8.9861860448       -1.1442733902       25.2847170785  SOLV      6025            0.0000000000
     18196      6037  TIP3      OH2            -9.7711108208        5.8857231435       29.7960619060  SOLV      6026            0.0000000000
     18197      6037  TIP3      H1            -10.4059186574        5.2738587681       29.3656236398  SOLV      6026            0.0000000000
     18198      6037  TIP3      H2             -9.2343743293        5.2665015100       30.3222100810  SOLV      6026            0.0000000000
     18199      6038  TIP3      OH2            -8.4194707179        4.3439919981       31.6599601162  SOLV      6027            0.0000000000
     18200      6038  TIP3      H1             -9.2509239321        4.1415991451       32.0999326350  SOLV      6027            0.0000000000
     18201      6038  TIP3      H2             -7.9959721845        4.9756276080       32.2880502822  SOLV      6027            0.0000000000
     18202      6039  TIP3      OH2             8.8358717289        8.4652377729       29.7066909277  SOLV      6028            0.0000000000
     18203      6039  TIP3      H1              9.1170772251        8.7160853773       30.6056794309  SOLV      6028            0.0000000000
     18204      6039  TIP3      H2              9.6186887907        8.6792739051       29.1769920103  SOLV      6028            0.0000000000
     18205      6040  TIP3      OH2             9.1057874255        8.5179261044       32.5301793985  SOLV      6029            0.0000000000
     18206      6040  TIP3      H1              8.7081224999        7.6212111550       32.5489201543  SOLV      6029            0.0000000000
     18207      6040  TIP3      H2              9.9763999073        8.3435769703       32.9027531972  SOLV      6029            0.0000000000
     18208      6041  TIP3      OH2             7.7944145118        0.4717808013       24.4501452668  SOLV      6030            0.0000000000
     18209      6041  TIP3      H1              8.4643446875        1.1254096608       24.1585153003  SOLV      6030            0.0000000000
     18210      6041  TIP3      H2              8.2482876482        0.0800566048       25.2311807742  SOLV      6030            0.0000000000
     18211      6042  TIP3      OH2             9.0602458961       -0.8976785275       26.4507005986  SOLV      6031            0.0000000000
     18212      6042  TIP3      H1              8.4476121638       -1.2613470203       27.1206010032  SOLV      6031            0.0000000000
     18213      6042  TIP3      H2              9.7844112410       -0.5204287527       27.0064596909  SOLV      6031            0.0000000000
     18214      6043  TIP3      OH2             9.6201659496        3.0608767052       30.8172236401  SOLV      6032            0.0000000000
     18215      6043  TIP3      H1             10.2070946274        2.4264616258       30.3683152997  SOLV      6032            0.0000000000
     18216      6043  TIP3      H2              9.6774890392        3.8356754431       30.2190098277  SOLV      6032            0.0000000000
     18217      6044  TIP3      OH2             7.8491730547        6.0214444754       32.7312394874  SOLV      6033            0.0000000000
     18218      6044  TIP3      H1              7.0018601062        6.3413628395       33.0578798722  SOLV      6033            0.0000000000
     18219      6044  TIP3      H2              7.5624572203        5.4991131263       31.9569158796  SOLV      6033            0.0000000000
     18220      6045  TIP3      OH2             8.4358657629       -1.7785785722       22.9747755736  SOLV      6034            0.0000000000
     18221      6045  TIP3      H1              7.7058288823       -1.7371076711       22.3158373271  SOLV      6034            0.0000000000
     18222      6045  TIP3      H2              8.1987368559       -1.0041416515       23.5262071698  SOLV      6034            0.0000000000
     18223      6046  TIP3      OH2             7.1264302941       -5.0719736702       22.4943686629  SOLV      6035            0.0000000000
     18224      6046  TIP3      H1              6.6868215770       -4.6918985969       21.7265011216  SOLV      6035            0.0000000000
     18225      6046  TIP3      H2              6.9180747558       -6.0239006668       22.3767507638  SOLV      6035            0.0000000000
     18226      6047  TIP3      OH2             7.1523388027       -2.2687216269       27.9793087037  SOLV      6036            0.0000000000
     18227      6047  TIP3      H1              7.3103537040       -3.2240096054       27.9538434427  SOLV      6036            0.0000000000
     18228      6047  TIP3      H2              7.0331986241       -2.1022196408       28.9408058320  SOLV      6036            0.0000000000
     18229      6048  TIP3      OH2             6.5901974671       -7.7476406961       22.2896888971  SOLV      6037            0.0000000000
     18230      6048  TIP3      H1              7.2925522042       -8.0495568454       22.8994547182  SOLV      6037            0.0000000000
     18231      6048  TIP3      H2              5.8282478959       -8.3048643731       22.5196050469  SOLV      6037            0.0000000000
     18232      6049  TIP3      OH2             7.1552819534       -5.1308952933       26.8632994323  SOLV      6038            0.0000000000
     18233      6049  TIP3      H1              7.5954549286       -6.0035238224       26.9960425029  SOLV      6038            0.0000000000
     18234      6049  TIP3      H2              7.7326798072       -4.7532317783       26.1750499084  SOLV      6038            0.0000000000
     18235      6050  TIP3      OH2             8.7906181987       -3.3734032849       31.6494561706  SOLV      6039            0.0000000000
     18236      6050  TIP3      H1              9.6962065772       -3.1262313742       31.3579122177  SOLV      6039            0.0000000000
     18237      6050  TIP3      H2              8.8551098654       -3.1265520229       32.5920915831  SOLV      6039            0.0000000000
     18238      6051  TIP3      OH2             9.5174308465       -2.0136163364       34.0504948362  SOLV      6040            0.0000000000
     18239      6051  TIP3      H1              8.9679556538       -1.6862212229       34.7723123146  SOLV      6040            0.0000000000
     18240      6051  TIP3      H2              9.8154755989       -1.1828419078       33.6184201541  SOLV      6040            0.0000000000
     18241      6052  TIP3      OH2             8.2683717328       -7.6144543990       27.2756921832  SOLV      6041            0.0000000000
     18242      6052  TIP3      H1              8.7469786989       -7.7763937165       28.1166074026  SOLV      6041            0.0000000000
     18243      6052  TIP3      H2              7.6576418519       -8.3793058883       27.2651221069  SOLV      6041            0.0000000000
     18244      6053  TIP3      OH2             8.9954014805       -8.3153353626       23.6569350749  SOLV      6042            0.0000000000
     18245      6053  TIP3      H1              9.4111297103       -8.9746007775       23.0644350508  SOLV      6042            0.0000000000
     18246      6053  TIP3      H2              9.6327600404       -7.5746959820       23.6305684158  SOLV      6042            0.0000000000
     18247      6054  TIP3      OH2             4.6406475964        7.0416864718       26.2705693714  SOLV      6043            0.0000000000
     18248      6054  TIP3      H1              5.2316396530        6.9726358773       25.4929808666  SOLV      6043            0.0000000000
     18249      6054  TIP3      H2              5.1294978838        7.6660502599       26.8391822503  SOLV      6043            0.0000000000
     18250      6055  TIP3      OH2            -3.7166096958        7.8324784262       34.4467495900  SOLV      6044            0.0000000000
     18251      6055  TIP3      H1             -4.0286635975        8.6041575164       34.9350706586  SOLV      6044            0.0000000000
     18252      6055  TIP3      H2             -3.7146320812        8.1522676800       33.5176277957  SOLV      6044            0.0000000000
     18253      6056  TIP3      OH2             1.0205419134        8.2876428210       32.2570798644  SOLV      6045            0.0000000000
     18254      6056  TIP3      H1              0.2959284506        8.4509898471       31.6293023804  SOLV      6045            0.0000000000
     18255      6056  TIP3      H2              1.1005122238        9.1426661401       32.7214188964  SOLV      6045            0.0000000000
     18256      6057  TIP3      OH2             3.5681771388        7.4252829446       33.0673441059  SOLV      6046            0.0000000000
     18257      6057  TIP3      H1              2.7382366205        7.7588491531       32.6816615777  SOLV      6046            0.0000000000
     18258      6057  TIP3      H2              4.2145394417        8.0914746362       32.7496605526  SOLV      6046            0.0000000000
     18259      6058  TIP3      OH2             5.3747968638        9.2664615136       32.0331933910  SOLV      6047            0.0000000000
     18260      6058  TIP3      H1              5.3296840388       10.1185160982       31.5454586608  SOLV      6047            0.0000000000
     18261      6058  TIP3      H2              5.7897585226        8.6832480103       31.3679403561  SOLV      6047            0.0000000000
     18262      6059  TIP3      OH2            -6.5882943721        5.8077281529       33.2740751870  SOLV      6048            0.0000000000
     18263      6059  TIP3      H1             -6.1811858212        6.2074520299       34.0506477237  SOLV      6048            0.0000000000
     18264      6059  TIP3      H2             -5.8210997559        5.3847525253       32.8277541977  SOLV      6048            0.0000000000
     18265      6060  TIP3      OH2            -4.5586536281        4.4936732481       31.9648504241  SOLV      6049            0.0000000000
     18266      6060  TIP3      H1             -4.1010838839        3.6819684604       31.7085566565  SOLV      6049            0.0000000000
     18267      6060  TIP3      H2             -3.7839717113        5.1057483167       31.9324059485  SOLV      6049            0.0000000000
     18268      6061  TIP3      OH2            -2.1041842020        5.6164511254       31.8197056171  SOLV      6050            0.0000000000
     18269      6061  TIP3      H1             -1.7241972083        4.7090168061       31.8199386075  SOLV      6050            0.0000000000
     18270      6061  TIP3      H2             -1.6011104668        5.9911376800       32.5801605654  SOLV      6050            0.0000000000
     18271      6062  TIP3      OH2             3.6109793223       -8.3579509563       32.2298857654  SOLV      6051            0.0000000000
     18272      6062  TIP3      H1              3.5634349970       -8.6720806590       33.1634007003  SOLV      6051            0.0000000000
     18273      6062  TIP3      H2              4.5590426725       -8.5462563478       32.0338170221  SOLV      6051            0.0000000000
     18274      6063  TIP3      OH2             9.0893867463       -8.9435925833       31.7899404009  SOLV      6052            0.0000000000
     18275      6063  TIP3      H1              9.4778258645       -8.4425956025       31.0389510853  SOLV      6052            0.0000000000
     18276      6063  TIP3      H2              8.2116212171       -8.5351326991       31.8463694153  SOLV      6052            0.0000000000
     18277      6064  TIP3      OH2             9.9498305099       -8.0870242468       29.3921010162  SOLV      6053            0.0000000000
     18278      6064  TIP3      H1             10.6964507131       -8.5941005217       29.0096976971  SOLV      6053            0.0000000000
     18279      6064  TIP3      H2             10.2868769031       -7.1678108810       29.2572087699  SOLV      6053            0.0000000000
     18280      6065  TIP3      OH2            -6.1669834003      -11.9544509364       29.2350018049  SOLV      6054            0.0000000000
     18281      6065  TIP3      H1             -5.6734896018      -11.5574359820       28.4672058084  SOLV      6054            0.0000000000
     18282      6065  TIP3      H2             -5.5210491302      -11.9285789389       29.9112831249  SOLV      6054            0.0000000000
     18283      6066  TIP3      OH2             0.7089051575      -10.0957509285       31.4207217075  SOLV      6055            0.0000000000
     18284      6066  TIP3      H1              1.1806795891       -9.4995022381       30.8121646429  SOLV      6055            0.0000000000
     18285      6066  TIP3      H2              1.4546205622      -10.5827148752       31.7833613943  SOLV      6055            0.0000000000
     18286      6067  TIP3      OH2             6.1173733488       -9.2126047649       31.5312363207  SOLV      6056            0.0000000000
     18287      6067  TIP3      H1              6.4909175833       -9.6476330024       30.7555962932  SOLV      6056            0.0000000000
     18288      6067  TIP3      H2              6.4686837228       -9.7768019830       32.2562764801  SOLV      6056            0.0000000000
     18289      6068  TIP3      OH2             6.4429187404       -9.7204514882       27.1961868857  SOLV      6057            0.0000000000
     18290      6068  TIP3      H1              5.6130962234       -9.2502105429       27.4053365675  SOLV      6057            0.0000000000
     18291      6068  TIP3      H2              6.2837016653      -10.5794751597       27.6431434269  SOLV      6057            0.0000000000
     18292      6069  TIP3      OH2            -8.7877834623        3.7146373058       27.2139368082  SOLV      6058            0.0000000000
     18293      6069  TIP3      H1             -9.6467363479        3.3878490070       26.8864107923  SOLV      6058            0.0000000000
     18294      6069  TIP3      H2             -8.8386205644        4.6297119236       26.8703800988  SOLV      6058            0.0000000000
     18295      6070  TIP3      OH2            -4.7338275327      -10.5929888654       26.9904575530  SOLV      6059            0.0000000000
     18296      6070  TIP3      H1             -4.2820338093      -11.2247459085       26.3961628024  SOLV      6059            0.0000000000
     18297      6070  TIP3      H2             -4.0014263592       -9.9957226237       27.2253909672  SOLV      6059            0.0000000000
     18298      6071  TIP3      OH2             0.3008487694       -8.5943707571       28.0747144838  SOLV      6060            0.0000000000
     18299      6071  TIP3      H1              1.0151746179       -9.0373759901       28.5662962331  SOLV      6060            0.0000000000
     18300      6071  TIP3      H2              0.4394459383       -7.6685490562       28.3779767863  SOLV      6060            0.0000000000
     18301      6072  TIP3      OH2            -1.0001920227        5.4508955161       23.0745401063  SOLV      6061            0.0000000000
     18302      6072  TIP3      H1             -0.1315246144        5.7001486123       22.6920722621  SOLV      6061            0.0000000000
     18303      6072  TIP3      H2             -1.2259063790        4.7144968659       22.4609651683  SOLV      6061            0.0000000000
     18304      6073  TIP3      OH2             6.1785022654        6.7307446191       23.9874437924  SOLV      6062            0.0000000000
     18305      6073  TIP3      H1              6.0780117398        5.7576151112       23.8640054563  SOLV      6062            0.0000000000
     18306      6073  TIP3      H2              5.7272718659        7.0609906060       23.1845060312  SOLV      6062            0.0000000000
     18307      6074  TIP3      OH2            -8.0029715329        3.8099536579       23.5760245649  SOLV      6063            0.0000000000
     18308      6074  TIP3      H1             -7.9061046271        4.1125317953       24.4888198779  SOLV      6063            0.0000000000
     18309      6074  TIP3      H2             -7.1367435211        3.3697280439       23.4104031902  SOLV      6063            0.0000000000
     18310      6075  TIP3      OH2            21.1080834693        1.9016546074       23.4499984527  SOLV      6064            0.0000000000
     18311      6075  TIP3      H1             20.8064404758        2.8059764536       23.2203271214  SOLV      6064            0.0000000000
     18312      6075  TIP3      H2             20.3316125088        1.3881434347       23.1696808681  SOLV      6064            0.0000000000
     18313      6076  TIP3      OH2            20.9882252005        1.8937968455       27.2786992694  SOLV      6065            0.0000000000
     18314      6076  TIP3      H1             21.3206693754        1.6869404891       28.1785163921  SOLV      6065            0.0000000000
     18315      6076  TIP3      H2             20.5825280156        1.0470430390       27.0372935576  SOLV      6065            0.0000000000
     18316      6077  TIP3      OH2            14.0781171574        0.7948341577       30.9364598159  SOLV      6066            0.0000000000
     18317      6077  TIP3      H1             14.4434271019        0.0792906973       31.4853953722  SOLV      6066            0.0000000000
     18318      6077  TIP3      H2             14.5758740522        1.5450137816       31.2980320867  SOLV      6066            0.0000000000
     18319      6078  TIP3      OH2            23.4794316997        4.7871327153       24.0826799380  SOLV      6067            0.0000000000
     18320      6078  TIP3      H1             23.2982868625        4.0846470533       24.7282155965  SOLV      6067            0.0000000000
     18321      6078  TIP3      H2             24.1417018256        5.3069925743       24.5514028416  SOLV      6067            0.0000000000
     18322      6079  TIP3      OH2            10.8894999335       -3.1488068969       25.9715889733  SOLV      6068            0.0000000000
     18323      6079  TIP3      H1             10.5264436435       -2.2822375849       26.2239522712  SOLV      6068            0.0000000000
     18324      6079  TIP3      H2             10.1106506222       -3.5497474460       25.5524604939  SOLV      6068            0.0000000000
     18325      6080  TIP3      OH2            11.3698132408       -0.2697596673       27.7421927027  SOLV      6069            0.0000000000
     18326      6080  TIP3      H1             11.8687496814       -1.0281901890       28.1273222997  SOLV      6069            0.0000000000
     18327      6080  TIP3      H2             12.1097429415        0.3372286533       27.5757622897  SOLV      6069            0.0000000000
     18328      6081  TIP3      OH2            19.8512371734        9.3092464409       24.7098874770  SOLV      6070            0.0000000000
     18329      6081  TIP3      H1             20.3266883681        9.0227185738       23.9039993703  SOLV      6070            0.0000000000
     18330      6081  TIP3      H2             19.9107526991        8.5116609788       25.2321911784  SOLV      6070            0.0000000000
     18331      6082  TIP3      OH2            19.0268715738        4.0469371220       27.8453369941  SOLV      6071            0.0000000000
     18332      6082  TIP3      H1             19.3994019104        3.2959010532       27.3510908915  SOLV      6071            0.0000000000
     18333      6082  TIP3      H2             19.8593602292        4.4883955010       28.1092385371  SOLV      6071            0.0000000000
     18334      6083  TIP3      OH2            23.2597172230       -0.7278409104       28.0815409689  SOLV      6072            0.0000000000
     18335      6083  TIP3      H1             23.5417698472       -1.6219269339       28.3713715177  SOLV      6072            0.0000000000
     18336      6083  TIP3      H2             22.9043486162       -0.9404501205       27.1994174681  SOLV      6072            0.0000000000
     18337      6084  TIP3      OH2            16.6387200112       -4.2721019384       27.7199916205  SOLV      6073            0.0000000000
     18338      6084  TIP3      H1             16.4166960235       -3.5277377138       27.1203465423  SOLV      6073            0.0000000000
     18339      6084  TIP3      H2             16.0900215141       -4.9803243373       27.3201269121  SOLV      6073            0.0000000000
     18340      6085  TIP3      OH2            23.6287872502       -3.3866687853       24.0341988900  SOLV      6074            0.0000000000
     18341      6085  TIP3      H1             24.3266863320       -3.5490993879       24.7091407190  SOLV      6074            0.0000000000
     18342      6085  TIP3      H2             24.1465647972       -2.9647339385       23.3260290958  SOLV      6074            0.0000000000
     18343      6086  TIP3      OH2            12.8862443766       -2.2777217148       28.8505088412  SOLV      6075            0.0000000000
     18344      6086  TIP3      H1             13.7428145807       -2.3699459646       29.3028068198  SOLV      6075            0.0000000000
     18345      6086  TIP3      H2             13.0722728039       -2.7714966902       28.0264728568  SOLV      6075            0.0000000000
     18346      6087  TIP3      OH2            17.3244056408       -0.2688166057       26.7558027258  SOLV      6076            0.0000000000
     18347      6087  TIP3      H1             18.2492883798       -0.5423285329       26.9223145474  SOLV      6076            0.0000000000
     18348      6087  TIP3      H2             16.9098103387       -1.1082335538       26.4648024161  SOLV      6076            0.0000000000
     18349      6088  TIP3      OH2            16.5373307483       -4.4024861934       32.1177227495  SOLV      6077            0.0000000000
     18350      6088  TIP3      H1             15.9710239622       -4.0141890007       31.4240087215  SOLV      6077            0.0000000000
     18351      6088  TIP3      H2             15.9915936495       -4.2091058795       32.9082888425  SOLV      6077            0.0000000000
     18352      6089  TIP3      OH2            20.0213207647        4.0911007283       22.1074983736  SOLV      6078            0.0000000000
     18353      6089  TIP3      H1             19.5400815205        3.9188437502       21.2875906449  SOLV      6078            0.0000000000
     18354      6089  TIP3      H2             19.5745407769        4.9157700034       22.4022330481  SOLV      6078            0.0000000000
     18355      6090  TIP3      OH2            17.5399871292        3.4105023411       30.0683162400  SOLV      6079            0.0000000000
     18356      6090  TIP3      H1             16.6988389545        3.8873940450       30.1340229370  SOLV      6079            0.0000000000
     18357      6090  TIP3      H2             17.9492650652        3.8086289820       29.2714470942  SOLV      6079            0.0000000000
     18358      6091  TIP3      OH2            25.6153054282       -3.5495033323       25.9518648423  SOLV      6080            0.0000000000
     18359      6091  TIP3      H1             25.5423214712       -3.8029639838       26.8872349050  SOLV      6080            0.0000000000
     18360      6091  TIP3      H2             26.0459995569       -2.6733040634       26.0349783159  SOLV      6080            0.0000000000
     18361      6092  TIP3      OH2            15.2895693480       -3.2669191221       29.9149692336  SOLV      6081            0.0000000000
     18362      6092  TIP3      H1             15.8819087082       -2.5178515017       30.1534453072  SOLV      6081            0.0000000000
     18363      6092  TIP3      H2             15.8049422380       -3.6628537890       29.1781830446  SOLV      6081            0.0000000000
     18364      6093  TIP3      OH2             9.7685667529        2.1734549956       23.3749791834  SOLV      6082            0.0000000000
     18365      6093  TIP3      H1              9.3893626813        2.4828629860       22.5359253927  SOLV      6082            0.0000000000
     18366      6093  TIP3      H2             10.0878272711        3.0205064980       23.7616786197  SOLV      6082            0.0000000000
     18367      6094  TIP3      OH2            19.9699605694       -7.2031310532       29.0354913463  SOLV      6083            0.0000000000
     18368      6094  TIP3      H1             19.8731252943       -8.1108443592       29.3703010322  SOLV      6083            0.0000000000
     18369      6094  TIP3      H2             19.3244246963       -6.7388242632       29.6119288938  SOLV      6083            0.0000000000
     18370      6095  TIP3      OH2            21.2072051783        7.8463848111       22.6815058426  SOLV      6084            0.0000000000
     18371      6095  TIP3      H1             21.7010349456        7.0318205393       22.4372106633  SOLV      6084            0.0000000000
     18372      6095  TIP3      H2             21.7495584958        8.5101468255       22.2064411488  SOLV      6084            0.0000000000
     18373      6096  TIP3      OH2            22.5890706792        5.6663295065       21.6087438277  SOLV      6085            0.0000000000
     18374      6096  TIP3      H1             22.0608035571        4.9113807366       21.3165423644  SOLV      6085            0.0000000000
     18375      6096  TIP3      H2             22.9653307522        5.3169152668       22.4472660429  SOLV      6085            0.0000000000
     18376      6097  TIP3      OH2            19.3904973787        0.3543564962       21.8457520453  SOLV      6086            0.0000000000
     18377      6097  TIP3      H1             18.5794450574        0.8728263689       21.6574146000  SOLV      6086            0.0000000000
     18378      6097  TIP3      H2             19.8453114297        0.3877026157       20.9863026103  SOLV      6086            0.0000000000
     18379      6098  TIP3      OH2            18.9763659422       -1.7276064328       18.9040427606  SOLV      6087            0.0000000000
     18380      6098  TIP3      H1             19.6323785221       -1.2207820919       19.4158323900  SOLV      6087            0.0000000000
     18381      6098  TIP3      H2             19.5610162716       -2.3616483594       18.4437975498  SOLV      6087            0.0000000000
     18382      6099  TIP3      OH2            22.8674488915        1.2240907791       21.4869546289  SOLV      6088            0.0000000000
     18383      6099  TIP3      H1             22.3159947795        1.4835662075       22.2633253580  SOLV      6088            0.0000000000
     18384      6099  TIP3      H2             23.7119383665        1.0104693347       21.9346167567  SOLV      6088            0.0000000000
     18385      6100  TIP3      OH2            15.3555103769        1.2305308739       25.4918670858  SOLV      6089            0.0000000000
     18386      6100  TIP3      H1             14.8957404326        0.5862417946       24.9230040323  SOLV      6089            0.0000000000
     18387      6100  TIP3      H2             16.0300334092        0.6810466144       25.9356942020  SOLV      6089            0.0000000000
     18388      6101  TIP3      OH2            16.8517776911        5.6285602056       26.7975751197  SOLV      6090            0.0000000000
     18389      6101  TIP3      H1             16.1108460758        5.0186026651       26.7073542007  SOLV      6090            0.0000000000
     18390      6101  TIP3      H2             17.5854316729        5.0466556108       27.0540370828  SOLV      6090            0.0000000000
     18391      6102  TIP3      OH2            16.7516257371        0.8610158750       29.2399199242  SOLV      6091            0.0000000000
     18392      6102  TIP3      H1             16.9244473351        0.7124305363       28.2902791458  SOLV      6091            0.0000000000
     18393      6102  TIP3      H2             17.0303651290        1.7814016478       29.3926074716  SOLV      6091            0.0000000000
     18394      6103  TIP3      OH2            21.6143696658        7.3459518868       27.0506836521  SOLV      6092            0.0000000000
     18395      6103  TIP3      H1             21.2250098798        7.6610146595       27.8676713071  SOLV      6092            0.0000000000
     18396      6103  TIP3      H2             21.6002869878        6.3871650769       27.2107994670  SOLV      6092            0.0000000000
     18397      6104  TIP3      OH2            21.2500244543       -0.2010100270       19.7887230710  SOLV      6093            0.0000000000
     18398      6104  TIP3      H1             21.8445770925        0.4059599104       20.2888470652  SOLV      6093            0.0000000000
     18399      6104  TIP3      H2             21.5069722393        0.0178188762       18.8605753062  SOLV      6093            0.0000000000
     18400      6105  TIP3      OH2            15.2523420817        1.9099601794       33.2994216340  SOLV      6094            0.0000000000
     18401      6105  TIP3      H1             15.6144999660        2.5587954045       33.9092689240  SOLV      6094            0.0000000000
     18402      6105  TIP3      H2             14.3357552109        1.7984603366       33.6225028059  SOLV      6094            0.0000000000
     18403      6106  TIP3      OH2            18.7765162923        6.5398154436       22.4549946557  SOLV      6095            0.0000000000
     18404      6106  TIP3      H1             19.5130867366        7.1379092605       22.6805307011  SOLV      6095            0.0000000000
     18405      6106  TIP3      H2             18.1066626598        7.1477828089       22.1151475698  SOLV      6095            0.0000000000
     18406      6107  TIP3      OH2            26.4195736702       -7.7793884347       20.3052458434  SOLV      6096            0.0000000000
     18407      6107  TIP3      H1             25.5858669814       -7.5706525878       20.7729368887  SOLV      6096            0.0000000000
     18408      6107  TIP3      H2             26.5560948107       -6.9659859670       19.7746916070  SOLV      6096            0.0000000000
     18409      6108  TIP3      OH2            13.9167783224       -0.4615483874       23.5425587252  SOLV      6097            0.0000000000
     18410      6108  TIP3      H1             13.1894528023        0.0312704297       23.1057869237  SOLV      6097            0.0000000000
     18411      6108  TIP3      H2             13.4292192083       -1.1628188360       23.9848027267  SOLV      6097            0.0000000000
     18412      6109  TIP3      OH2            24.4273097990        5.8443011419       15.7571428606  SOLV      6098            0.0000000000
     18413      6109  TIP3      H1             24.4943966158        6.8162293703       15.6307036327  SOLV      6098            0.0000000000
     18414      6109  TIP3      H2             25.3604025375        5.5727292605       15.6248972399  SOLV      6098            0.0000000000
     18415      6110  TIP3      OH2            11.8614491233        3.5127477426       32.6901857527  SOLV      6099            0.0000000000
     18416      6110  TIP3      H1             11.1014451693        3.3365982768       32.1131949370  SOLV      6099            0.0000000000
     18417      6110  TIP3      H2             12.0551803415        2.6469738325       33.0817999470  SOLV      6099            0.0000000000
     18418      6111  TIP3      OH2            10.3091890893        5.3047129108       29.1997566970  SOLV      6100            0.0000000000
     18419      6111  TIP3      H1             11.2437995646        5.0854140508       28.9885852382  SOLV      6100            0.0000000000
     18420      6111  TIP3      H2             10.4431871944        6.0755596839       29.7723997447  SOLV      6100            0.0000000000
     18421      6112  TIP3      OH2            17.5385276797        8.9593828631       20.5561410586  SOLV      6101            0.0000000000
     18422      6112  TIP3      H1             17.0380290521        8.8400353250       19.7318685537  SOLV      6101            0.0000000000
     18423      6112  TIP3      H2             17.2396963326        9.8441257507       20.8449185529  SOLV      6101            0.0000000000
     18424      6113  TIP3      OH2            11.8933594889        7.5096261341       24.3899618324  SOLV      6102            0.0000000000
     18425      6113  TIP3      H1             12.3965157805        7.4766659205       25.2394729925  SOLV      6102            0.0000000000
     18426      6113  TIP3      H2             11.3913608708        6.6844858143       24.4473066697  SOLV      6102            0.0000000000
     18427      6114  TIP3      OH2            19.5334363246        8.0705588619       16.9177909240  SOLV      6103            0.0000000000
     18428      6114  TIP3      H1             20.1168509667        7.3485430420       16.5981832960  SOLV      6103            0.0000000000
     18429      6114  TIP3      H2             19.8451209705        8.1772739704       17.8442244396  SOLV      6103            0.0000000000
     18430      6115  TIP3      OH2            20.0294711258        8.5372995044       19.5765549143  SOLV      6104            0.0000000000
     18431      6115  TIP3      H1             19.1596995456        8.6276555473       20.0322196153  SOLV      6104            0.0000000000
     18432      6115  TIP3      H2             20.5939150808        8.2499496769       20.3113120074  SOLV      6104            0.0000000000
     18433      6116  TIP3      OH2            13.5120974062        5.6516331952       33.0725090704  SOLV      6105            0.0000000000
     18434      6116  TIP3      H1             14.0873049345        5.1259870736       33.6239998823  SOLV      6105            0.0000000000
     18435      6116  TIP3      H2             12.8640446465        4.9747962901       32.7813315013  SOLV      6105            0.0000000000
     18436      6117  TIP3      OH2            17.7043602922       -6.3704744970       30.4665198321  SOLV      6106            0.0000000000
     18437      6117  TIP3      H1             16.8028515245       -6.6553350879       30.2048873329  SOLV      6106            0.0000000000
     18438      6117  TIP3      H2             17.4673788934       -5.5849060097       30.9992114777  SOLV      6106            0.0000000000
     18439      6118  TIP3      OH2            22.0189682973        0.1779968171       17.2240891038  SOLV      6107            0.0000000000
     18440      6118  TIP3      H1             21.6791410312        0.0004821211       16.3266559597  SOLV      6107            0.0000000000
     18441      6118  TIP3      H2             22.8638814433        0.6230709774       17.0160357977  SOLV      6107            0.0000000000
     18442      6119  TIP3      OH2            19.0488854993       -5.8603472911       20.2658886931  SOLV      6108            0.0000000000
     18443      6119  TIP3      H1             18.7295231564       -5.8955533359       21.1898020480  SOLV      6108            0.0000000000
     18444      6119  TIP3      H2             19.1862418257       -6.7837934553       20.0595766698  SOLV      6108            0.0000000000
     18445      6120  TIP3      OH2            17.0551077152       -1.3391967521       30.7253278350  SOLV      6109            0.0000000000
     18446      6120  TIP3      H1             16.5297898906       -1.1366883208       31.5313942393  SOLV      6109            0.0000000000
     18447      6120  TIP3      H2             16.9111650240       -0.5086872234       30.2067215301  SOLV      6109            0.0000000000
     18448      6121  TIP3      OH2            15.8848967338       -2.4628615954       25.8636815373  SOLV      6110            0.0000000000
     18449      6121  TIP3      H1             14.9478498209       -2.6690454616       26.0717519898  SOLV      6110            0.0000000000
     18450      6121  TIP3      H2             15.9602723803       -2.8817066632       24.9789704181  SOLV      6110            0.0000000000
     18451      6122  TIP3      OH2            20.7485142807       -1.6538266551       23.1651690202  SOLV      6111            0.0000000000
     18452      6122  TIP3      H1             20.2434571566       -0.9192494705       22.7478113969  SOLV      6111            0.0000000000
     18453      6122  TIP3      H2             21.3035644621       -1.9529429826       22.4198680520  SOLV      6111            0.0000000000
     18454      6123  TIP3      OH2            22.2997592888       -1.3564239490       25.5503490295  SOLV      6112            0.0000000000
     18455      6123  TIP3      H1             21.6751720468       -1.0940790688       24.8437390774  SOLV      6112            0.0000000000
     18456      6123  TIP3      H2             22.6705656615       -2.1569052827       25.1285373484  SOLV      6112            0.0000000000
     18457      6124  TIP3      OH2            15.3363492565       -0.9974856116       32.8008871013  SOLV      6113            0.0000000000
     18458      6124  TIP3      H1             15.3825212551       -0.2295622653       33.3969903364  SOLV      6113            0.0000000000
     18459      6124  TIP3      H2             15.1572230430       -1.7424208696       33.4033215571  SOLV      6113            0.0000000000
     18460      6125  TIP3      OH2            15.7245889855       -6.5121028464       19.9594896206  SOLV      6114            0.0000000000
     18461      6125  TIP3      H1             15.6555320328       -6.3230189457       20.9174983369  SOLV      6114            0.0000000000
     18462      6125  TIP3      H2             15.0164885191       -5.9205293251       19.6239343000  SOLV      6114            0.0000000000
     18463      6126  TIP3      OH2            11.1779377226       -5.8554536230       28.6057474594  SOLV      6115            0.0000000000
     18464      6126  TIP3      H1             11.8476411070       -5.4683694764       29.2110221700  SOLV      6115            0.0000000000
     18465      6126  TIP3      H2             11.6786362617       -5.9976619833       27.7985698612  SOLV      6115            0.0000000000
     18466      6127  TIP3      OH2            10.7385911457       -6.0256310377       23.7963767947  SOLV      6116            0.0000000000
     18467      6127  TIP3      H1             11.1575958686       -5.6195858051       23.0052688912  SOLV      6116            0.0000000000
     18468      6127  TIP3      H2             10.1568180085       -5.2870988426       24.0618368833  SOLV      6116            0.0000000000
     18469      6128  TIP3      OH2            21.9923125881        1.1178947175       29.6685160274  SOLV      6117            0.0000000000
     18470      6128  TIP3      H1             22.5982938406        0.5436877715       29.1505196699  SOLV      6117            0.0000000000
     18471      6128  TIP3      H2             21.9492523983        0.6060854206       30.5017578536  SOLV      6117            0.0000000000
     18472      6129  TIP3      OH2            19.1811266195       -4.3749428560       26.4441969359  SOLV      6118            0.0000000000
     18473      6129  TIP3      H1             18.3625463786       -4.3179418685       26.9811905031  SOLV      6118            0.0000000000
     18474      6129  TIP3      H2             19.8653458682       -4.2739809352       27.1260539778  SOLV      6118            0.0000000000
     18475      6130  TIP3      OH2            13.5047890550       -3.6404853509       26.5278022620  SOLV      6119            0.0000000000
     18476      6130  TIP3      H1             12.5583757029       -3.5761138492       26.2504707364  SOLV      6119            0.0000000000
     18477      6130  TIP3      H2             13.7382582952       -4.5600567979       26.3090239220  SOLV      6119            0.0000000000
     18478      6131  TIP3      OH2            16.1279698546       -3.7794322270       23.4785481539  SOLV      6120            0.0000000000
     18479      6131  TIP3      H1             17.0501742577       -3.5230501486       23.2874454868  SOLV      6120            0.0000000000
     18480      6131  TIP3      H2             15.6456963971       -3.5059731132       22.6633010465  SOLV      6120            0.0000000000
     18481      6132  TIP3      OH2            23.6662312045       -3.3827852963       28.6218091933  SOLV      6121            0.0000000000
     18482      6132  TIP3      H1             23.8166156008       -3.6551195504       29.5412118195  SOLV      6121            0.0000000000
     18483      6132  TIP3      H2             22.9658924184       -4.0038035943       28.3480381257  SOLV      6121            0.0000000000
     18484      6133  TIP3      OH2            14.7050713577       -3.4859474242       21.1900596912  SOLV      6122            0.0000000000
     18485      6133  TIP3      H1             13.9919039658       -3.8917020347       20.6644353913  SOLV      6122            0.0000000000
     18486      6133  TIP3      H2             15.2053086173       -3.0247820687       20.4838885919  SOLV      6122            0.0000000000
     18487      6134  TIP3      OH2            19.9665126839       -0.9736988942       27.4466493680  SOLV      6123            0.0000000000
     18488      6134  TIP3      H1             20.7543199908       -1.3309607583       27.0121654119  SOLV      6123            0.0000000000
     18489      6134  TIP3      H2             20.0074816294       -1.3791645438       28.3347391448  SOLV      6123            0.0000000000
     18490      6135  TIP3      OH2            15.0887471191       -6.0904937634       26.3120083605  SOLV      6124            0.0000000000
     18491      6135  TIP3      H1             14.7363295446       -6.8562150100       26.8179780829  SOLV      6124            0.0000000000
     18492      6135  TIP3      H2             15.5589543313       -6.5280131272       25.5952307009  SOLV      6124            0.0000000000
     18493      6136  TIP3      OH2            19.7120589328       -1.9201131158       30.2852667530  SOLV      6125            0.0000000000
     18494      6136  TIP3      H1             18.7932317691       -1.6145093809       30.4519420250  SOLV      6125            0.0000000000
     18495      6136  TIP3      H2             20.2489818286       -1.3059922397       30.8198885231  SOLV      6125            0.0000000000
     18496      6137  TIP3      OH2            17.1325808620        1.8429889596       21.2529597160  SOLV      6126            0.0000000000
     18497      6137  TIP3      H1             16.3554362118        1.2544461357       21.1493054816  SOLV      6126            0.0000000000
     18498      6137  TIP3      H2             16.9399333609        2.2545067014       22.1345352683  SOLV      6126            0.0000000000
     18499      6138  TIP3      OH2            21.6643511800       -5.0202102734       20.0996503258  SOLV      6127            0.0000000000
     18500      6138  TIP3      H1             20.6850866126       -5.0472792700       20.0709577263  SOLV      6127            0.0000000000
     18501      6138  TIP3      H2             21.8464635604       -4.0652819793       20.2337951464  SOLV      6127            0.0000000000
     18502      6139  TIP3      OH2            22.3345133917       -2.4754166547       20.9649272623  SOLV      6128            0.0000000000
     18503      6139  TIP3      H1             23.2868799203       -2.3367422091       21.1389770641  SOLV      6128            0.0000000000
     18504      6139  TIP3      H2             22.0974101001       -1.6741830307       20.4546051921  SOLV      6128            0.0000000000
     18505      6140  TIP3      OH2            13.6519723962        1.1402024195       27.9322556104  SOLV      6129            0.0000000000
     18506      6140  TIP3      H1             14.1433920861        1.6989901712       27.3110672624  SOLV      6129            0.0000000000
     18507      6140  TIP3      H2             14.1399535846        1.2676429029       28.7587911599  SOLV      6129            0.0000000000
     18508      6141  TIP3      OH2            18.5406798771        3.4126244530       19.5142444287  SOLV      6130            0.0000000000
     18509      6141  TIP3      H1             18.0457494151        4.2652542070       19.5671797251  SOLV      6130            0.0000000000
     18510      6141  TIP3      H2             18.0022429448        2.8461986354       20.1097379550  SOLV      6130            0.0000000000
     18511      6142  TIP3      OH2            12.7500737375        1.2460820842       34.2350257516  SOLV      6131            0.0000000000
     18512      6142  TIP3      H1             12.5119726580        1.3741532132       35.1576345839  SOLV      6131            0.0000000000
     18513      6142  TIP3      H2             12.0156145998        0.6924577102       33.8969277353  SOLV      6131            0.0000000000
     18514      6143  TIP3      OH2            26.7454570067       -1.5265371375       19.3107764067  SOLV      6132            0.0000000000
     18515      6143  TIP3      H1             26.1286983339       -1.9742874337       18.6820142127  SOLV      6132            0.0000000000
     18516      6143  TIP3      H2             26.6970876314       -0.6299218038       18.9093785924  SOLV      6132            0.0000000000
     18517      6144  TIP3      OH2            23.8607120505        6.6316051217       18.4363488487  SOLV      6133            0.0000000000
     18518      6144  TIP3      H1             23.5121274515        6.0107340898       19.0882066102  SOLV      6133            0.0000000000
     18519      6144  TIP3      H2             23.9080908906        6.1051364593       17.6220292260  SOLV      6133            0.0000000000
     18520      6145  TIP3      OH2            23.4313429095        3.1242305407       26.6253468366  SOLV      6134            0.0000000000
     18521      6145  TIP3      H1             22.5657527001        2.6717860931       26.7057515661  SOLV      6134            0.0000000000
     18522      6145  TIP3      H2             23.9885187177        2.3863057695       26.3180257917  SOLV      6134            0.0000000000
     18523      6146  TIP3      OH2            14.9124969003        5.1215514571       24.0847324063  SOLV      6135            0.0000000000
     18524      6146  TIP3      H1             14.8802007736        5.9971888575       23.6584323986  SOLV      6135            0.0000000000
     18525      6146  TIP3      H2             14.0934358548        5.1110310317       24.5870825723  SOLV      6135            0.0000000000
     18526      6147  TIP3      OH2            10.7141326639       -1.7930011811       21.4177516047  SOLV      6136            0.0000000000
     18527      6147  TIP3      H1             11.1562916443       -0.9409746341       21.6258615139  SOLV      6136            0.0000000000
     18528      6147  TIP3      H2              9.9297235387       -1.7341094681       22.0070401486  SOLV      6136            0.0000000000
     18529      6148  TIP3      OH2            16.4518553749        2.9006577474       23.6196193600  SOLV      6137            0.0000000000
     18530      6148  TIP3      H1             16.0384148493        3.7706541830       23.8140323170  SOLV      6137            0.0000000000
     18531      6148  TIP3      H2             16.1063761459        2.3722147613       24.3675529878  SOLV      6137            0.0000000000
     18532      6149  TIP3      OH2            17.9945023631        8.6412096066       28.8432906327  SOLV      6138            0.0000000000
     18533      6149  TIP3      H1             17.9340427800        9.6093934805       28.8338990879  SOLV      6138            0.0000000000
     18534      6149  TIP3      H2             18.4194825395        8.5050237637       29.7087442700  SOLV      6138            0.0000000000
     18535      6150  TIP3      OH2            14.1736044767        7.6078562912       22.7971653216  SOLV      6139            0.0000000000
     18536      6150  TIP3      H1             13.3227144969        7.6701293070       23.2758575221  SOLV      6139            0.0000000000
     18537      6150  TIP3      H2             14.4902592201        8.5371134677       22.8646876556  SOLV      6139            0.0000000000
     18538      6151  TIP3      OH2            21.6041134629        4.8934370036       28.5409510665  SOLV      6140            0.0000000000
     18539      6151  TIP3      H1             22.0719980150        4.8889998784       29.3888896103  SOLV      6140            0.0000000000
     18540      6151  TIP3      H2             22.2105266443        4.3501849814       28.0105739146  SOLV      6140            0.0000000000
     18541      6152  TIP3      OH2            21.3772260160        3.9293606122       17.4234944426  SOLV      6141            0.0000000000
     18542      6152  TIP3      H1             21.9235881773        3.6667577478       18.2028710967  SOLV      6141            0.0000000000
     18543      6152  TIP3      H2             20.5020291307        3.6363103818       17.7212512610  SOLV      6141            0.0000000000
     18544      6153  TIP3      OH2            24.6936437344        8.6067797283       15.5784425566  SOLV      6142            0.0000000000
     18545      6153  TIP3      H1             25.0284931781        9.3632060589       15.0683094893  SOLV      6142            0.0000000000
     18546      6153  TIP3      H2             23.8962388591        9.0202537479       15.9711847255  SOLV      6142            0.0000000000
     18547      6154  TIP3      OH2            14.8169734883       -3.5505771593       34.1741624978  SOLV      6143            0.0000000000
     18548      6154  TIP3      H1             13.8455634251       -3.4171693357       34.2460096740  SOLV      6143            0.0000000000
     18549      6154  TIP3      H2             15.0065005208       -4.0331410071       34.9859324268  SOLV      6143            0.0000000000
     18550      6155  TIP3      OH2            22.9757500238        3.1688865332       19.4998459693  SOLV      6144            0.0000000000
     18551      6155  TIP3      H1             22.8707886341        2.5553761350       20.2536073928  SOLV      6144            0.0000000000
     18552      6155  TIP3      H2             23.9526957918        3.1787966210       19.4218053310  SOLV      6144            0.0000000000
     18553      6156  TIP3      OH2            12.1067728903        7.2658144117       30.6400104349  SOLV      6145            0.0000000000
     18554      6156  TIP3      H1             12.6054080546        6.5929937197       30.1239590098  SOLV      6145            0.0000000000
     18555      6156  TIP3      H2             12.6062444097        7.2255630905       31.4653987310  SOLV      6145            0.0000000000
     18556      6157  TIP3      OH2            15.0018990709        3.6861030348       17.4288228655  SOLV      6146            0.0000000000
     18557      6157  TIP3      H1             15.1116038848        2.7475497903       17.1908685674  SOLV      6146            0.0000000000
     18558      6157  TIP3      H2             14.8062449853        3.6195418394       18.3863557230  SOLV      6146            0.0000000000
     18559      6158  TIP3      OH2            14.4293114640        3.7486810809       20.1343273529  SOLV      6147            0.0000000000
     18560      6158  TIP3      H1             15.0897103151        3.4935611830       20.7916865440  SOLV      6147            0.0000000000
     18561      6158  TIP3      H2             14.4346781879        4.7290863356       20.2309736404  SOLV      6147            0.0000000000
     18562      6159  TIP3      OH2            11.7473316465        0.6551768243       22.2052687850  SOLV      6148            0.0000000000
     18563      6159  TIP3      H1             11.0934453598        1.1121918949       22.7784445428  SOLV      6148            0.0000000000
     18564      6159  TIP3      H2             11.8861378073        1.3471270816       21.5298329109  SOLV      6148            0.0000000000
     18565      6160  TIP3      OH2            22.1462316635       -5.5107243317       22.8379477550  SOLV      6149            0.0000000000
     18566      6160  TIP3      H1             21.9953471504       -5.2688666671       21.8999107052  SOLV      6149            0.0000000000
     18567      6160  TIP3      H2             22.5784569654       -4.7008292429       23.1845198907  SOLV      6149            0.0000000000
     18568      6161  TIP3      OH2            17.1088744022        5.7069302443       19.5875718545  SOLV      6150            0.0000000000
     18569      6161  TIP3      H1             16.2385573698        5.9219144734       19.9781927973  SOLV      6150            0.0000000000
     18570      6161  TIP3      H2             17.2870911710        6.5304721514       19.1133643139  SOLV      6150            0.0000000000
     18571      6162  TIP3      OH2            18.9477980467       -3.6677815075       23.7592260267  SOLV      6151            0.0000000000
     18572      6162  TIP3      H1             19.5828339924       -2.9375191796       23.5874213076  SOLV      6151            0.0000000000
     18573      6162  TIP3      H2             19.0169399327       -3.7498566240       24.7342597133  SOLV      6151            0.0000000000
     18574      6163  TIP3      OH2            21.7285134919       -0.5651871095       31.8288389806  SOLV      6152            0.0000000000
     18575      6163  TIP3      H1             21.6738397784       -0.0886866971       32.6679391777  SOLV      6152            0.0000000000
     18576      6163  TIP3      H2             22.3761260533       -1.2595384208       32.0027250431  SOLV      6152            0.0000000000
     18577      6164  TIP3      OH2            20.3997016529       -6.4962519731       24.7755834949  SOLV      6153            0.0000000000
     18578      6164  TIP3      H1             20.2655383250       -5.7214493180       25.3580314141  SOLV      6153            0.0000000000
     18579      6164  TIP3      H2             21.0688699890       -6.1341889663       24.1493591923  SOLV      6153            0.0000000000
     18580      6165  TIP3      OH2            14.5685184898        6.4609522849       20.3308080792  SOLV      6154            0.0000000000
     18581      6165  TIP3      H1             14.2798195164        7.1751351760       19.7202975684  SOLV      6154            0.0000000000
     18582      6165  TIP3      H2             14.4157930708        6.8875290487       21.2049709669  SOLV      6154            0.0000000000
     18583      6166  TIP3      OH2            15.5958957788       -6.3956163877       22.7322336365  SOLV      6155            0.0000000000
     18584      6166  TIP3      H1             15.4971941213       -5.4833984513       23.0800864285  SOLV      6155            0.0000000000
     18585      6166  TIP3      H2             16.5640984569       -6.4907351802       22.8442033197  SOLV      6155            0.0000000000
     18586      6167  TIP3      OH2            24.6018838734        0.4923051439       25.5227265065  SOLV      6156            0.0000000000
     18587      6167  TIP3      H1             23.8066657606       -0.0334997190       25.7090495021  SOLV      6156            0.0000000000
     18588      6167  TIP3      H2             25.2971015050       -0.0184010497       25.9868874935  SOLV      6156            0.0000000000
     18589      6168  TIP3      OH2            11.7442809180        2.6936045403       20.2370963535  SOLV      6157            0.0000000000
     18590      6168  TIP3      H1             12.4368481485        3.3729065041       20.3351510198  SOLV      6157            0.0000000000
     18591      6168  TIP3      H2             12.1833728777        2.1206779694       19.5714544726  SOLV      6157            0.0000000000
     18592      6169  TIP3      OH2            11.1379868846       -4.5113667676       21.5521586192  SOLV      6158            0.0000000000
     18593      6169  TIP3      H1             11.2084259889       -3.5339551895       21.5703220523  SOLV      6158            0.0000000000
     18594      6169  TIP3      H2             10.3087357832       -4.6302845917       21.0828377492  SOLV      6158            0.0000000000
     18595      6170  TIP3      OH2            15.0886345135       -7.2071263518       30.1667253439  SOLV      6159            0.0000000000
     18596      6170  TIP3      H1             14.7429887690       -7.5510908783       29.3172877324  SOLV      6159            0.0000000000
     18597      6170  TIP3      H2             15.0047057488       -7.9897062024       30.7487884199  SOLV      6159            0.0000000000
     18598      6171  TIP3      OH2            10.3274616351        4.8172448276       24.0576187333  SOLV      6160            0.0000000000
     18599      6171  TIP3      H1              9.8163971857        5.1968147758       24.7821104132  SOLV      6160            0.0000000000
     18600      6171  TIP3      H2             10.0085934574        5.3275081497       23.2837030578  SOLV      6160            0.0000000000
     18601      6172  TIP3      OH2            16.6017370251        5.6933261125       16.4718057784  SOLV      6161            0.0000000000
     18602      6172  TIP3      H1             16.0390187352        5.0088465584       16.9059911365  SOLV      6161            0.0000000000
     18603      6172  TIP3      H2             17.3759938993        5.1582089927       16.2361185540  SOLV      6161            0.0000000000
     18604      6173  TIP3      OH2            20.9928324486        6.0765080369       15.6846080946  SOLV      6162            0.0000000000
     18605      6173  TIP3      H1             21.3414321379        5.4057092672       16.3075812704  SOLV      6162            0.0000000000
     18606      6173  TIP3      H2             21.6126590203        6.0194984796       14.9364226811  SOLV      6162            0.0000000000
     18607      6174  TIP3      OH2            13.1273122352        0.8280732580       18.7924311592  SOLV      6163            0.0000000000
     18608      6174  TIP3      H1             13.7053189877        0.5764018961       19.5374502830  SOLV      6163            0.0000000000
     18609      6174  TIP3      H2             13.7951489235        0.8972054660       18.0755822817  SOLV      6163            0.0000000000
     18610      6175  TIP3      OH2            18.3052248091        2.8893626118       16.8291346912  SOLV      6164            0.0000000000
     18611      6175  TIP3      H1             18.2787152323        3.0267581572       17.7990142680  SOLV      6164            0.0000000000
     18612      6175  TIP3      H2             18.2734257121        1.9088485645       16.7862448854  SOLV      6164            0.0000000000
     18613      6176  TIP3      OH2            15.0800824201       -0.0251067604       20.9240894148  SOLV      6165            0.0000000000
     18614      6176  TIP3      H1             14.8147823526       -0.3459788063       21.8086831956  SOLV      6165            0.0000000000
     18615      6176  TIP3      H2             15.4765332860       -0.8189196461       20.5169508972  SOLV      6165            0.0000000000
     18616      6177  TIP3      OH2            16.2189262082       -2.1257265355       19.3674297383  SOLV      6166            0.0000000000
     18617      6177  TIP3      H1             15.9421013883       -2.0048466986       18.4356410953  SOLV      6166            0.0000000000
     18618      6177  TIP3      H2             17.1913310889       -2.0423959638       19.2778581210  SOLV      6166            0.0000000000
     18619      6178  TIP3      OH2            24.3590958335        1.1604272814       16.0558429506  SOLV      6167            0.0000000000
     18620      6178  TIP3      H1             24.1501377069        0.7109495137       15.2147615241  SOLV      6167            0.0000000000
     18621      6178  TIP3      H2             24.0350004399        2.0652274497       15.8364029570  SOLV      6167            0.0000000000
     18622      6179  TIP3      OH2            19.2518739033       -3.9320123916       32.3746494316  SOLV      6168            0.0000000000
     18623      6179  TIP3      H1             19.4048724763       -3.2843594098       31.6627593828  SOLV      6168            0.0000000000
     18624      6179  TIP3      H2             18.2730084622       -3.9918815898       32.3726181781  SOLV      6168            0.0000000000
     18625      6180  TIP3      OH2            19.6890996210        1.9978091284       31.3299986742  SOLV      6169            0.0000000000
     18626      6180  TIP3      H1             20.1791148575        1.7792666086       30.5245264603  SOLV      6169            0.0000000000
     18627      6180  TIP3      H2             18.8633339031        2.3914140107       30.9820567592  SOLV      6169            0.0000000000
     18628      6181  TIP3      OH2            20.8432069239       -6.1213834062       32.5215196631  SOLV      6170            0.0000000000
     18629      6181  TIP3      H1             20.3141892513       -5.2928206119       32.4344332311  SOLV      6170            0.0000000000
     18630      6181  TIP3      H2             20.1145934585       -6.7453152825       32.7289451410  SOLV      6170            0.0000000000
     18631      6182  TIP3      OH2            14.2787196719        8.4645402400       18.4265940886  SOLV      6171            0.0000000000
     18632      6182  TIP3      H1             15.2313013211        8.3838807333       18.2367089969  SOLV      6171            0.0000000000
     18633      6182  TIP3      H2             14.0060038696        9.0202798511       17.6743165814  SOLV      6171            0.0000000000
     18634      6183  TIP3      OH2             9.0449219918        2.3320516491       20.5159829629  SOLV      6172            0.0000000000
     18635      6183  TIP3      H1             10.0031381499        2.5336706614       20.4247423198  SOLV      6172            0.0000000000
     18636      6183  TIP3      H2              9.0002831167        1.4370651745       20.1171920133  SOLV      6172            0.0000000000
     18637      6184  TIP3      OH2             8.2299724481        8.3991556296       24.8134239738  SOLV      6173            0.0000000000
     18638      6184  TIP3      H1              7.5703277770        7.7915115416       24.4157492176  SOLV      6173            0.0000000000
     18639      6184  TIP3      H2              8.6777349426        7.7957446995       25.4450223107  SOLV      6173            0.0000000000
     18640      6185  TIP3      OH2             9.6038090191        6.7932726045       26.6105027883  SOLV      6174            0.0000000000
     18641      6185  TIP3      H1              9.5291937063        6.1257282046       27.3131165943  SOLV      6174            0.0000000000
     18642      6185  TIP3      H2             10.1197046477        7.4677398997       27.0940043963  SOLV      6174            0.0000000000
     18643      6186  TIP3      OH2            25.7491742037        3.0134631756       19.3356431745  SOLV      6175            0.0000000000
     18644      6186  TIP3      H1             26.4144539737        3.6688187874       19.0413839192  SOLV      6175            0.0000000000
     18645      6186  TIP3      H2             26.1954819188        2.6294392901       20.1220550276  SOLV      6175            0.0000000000
     18646      6187  TIP3      OH2            27.0415241313        1.6541006901       21.3343375911  SOLV      6176            0.0000000000
     18647      6187  TIP3      H1             26.3737775340        1.3032829438       21.9636005091  SOLV      6176            0.0000000000
     18648      6187  TIP3      H2             27.6817588183        2.1036826070       21.9272779629  SOLV      6176            0.0000000000
     18649      6188  TIP3      OH2            26.3987402323        0.8009733352       17.8382273144  SOLV      6177            0.0000000000
     18650      6188  TIP3      H1             25.6616084853        0.8178982365       17.1850096821  SOLV      6177            0.0000000000
     18651      6188  TIP3      H2             26.1318238298        1.5610454863       18.3970233635  SOLV      6177            0.0000000000
     18652      6189  TIP3      OH2            25.1171176183       -2.4485990531       17.3666079545  SOLV      6178            0.0000000000
     18653      6189  TIP3      H1             24.6960537000       -2.1533985573       16.5535173411  SOLV      6178            0.0000000000
     18654      6189  TIP3      H2             24.8834979828       -3.4053802208       17.3549616204  SOLV      6178            0.0000000000
     18655      6190  TIP3      OH2            25.1356990219        0.3489712657       22.8293710107  SOLV      6179            0.0000000000
     18656      6190  TIP3      H1             25.1557971497       -0.6179085804       22.7301754019  SOLV      6179            0.0000000000
     18657      6190  TIP3      H2             24.9855372160        0.4629232774       23.7948095580  SOLV      6179            0.0000000000
     18658      6191  TIP3      OH2            11.4158694296        0.9277662647       30.3535426494  SOLV      6180            0.0000000000
     18659      6191  TIP3      H1             11.3837327539        0.6850830379       29.4096143960  SOLV      6180            0.0000000000
     18660      6191  TIP3      H2             12.3907785262        0.9983230297       30.4836862655  SOLV      6180            0.0000000000
     18661      6192  TIP3      OH2            24.5016937194       -5.0719016479       17.3542965401  SOLV      6181            0.0000000000
     18662      6192  TIP3      H1             25.2548312831       -5.4896505416       17.8159132556  SOLV      6181            0.0000000000
     18663      6192  TIP3      H2             23.8284148897       -5.7624714013       17.3199963211  SOLV      6181            0.0000000000
     18664      6193  TIP3      OH2            25.0837729332       -2.3571223088       21.7352229913  SOLV      6182            0.0000000000
     18665      6193  TIP3      H1             25.3785235077       -3.2992819629       21.7296274929  SOLV      6182            0.0000000000
     18666      6193  TIP3      H2             25.6619522626       -2.0038275608       21.0342913172  SOLV      6182            0.0000000000
     18667      6194  TIP3      OH2            26.7200992858       -1.0425082423       26.5257552678  SOLV      6183            0.0000000000
     18668      6194  TIP3      H1             27.6147119041       -0.7187735449       26.3007085899  SOLV      6183            0.0000000000
     18669      6194  TIP3      H2             26.7409775427       -0.9824144508       27.5103026949  SOLV      6183            0.0000000000
     18670      6195  TIP3      OH2            25.8345032763       -4.9608129351       21.7562682255  SOLV      6184            0.0000000000
     18671      6195  TIP3      H1             26.4327312284       -5.2654596425       22.4761546875  SOLV      6184            0.0000000000
     18672      6195  TIP3      H2             25.2091424701       -5.7105384177       21.7406625760  SOLV      6184            0.0000000000
     18673      6196  TIP3      OH2            13.2210396280       -5.1470392724       30.2940430965  SOLV      6185            0.0000000000
     18674      6196  TIP3      H1             13.8606912975       -5.8782290719       30.3916722857  SOLV      6185            0.0000000000
     18675      6196  TIP3      H2             13.8233063636       -4.3841930109       30.2312002958  SOLV      6185            0.0000000000
     18676      6197  TIP3      OH2            11.3004635895       -2.4730325395       31.1085309886  SOLV      6186            0.0000000000
     18677      6197  TIP3      H1             11.7778867442       -2.4572060577       30.2535121363  SOLV      6186            0.0000000000
     18678      6197  TIP3      H2             11.5081788562       -1.5997729610       31.4591012674  SOLV      6186            0.0000000000
     18679      6198  TIP3      OH2            27.0048291841       -5.7732606445       18.4898357028  SOLV      6187            0.0000000000
     18680      6198  TIP3      H1             27.3854179233       -6.4592344364       17.9039613128  SOLV      6187            0.0000000000
     18681      6198  TIP3      H2             27.6458967523       -5.0439701276       18.3982248857  SOLV      6187            0.0000000000
     18682      6199  TIP3      OH2            11.0598166616       -7.5748725578       26.0031709753  SOLV      6188            0.0000000000
     18683      6199  TIP3      H1             10.1745023726       -7.5234049192       26.4009699463  SOLV      6188            0.0000000000
     18684      6199  TIP3      H2             10.9980531989       -6.9089086246       25.2879297395  SOLV      6188            0.0000000000
     18685      6200  TIP3      OH2            22.5165365488        9.5302921229       21.0006250145  SOLV      6189            0.0000000000
     18686      6200  TIP3      H1             23.1262572650        9.3930945840       20.2653889952  SOLV      6189            0.0000000000
     18687      6200  TIP3      H2             22.9604182014       10.2178880042       21.5262061350  SOLV      6189            0.0000000000
     18688      6201  TIP3      OH2            13.1399241086       -6.9113608595       34.0609550833  SOLV      6190            0.0000000000
     18689      6201  TIP3      H1             13.0310389511       -6.5565001454       34.9484449449  SOLV      6190            0.0000000000
     18690      6201  TIP3      H2             12.5166317941       -6.3434549549       33.5491082736  SOLV      6190            0.0000000000
     18691      6202  TIP3      OH2            15.7778048500        8.2988196109       30.8036102397  SOLV      6191            0.0000000000
     18692      6202  TIP3      H1             15.2243570934        8.9136340721       30.2770266544  SOLV      6191            0.0000000000
     18693      6202  TIP3      H2             16.1020667693        7.7215582805       30.1093391789  SOLV      6191            0.0000000000
     18694      6203  TIP3      OH2            12.0791812008       10.6967502598       30.1817243133  SOLV      6192            0.0000000000
     18695      6203  TIP3      H1             11.1595813732       11.0397686495       30.1775539070  SOLV      6192            0.0000000000
     18696      6203  TIP3      H2             12.3196162685       10.8554592566       31.1132869751  SOLV      6192            0.0000000000
     18697      6204  TIP3      OH2            14.5355490964       10.1308339071       29.1568042719  SOLV      6193            0.0000000000
     18698      6204  TIP3      H1             13.6281635646       10.2797091739       29.5056446795  SOLV      6193            0.0000000000
     18699      6204  TIP3      H2             14.4595516555       10.6031114084       28.3080055774  SOLV      6193            0.0000000000
     18700      6205  TIP3      OH2            11.2958732405        8.4289173327       28.1629343386  SOLV      6194            0.0000000000
     18701      6205  TIP3      H1             11.6161212711        8.3216520623       29.0856983726  SOLV      6194            0.0000000000
     18702      6205  TIP3      H2             12.0520711622        8.0241166548       27.6844804164  SOLV      6194            0.0000000000
     18703      6206  TIP3      OH2            13.3437992624        7.3027737939       26.6683850574  SOLV      6195            0.0000000000
     18704      6206  TIP3      H1             13.4234731319        6.5370988715       27.2915979974  SOLV      6195            0.0000000000
     18705      6206  TIP3      H2             14.2571126798        7.6531720613       26.7030261945  SOLV      6195            0.0000000000
     18706      6207  TIP3      OH2            16.0284167845        8.2299667679       26.7156567941  SOLV      6196            0.0000000000
     18707      6207  TIP3      H1             16.3423636076        7.3144810824       26.5280125544  SOLV      6196            0.0000000000
     18708      6207  TIP3      H2             16.4853484619        8.3659088928       27.5623165222  SOLV      6196            0.0000000000
     18709      6208  TIP3      OH2            21.6783046429       -5.3237890003       27.7282617269  SOLV      6197            0.0000000000
     18710      6208  TIP3      H1             21.1023617225       -6.0047567933       28.1257793249  SOLV      6197            0.0000000000
     18711      6208  TIP3      H2             22.2864670790       -5.8589049144       27.1715820761  SOLV      6197            0.0000000000
     18712      6209  TIP3      OH2            26.3452053824       -6.5359640225       25.8390913725  SOLV      6198            0.0000000000
     18713      6209  TIP3      H1             26.7056242192       -6.0655355000       25.0435912973  SOLV      6198            0.0000000000
     18714      6209  TIP3      H2             26.2645658344       -5.8009909792       26.4870102116  SOLV      6198            0.0000000000
     18715      6210  TIP3      OH2            27.6056376650       -5.8119924619       23.5846525954  SOLV      6199            0.0000000000
     18716      6210  TIP3      H1             28.2858694092       -6.4468473024       23.3127157403  SOLV      6199            0.0000000000
     18717      6210  TIP3      H2             28.1119105347       -4.9654890685       23.5536545260  SOLV      6199            0.0000000000
     18718      6211  TIP3      OH2            14.1528625036       -8.2315240694       27.7623588749  SOLV      6200            0.0000000000
     18719      6211  TIP3      H1             13.2285341414       -8.5596475777       27.8122084742  SOLV      6200            0.0000000000
     18720      6211  TIP3      H2             14.6365509322       -9.0827847641       27.7116462360  SOLV      6200            0.0000000000
     18721      6212  TIP3      OH2            12.1291069645       -9.5031505653       24.2866887161  SOLV      6201            0.0000000000
     18722      6212  TIP3      H1             12.2642634619       -8.8525118933       23.5778662829  SOLV      6201            0.0000000000
     18723      6212  TIP3      H2             11.7662863773       -8.9228715407       24.9939761344  SOLV      6201            0.0000000000
     18724      6213  TIP3      OH2            18.6085541915       -7.9078304915       26.5676253232  SOLV      6202            0.0000000000
     18725      6213  TIP3      H1             19.2083174349       -7.4152613051       25.9840270399  SOLV      6202            0.0000000000
     18726      6213  TIP3      H2             18.8092857710       -7.5018977792       27.4275747843  SOLV      6202            0.0000000000
     18727      6214  TIP3      OH2            23.5137201285       -6.9432713005       26.4366132012  SOLV      6203            0.0000000000
     18728      6214  TIP3      H1             24.0224520929       -6.6594212296       25.6639769233  SOLV      6203            0.0000000000
     18729      6214  TIP3      H2             24.2074084483       -7.3874512285       26.9387355285  SOLV      6203            0.0000000000
     18730      6215  TIP3      OH2            24.2390525327       -7.1854011444       21.9564960074  SOLV      6204            0.0000000000
     18731      6215  TIP3      H1             23.4223474062       -6.7431544121       22.2561689399  SOLV      6204            0.0000000000
     18732      6215  TIP3      H2             24.1279564891       -8.0700744314       22.3629386551  SOLV      6204            0.0000000000
     18733      6216  TIP3      OH2             9.1953550505        6.2579132752       22.0386223562  SOLV      6205            0.0000000000
     18734      6216  TIP3      H1              8.3298436087        5.9584692687       21.7023228428  SOLV      6205            0.0000000000
     18735      6216  TIP3      H2              9.1421355112        7.2010888710       21.8008191053  SOLV      6205            0.0000000000
     18736      6217  TIP3      OH2            13.2175126600       -7.8412323222       21.9908764716  SOLV      6206            0.0000000000
     18737      6217  TIP3      H1             13.8097411568       -8.5875273387       21.8683896161  SOLV      6206            0.0000000000
     18738      6217  TIP3      H2             13.8330733367       -7.1604539730       22.3276536114  SOLV      6206            0.0000000000
     18739      6218  TIP3      OH2            18.3574633825       -6.1916224322       22.9153774677  SOLV      6207            0.0000000000
     18740      6218  TIP3      H1             18.9901103542       -6.5554664911       23.5639912058  SOLV      6207            0.0000000000
     18741      6218  TIP3      H2             18.4727421914       -5.2361999139       23.1342773786  SOLV      6207            0.0000000000
     18742      6219  TIP3      OH2            16.9362261484        8.0177919871       17.8923144335  SOLV      6208            0.0000000000
     18743      6219  TIP3      H1             17.8078496493        8.2611162519       17.5185558296  SOLV      6208            0.0000000000
     18744      6219  TIP3      H2             16.7196183891        7.2544773015       17.3104273650  SOLV      6208            0.0000000000
     18745      6220  TIP3      OH2            24.2933315195        9.2717958337       18.8303525226  SOLV      6209            0.0000000000
     18746      6220  TIP3      H1             24.1935427156        8.2972137264       18.7132814086  SOLV      6209            0.0000000000
     18747      6220  TIP3      H2             23.8069790407        9.5955271123       18.0517915699  SOLV      6209            0.0000000000
     18748      6221  TIP3      OH2             9.9546311854        6.4081486813       18.4565777505  SOLV      6210            0.0000000000
     18749      6221  TIP3      H1             10.0090533148        6.5997906317       19.4027959810  SOLV      6210            0.0000000000
     18750      6221  TIP3      H2             10.8256971615        5.9773737930       18.2847004459  SOLV      6210            0.0000000000
     18751      6222  TIP3      OH2            28.8146933615       -0.4894326362       20.8327353495  SOLV      6211            0.0000000000
     18752      6222  TIP3      H1             28.3170319601        0.3124473769       21.0797573954  SOLV      6211            0.0000000000
     18753      6222  TIP3      H2             28.1071161459       -0.9889209421       20.3859434837  SOLV      6211            0.0000000000
     18754      6223  TIP3      OH2            29.3856307094        2.4474483264       22.5172521423  SOLV      6212            0.0000000000
     18755      6223  TIP3      H1             29.7879295086        1.8564876961       23.1774902690  SOLV      6212            0.0000000000
     18756      6223  TIP3      H2             30.0224204519        2.4049549872       21.8022577418  SOLV      6212            0.0000000000
     18757      6224  TIP3      OH2            30.6158089395        0.1017286568       23.6088939933  SOLV      6213            0.0000000000
     18758      6224  TIP3      H1             31.5543145486        0.2954371188       23.8450498502  SOLV      6213            0.0000000000
     18759      6224  TIP3      H2             30.7584772851       -0.4295845898       22.8061415794  SOLV      6213            0.0000000000
     18760      6225  TIP3      OH2            27.6867736513        4.6447569147       18.1598290350  SOLV      6214            0.0000000000
     18761      6225  TIP3      H1             27.2569601036        4.8879420820       17.3194556552  SOLV      6214            0.0000000000
     18762      6225  TIP3      H2             27.9796051778        5.5265842886       18.4816645123  SOLV      6214            0.0000000000
     18763      6226  TIP3      OH2            32.0823358823        2.2721471133       18.2340337481  SOLV      6215            0.0000000000
     18764      6226  TIP3      H1             31.1966517001        2.5564703776       17.9197311008  SOLV      6215            0.0000000000
     18765      6226  TIP3      H2             31.8760568987        1.5427299790       18.8322445664  SOLV      6215            0.0000000000
     18766      6227  TIP3      OH2            33.3676921337        0.4172670270       20.5144917052  SOLV      6216            0.0000000000
     18767      6227  TIP3      H1             32.7065085639       -0.1876913404       20.8988221108  SOLV      6216            0.0000000000
     18768      6227  TIP3      H2             33.8186475435       -0.1720215944       19.8865557314  SOLV      6216            0.0000000000
     18769      6228  TIP3      OH2            33.6574759020       -3.7832609843       14.8829095590  SOLV      6217            0.0000000000
     18770      6228  TIP3      H1             33.5154760337       -3.7430083803       15.8432309567  SOLV      6217            0.0000000000
     18771      6228  TIP3      H2             32.9349602103       -3.2228284244       14.5546673592  SOLV      6217            0.0000000000
     18772      6229  TIP3      OH2            29.0797473824       -3.5877352566       23.4688031229  SOLV      6218            0.0000000000
     18773      6229  TIP3      H1             29.8657725775       -3.2222988571       23.8971876195  SOLV      6218            0.0000000000
     18774      6229  TIP3      H2             29.3983412924       -3.8423762091       22.5832603621  SOLV      6218            0.0000000000
     18775      6230  TIP3      OH2            28.7545809250       -3.4196086460       18.6162107208  SOLV      6219            0.0000000000
     18776      6230  TIP3      H1             29.1861632505       -3.0387531192       17.8204472786  SOLV      6219            0.0000000000
     18777      6230  TIP3      H2             28.1317032482       -2.6984460571       18.8264840411  SOLV      6219            0.0000000000
     18778      6231  TIP3      OH2            31.3450167251       -1.3009136081       21.3071735447  SOLV      6220            0.0000000000
     18779      6231  TIP3      H1             30.4431585978       -1.0181648968       21.0180657467  SOLV      6220            0.0000000000
     18780      6231  TIP3      H2             31.3305732214       -2.2399177294       21.0911440841  SOLV      6220            0.0000000000
     18781      6232  TIP3      OH2            34.1007865634       -1.3018461706       18.3363495282  SOLV      6221            0.0000000000
     18782      6232  TIP3      H1             34.9348109981       -0.9842372320       17.9762024732  SOLV      6221            0.0000000000
     18783      6232  TIP3      H2             33.4677626585       -1.0667468644       17.6180070228  SOLV      6221            0.0000000000
     18784      6233  TIP3      OH2            32.5412590284       -0.8633766588       16.1635831191  SOLV      6222            0.0000000000
     18785      6233  TIP3      H1             31.7990968805       -1.2962324283       15.7061871988  SOLV      6222            0.0000000000
     18786      6233  TIP3      H2             33.0338719320       -0.5045220165       15.3991969048  SOLV      6222            0.0000000000
     18787      6234  TIP3      OH2            34.8148583447        4.6027356520       16.0177440039  SOLV      6223            0.0000000000
     18788      6234  TIP3      H1             34.2364472630        3.8423788966       15.7962383690  SOLV      6223            0.0000000000
     18789      6234  TIP3      H2             34.7821409260        4.5562054379       16.9930765116  SOLV      6223            0.0000000000
     18790      6235  TIP3      OH2            28.6363379337        0.7703939891       16.2599532641  SOLV      6224            0.0000000000
     18791      6235  TIP3      H1             29.0890680553        1.6098175742       16.4890040001  SOLV      6224            0.0000000000
     18792      6235  TIP3      H2             27.8556830055        0.8182449661       16.8576083833  SOLV      6224            0.0000000000
     18793      6236  TIP3      OH2            32.7422220638        6.4068677606       12.3380858644  SOLV      6225            0.0000000000
     18794      6236  TIP3      H1             33.1454148420        5.5608618205       12.0924596998  SOLV      6225            0.0000000000
     18795      6236  TIP3      H2             32.6998434769        6.3366505934       13.3166978229  SOLV      6225            0.0000000000
     18796      6237  TIP3      OH2            32.6201469821        6.3783472956       15.1282720849  SOLV      6226            0.0000000000
     18797      6237  TIP3      H1             33.3306464706        5.8001282138       15.4468848682  SOLV      6226            0.0000000000
     18798      6237  TIP3      H2             32.7490596631        7.1437327692       15.7255097079  SOLV      6226            0.0000000000
     18799      6238  TIP3      OH2            29.7261264696        3.1996609352       17.0503072812  SOLV      6227            0.0000000000
     18800      6238  TIP3      H1             29.0258348620        3.6176059687       17.5992433308  SOLV      6227            0.0000000000
     18801      6238  TIP3      H2             29.8428818022        3.8983436033       16.3765783718  SOLV      6227            0.0000000000
     18802      6239  TIP3      OH2            33.4402024797       -3.9693536124       17.6953015089  SOLV      6228            0.0000000000
     18803      6239  TIP3      H1             33.5373602054       -3.0693640932       18.0667722671  SOLV      6228            0.0000000000
     18804      6239  TIP3      H2             34.3878929584       -4.1863603182       17.5379523103  SOLV      6228            0.0000000000
     18805      6240  TIP3      OH2            29.7408876386        5.2660416765       15.0984698200  SOLV      6229            0.0000000000
     18806      6240  TIP3      H1             30.4013396373        5.9725224722       15.2010183095  SOLV      6229            0.0000000000
     18807      6240  TIP3      H2             30.1876989849        4.7127741962       14.4216442764  SOLV      6229            0.0000000000
     18808      6241  TIP3      OH2            29.1404169806       -1.9376302979       16.3604282410  SOLV      6230            0.0000000000
     18809      6241  TIP3      H1             29.0803780601       -0.9596018667       16.3873714463  SOLV      6230            0.0000000000
     18810      6241  TIP3      H2             28.3354395754       -2.1807501287       15.8906196791  SOLV      6230            0.0000000000
     18811      6242  TIP3      OH2            28.2867978533        7.2657047102       18.6996429772  SOLV      6231            0.0000000000
     18812      6242  TIP3      H1             27.5472275068        7.6574459222       19.1839787504  SOLV      6231            0.0000000000
     18813      6242  TIP3      H2             28.2610419298        7.8268181297       17.8983630450  SOLV      6231            0.0000000000
     18814      6243  TIP3      OH2            34.3432247967        8.4706989289       11.2712837561  SOLV      6232            0.0000000000
     18815      6243  TIP3      H1             33.8084791285        7.7841817137       11.7119153082  SOLV      6232            0.0000000000
     18816      6243  TIP3      H2             35.0647155072        7.9453190748       10.9012781283  SOLV      6232            0.0000000000
     18817      6244  TIP3      OH2            31.1381257608        3.4293387550       13.6071044238  SOLV      6233            0.0000000000
     18818      6244  TIP3      H1             31.6698890806        3.0969150939       14.3563529289  SOLV      6233            0.0000000000
     18819      6244  TIP3      H2             31.8331097202        3.4903283648       12.9209604322  SOLV      6233            0.0000000000
     18820      6245  TIP3      OH2            35.7600011090        5.5114031272       11.6715357999  SOLV      6234            0.0000000000
     18821      6245  TIP3      H1             36.1416398137        5.5635867336       12.5710935219  SOLV      6234            0.0000000000
     18822      6245  TIP3      H2             35.6393545559        4.5643734364       11.5671044711  SOLV      6234            0.0000000000
     18823      6246  TIP3      OH2            33.0494829194        2.5366140245       15.6458537359  SOLV      6235            0.0000000000
     18824      6246  TIP3      H1             32.7565046595        2.3061867263       16.5545848422  SOLV      6235            0.0000000000
     18825      6246  TIP3      H2             33.3674082166        1.6773118158       15.3056278838  SOLV      6235            0.0000000000
     18826      6247  TIP3      OH2            34.0474289754        0.3666900359       14.2282489337  SOLV      6236            0.0000000000
     18827      6247  TIP3      H1             33.7040665739        0.2920992160       13.3171741755  SOLV      6236            0.0000000000
     18828      6247  TIP3      H2             34.9971506741        0.3471116997       14.0650276326  SOLV      6236            0.0000000000
     18829      6248  TIP3      OH2            27.0175410507        4.8932177637       15.3774792530  SOLV      6237            0.0000000000
     18830      6248  TIP3      H1             27.9748869098        5.0878770779       15.2816438055  SOLV      6237            0.0000000000
     18831      6248  TIP3      H2             26.9596681254        4.0007613315       14.9717749959  SOLV      6237            0.0000000000
     18832      6249  TIP3      OH2           -12.7169774421      -26.1223895601      -17.0659573562  SOLV      6238            0.0000000000
     18833      6249  TIP3      H1            -12.7252239971      -26.9984542320      -17.5679058762  SOLV      6238            0.0000000000
     18834      6249  TIP3      H2            -12.0702935800      -26.3094533890      -16.3580371465  SOLV      6238            0.0000000000
     18835      6250  TIP3      OH2            29.2788298317        0.0716374814       25.9610729964  SOLV      6239            0.0000000000
     18836      6250  TIP3      H1             29.5299418877       -0.0938572505       25.0252366254  SOLV      6239            0.0000000000
     18837      6250  TIP3      H2             29.6082133232        0.9758646925       26.0511095431  SOLV      6239            0.0000000000
     18838      6251  TIP3      OH2            28.7900219204       -4.8098911714       20.9048368973  SOLV      6240            0.0000000000
     18839      6251  TIP3      H1             27.8243290780       -4.8861798662       20.9554095847  SOLV      6240            0.0000000000
     18840      6251  TIP3      H2             28.8959161655       -4.2423372587       20.1139743307  SOLV      6240            0.0000000000
     18841      6252  TIP3      OH2            30.0821637022       -6.8493314996       19.1629579464  SOLV      6241            0.0000000000
     18842      6252  TIP3      H1             30.3061803615       -6.2857811269       18.4021164086  SOLV      6241            0.0000000000
     18843      6252  TIP3      H2             29.7665733901       -6.2053515448       19.8206762653  SOLV      6241            0.0000000000
     18844      6253  TIP3      OH2            27.1805792638        8.8943208034       16.8008445217  SOLV      6242            0.0000000000
     18845      6253  TIP3      H1             26.2931383126        8.5863613992       16.5263833247  SOLV      6242            0.0000000000
     18846      6253  TIP3      H2             27.1628497398        9.7933079641       16.4291765206  SOLV      6242            0.0000000000
     18847      6254  TIP3      OH2            31.1942658814       -5.3547843988       16.7850409537  SOLV      6243            0.0000000000
     18848      6254  TIP3      H1             31.6915836472       -5.9491118916       16.1910368506  SOLV      6243            0.0000000000
     18849      6254  TIP3      H2             31.9165869974       -4.8142210957       17.1664993001  SOLV      6243            0.0000000000
     18850      6255  TIP3      OH2            27.9550115727        8.9731897304       13.3072537015  SOLV      6244            0.0000000000
     18851      6255  TIP3      H1             27.9314835753        9.2263343497       14.2416061716  SOLV      6244            0.0000000000
     18852      6255  TIP3      H2             28.8452619842        8.5644807070       13.2205715997  SOLV      6244            0.0000000000
     18853      6256  TIP3      OH2           -18.5874838848       14.5871544994       30.0637829611  SOLV      6245            0.0000000000
     18854      6256  TIP3      H1            -18.1599054317       15.3997028847       30.3993990368  SOLV      6245            0.0000000000
     18855      6256  TIP3      H2            -19.5071675617       14.8323188239       30.1849504125  SOLV      6245            0.0000000000
     18856      6257  TIP3      OH2           -15.8688862476        9.7947547577       30.5101558579  SOLV      6246            0.0000000000
     18857      6257  TIP3      H1            -15.0720537015        9.7495399383       31.0926879508  SOLV      6246            0.0000000000
     18858      6257  TIP3      H2            -15.4319312215        9.9739686061       29.6537586884  SOLV      6246            0.0000000000
     18859      6258  TIP3      OH2           -20.3809272695       17.1964920248       28.6749323495  SOLV      6247            0.0000000000
     18860      6258  TIP3      H1            -19.7625822176       16.8705542911       28.0150050929  SOLV      6247            0.0000000000
     18861      6258  TIP3      H2            -19.8143479677       17.6393267702       29.2890115534  SOLV      6247            0.0000000000
     18862      6259  TIP3      OH2           -13.8287551663        9.9431426992       32.3101061982  SOLV      6248            0.0000000000
     18863      6259  TIP3      H1            -13.3828129575        9.2914585515       32.8703063603  SOLV      6248            0.0000000000
     18864      6259  TIP3      H2            -13.1872680944       10.6674400931       32.4181613014  SOLV      6248            0.0000000000
     18865      6260  TIP3      OH2           -16.7853766027       18.2212733510       28.0688733406  SOLV      6249            0.0000000000
     18866      6260  TIP3      H1            -16.7783507415       17.5701344448       27.3545340250  SOLV      6249            0.0000000000
     18867      6260  TIP3      H2            -16.1187772866       17.8631404051       28.6670097572  SOLV      6249            0.0000000000
     18868      6261  TIP3      OH2           -11.8679917207       15.1603020156       33.8419883768  SOLV      6250            0.0000000000
     18869      6261  TIP3      H1            -11.9401234113       15.8526818698       34.5136720416  SOLV      6250            0.0000000000
     18870      6261  TIP3      H2            -11.4752482921       15.6740281362       33.1031835638  SOLV      6250            0.0000000000
     18871      6262  TIP3      OH2           -16.7026790561       14.2009183918       28.0811265785  SOLV      6251            0.0000000000
     18872      6262  TIP3      H1            -17.2835146666       14.3005785112       28.8589818176  SOLV      6251            0.0000000000
     18873      6262  TIP3      H2            -15.8661820877       13.8928176757       28.4914966583  SOLV      6251            0.0000000000
     18874      6263  TIP3      OH2           -13.1279966325        5.1824249955       26.8795765373  SOLV      6252            0.0000000000
     18875      6263  TIP3      H1            -13.9297997075        5.4199550486       27.3931974342  SOLV      6252            0.0000000000
     18876      6263  TIP3      H2            -12.9879174468        6.0051330677       26.3649939414  SOLV      6252            0.0000000000
     18877      6264  TIP3      OH2           -15.0629877028       18.8254745593       22.4636624203  SOLV      6253            0.0000000000
     18878      6264  TIP3      H1            -15.0000171126       19.7842273304       22.2563012363  SOLV      6253            0.0000000000
     18879      6264  TIP3      H2            -14.1382964927       18.5367102487       22.2977099294  SOLV      6253            0.0000000000
     18880      6265  TIP3      OH2           -19.9043906197       21.0264262343       23.5011607815  SOLV      6254            0.0000000000
     18881      6265  TIP3      H1            -19.4420711334       20.2634102825       23.0886887923  SOLV      6254            0.0000000000
     18882      6265  TIP3      H2            -19.3487299622       21.2016825083       24.2635275557  SOLV      6254            0.0000000000
     18883      6266  TIP3      OH2           -17.7769005613       13.3523679267       23.8342655355  SOLV      6255            0.0000000000
     18884      6266  TIP3      H1            -17.9351441489       12.9746535312       22.9500006302  SOLV      6255            0.0000000000
     18885      6266  TIP3      H2            -16.8553227469       13.6538004481       23.7252963628  SOLV      6255            0.0000000000
     18886      6267  TIP3      OH2           -20.3618959413        7.0462170120       26.6533571617  SOLV      6256            0.0000000000
     18887      6267  TIP3      H1            -20.5872425778        7.0658926992       27.6125568447  SOLV      6256            0.0000000000
     18888      6267  TIP3      H2            -20.7674548958        6.1940590756       26.4039445955  SOLV      6256            0.0000000000
     18889      6268  TIP3      OH2           -18.9167830015       11.5247430987       29.3558246464  SOLV      6257            0.0000000000
     18890      6268  TIP3      H1            -18.7660764261       12.4674614055       29.4076241777  SOLV      6257            0.0000000000
     18891      6268  TIP3      H2            -18.2753636117       11.2452816206       28.6555133028  SOLV      6257            0.0000000000
     18892      6269  TIP3      OH2           -17.0681123013       11.8284477219       31.9260129679  SOLV      6258            0.0000000000
     18893      6269  TIP3      H1            -17.5524790673       12.3639836920       31.2839910639  SOLV      6258            0.0000000000
     18894      6269  TIP3      H2            -16.7321944789       11.1028549933       31.3684628700  SOLV      6258            0.0000000000
     18895      6270  TIP3      OH2           -23.6626790432        6.7524685710       26.5793421329  SOLV      6259            0.0000000000
     18896      6270  TIP3      H1            -23.8029913618        6.6460272535       27.5434481525  SOLV      6259            0.0000000000
     18897      6270  TIP3      H2            -24.5112280118        7.1317156191       26.3006894354  SOLV      6259            0.0000000000
     18898      6271  TIP3      OH2           -23.2828689086        9.0410643254       30.0144135851  SOLV      6260            0.0000000000
     18899      6271  TIP3      H1            -22.4255790904        9.4897229059       30.0330659602  SOLV      6260            0.0000000000
     18900      6271  TIP3      H2            -23.7848729389        9.5357544658       29.3358816745  SOLV      6260            0.0000000000
     18901      6272  TIP3      OH2           -24.9466815361        9.9562187578       27.9369720847  SOLV      6261            0.0000000000
     18902      6272  TIP3      H1            -25.6677929066        9.4481817452       28.3435164260  SOLV      6261            0.0000000000
     18903      6272  TIP3      H2            -24.9256206278        9.5667508888       27.0462539185  SOLV      6261            0.0000000000
     18904      6273  TIP3      OH2           -22.1328010549       14.4079038346       27.5734703856  SOLV      6262            0.0000000000
     18905      6273  TIP3      H1            -22.9780186907       13.8828230574       27.6591530095  SOLV      6262            0.0000000000
     18906      6273  TIP3      H2            -22.2678377950       15.0029014588       28.3403902091  SOLV      6262            0.0000000000
     18907      6274  TIP3      OH2           -17.8802743856        8.1236947926       26.6660297944  SOLV      6263            0.0000000000
     18908      6274  TIP3      H1            -18.8335413851        7.8739468827       26.6203081919  SOLV      6263            0.0000000000
     18909      6274  TIP3      H2            -17.9054602138        9.0942017693       26.7146493760  SOLV      6263            0.0000000000
     18910      6275  TIP3      OH2           -17.0830368927       10.8550240636       27.3812856994  SOLV      6264            0.0000000000
     18911      6275  TIP3      H1            -16.1730498887       10.6346750400       27.6673719647  SOLV      6264            0.0000000000
     18912      6275  TIP3      H2            -16.8953202267       11.4243176216       26.6228043082  SOLV      6264            0.0000000000
     18913      6276  TIP3      OH2           -21.0958649341       16.3384597257       25.9740179176  SOLV      6265            0.0000000000
     18914      6276  TIP3      H1            -21.4123648243       17.2490481046       26.0733213374  SOLV      6265            0.0000000000
     18915      6276  TIP3      H2            -21.5528077536       15.8963424848       26.7050231619  SOLV      6265            0.0000000000
     18916      6277  TIP3      OH2           -12.8530450172       11.4804002220       25.9710870329  SOLV      6266            0.0000000000
     18917      6277  TIP3      H1            -13.4718489736       11.0447655879       25.3365807456  SOLV      6266            0.0000000000
     18918      6277  TIP3      H2            -12.8440781792       12.3671508581       25.5450797607  SOLV      6266            0.0000000000
     18919      6278  TIP3      OH2           -15.8734799177       19.5343804499       25.0103188391  SOLV      6267            0.0000000000
     18920      6278  TIP3      H1            -15.9220551332       18.7290860250       25.5324826077  SOLV      6267            0.0000000000
     18921      6278  TIP3      H2            -15.6227978991       19.1991999741       24.1260310791  SOLV      6267            0.0000000000
     18922      6279  TIP3      OH2           -18.1289644138       16.9458798339       24.0922601277  SOLV      6268            0.0000000000
     18923      6279  TIP3      H1            -17.6042234055       16.6234394465       24.8559388840  SOLV      6268            0.0000000000
     18924      6279  TIP3      H2            -18.9560863855       16.4507289067       24.1987387989  SOLV      6268            0.0000000000
     18925      6280  TIP3      OH2           -14.9032318857       21.5780506959       22.2580032671  SOLV      6269            0.0000000000
     18926      6280  TIP3      H1            -14.6458020438       22.2284502166       21.5846954080  SOLV      6269            0.0000000000
     18927      6280  TIP3      H2            -15.7054464790       22.0152359682       22.6163632519  SOLV      6269            0.0000000000
     18928      6281  TIP3      OH2           -16.5488527088       16.1931804124       26.2333472678  SOLV      6270            0.0000000000
     18929      6281  TIP3      H1            -16.6626864047       15.3930970532       26.8010798047  SOLV      6270            0.0000000000
     18930      6281  TIP3      H2            -15.5871640355       16.1122968770       26.0326383213  SOLV      6270            0.0000000000
     18931      6282  TIP3      OH2           -24.0036335607       16.3200138385       24.3816314693  SOLV      6271            0.0000000000
     18932      6282  TIP3      H1            -24.2803586215       15.4378275520       24.0690629463  SOLV      6271            0.0000000000
     18933      6282  TIP3      H2            -24.6342286731       16.5258133754       25.0923997105  SOLV      6271            0.0000000000
     18934      6283  TIP3      OH2           -17.2481418888        7.4272897186       29.3012068904  SOLV      6272            0.0000000000
     18935      6283  TIP3      H1            -17.4960461649        7.6869029843       28.3903210958  SOLV      6272            0.0000000000
     18936      6283  TIP3      H2            -17.0281295945        8.2706521618       29.7175877206  SOLV      6272            0.0000000000
     18937      6284  TIP3      OH2           -20.4443837997        9.5315528755       30.6698005963  SOLV      6273            0.0000000000
     18938      6284  TIP3      H1            -19.9291422692       10.1362132974       30.0994844452  SOLV      6273            0.0000000000
     18939      6284  TIP3      H2            -20.1507521862        9.8574115358       31.5439583618  SOLV      6273            0.0000000000
     18940      6285  TIP3      OH2           -23.9942179512        6.4856596632       29.3489941386  SOLV      6274            0.0000000000
     18941      6285  TIP3      H1            -23.7201944155        7.3849387595       29.6366879731  SOLV      6274            0.0000000000
     18942      6285  TIP3      H2            -23.3946400130        5.9318514493       29.8871183140  SOLV      6274            0.0000000000
     18943      6286  TIP3      OH2           -14.8513052983       13.5373630904       32.0490057575  SOLV      6275            0.0000000000
     18944      6286  TIP3      H1            -15.5831329556       12.9522590776       32.3118722810  SOLV      6275            0.0000000000
     18945      6286  TIP3      H2            -14.1042219432       13.2110768778       32.5923057722  SOLV      6275            0.0000000000
     18946      6287  TIP3      OH2           -22.9725183998       18.4807446396       23.0005996666  SOLV      6276            0.0000000000
     18947      6287  TIP3      H1            -23.3323921074       17.7765829476       23.5813129896  SOLV      6276            0.0000000000
     18948      6287  TIP3      H2            -22.0978661063       18.1360537377       22.7638891338  SOLV      6276            0.0000000000
     18949      6288  TIP3      OH2           -18.5484491640       19.0462441554       22.2351301291  SOLV      6277            0.0000000000
     18950      6288  TIP3      H1            -18.0594222331       18.4537223151       22.8364384346  SOLV      6277            0.0000000000
     18951      6288  TIP3      H2            -17.9989957159       19.0387393176       21.4241860338  SOLV      6277            0.0000000000
     18952      6289  TIP3      OH2           -21.0227054923       15.6751029720       23.3583411999  SOLV      6278            0.0000000000
     18953      6289  TIP3      H1            -21.1739176020       15.9728142156       24.2831468049  SOLV      6278            0.0000000000
     18954      6289  TIP3      H2            -21.7551340158       15.0731407817       23.2329245670  SOLV      6278            0.0000000000
     18955      6290  TIP3      OH2           -24.1207076430       12.6717604714       27.7012348921  SOLV      6279            0.0000000000
     18956      6290  TIP3      H1            -24.7391094010       12.1856559169       28.2634846518  SOLV      6279            0.0000000000
     18957      6290  TIP3      H2            -23.8229928322       11.9398247806       27.1229529952  SOLV      6279            0.0000000000
     18958      6291  TIP3      OH2           -22.8825772001       11.1546245025       25.6827660772  SOLV      6280            0.0000000000
     18959      6291  TIP3      H1            -23.6606832958       11.0671921518       25.0883932109  SOLV      6280            0.0000000000
     18960      6291  TIP3      H2            -22.4061902653       10.3708536084       25.4255582426  SOLV      6280            0.0000000000
     18961      6292  TIP3      OH2           -15.2819107105       14.1264501023       22.7659279921  SOLV      6281            0.0000000000
     18962      6292  TIP3      H1            -15.4102145765       13.6845276313       21.9039960565  SOLV      6281            0.0000000000
     18963      6292  TIP3      H2            -15.5624411555       15.0343990349       22.5085848266  SOLV      6281            0.0000000000
     18964      6293  TIP3      OH2           -13.8095127692       16.0765966166       25.9916108399  SOLV      6282            0.0000000000
     18965      6293  TIP3      H1            -13.1245535309       16.6874450763       25.6404369854  SOLV      6282            0.0000000000
     18966      6293  TIP3      H2            -13.3243262824       15.6755248239       26.7488583620  SOLV      6282            0.0000000000
     18967      6294  TIP3      OH2           -12.5178362162       14.7655346396       28.0160775706  SOLV      6283            0.0000000000
     18968      6294  TIP3      H1            -13.1672514005       14.3251252394       28.6039172764  SOLV      6283            0.0000000000
     18969      6294  TIP3      H2            -11.8435355925       15.0947499423       28.6454824039  SOLV      6283            0.0000000000
     18970      6295  TIP3      OH2           -13.1643878926       13.8144841319       24.4976568349  SOLV      6284            0.0000000000
     18971      6295  TIP3      H1            -13.8880480384       13.8155685452       23.8309140482  SOLV      6284            0.0000000000
     18972      6295  TIP3      H2            -13.4228203051       14.5945551561       25.0243460061  SOLV      6284            0.0000000000
     18973      6296  TIP3      OH2           -14.5864268010       10.5685286520       24.0958539137  SOLV      6285            0.0000000000
     18974      6296  TIP3      H1            -14.8174766086       10.8710219838       23.2111014360  SOLV      6285            0.0000000000
     18975      6296  TIP3      H2            -14.7575831161        9.6032682064       24.0089982741  SOLV      6285            0.0000000000
     18976      6297  TIP3      OH2           -14.4336635074       13.3144675773       29.3948830941  SOLV      6286            0.0000000000
     18977      6297  TIP3      H1            -14.2246003380       12.3682366481       29.3791328467  SOLV      6286            0.0000000000
     18978      6297  TIP3      H2            -14.5223958136       13.4873516489       30.3628790223  SOLV      6286            0.0000000000
     18979      6298  TIP3      OH2           -15.0213249285        7.9041547240       23.8926273589  SOLV      6287            0.0000000000
     18980      6298  TIP3      H1            -14.2720583589        7.5520163987       24.4141597782  SOLV      6287            0.0000000000
     18981      6298  TIP3      H2            -15.7384170001        7.2743551814       24.0641030965  SOLV      6287            0.0000000000
     18982      6299  TIP3      OH2           -14.4337496554       10.4251340509       28.1879772468  SOLV      6288            0.0000000000
     18983      6299  TIP3      H1            -13.9840904048        9.5569674499       28.3308343988  SOLV      6288            0.0000000000
     18984      6299  TIP3      H2            -13.8444870848       10.8091376875       27.5081861572  SOLV      6288            0.0000000000
     18985      6300  TIP3      OH2           -12.7622145053       12.4347541291       33.4190983005  SOLV      6289            0.0000000000
     18986      6300  TIP3      H1            -11.8720309172       12.3803875162       32.9999194314  SOLV      6289            0.0000000000
     18987      6300  TIP3      H2            -12.5850261206       13.2019543009       33.9891662894  SOLV      6289            0.0000000000
     18988      6301  TIP3      OH2           -13.3566651089        7.9900639772       28.7557111511  SOLV      6290            0.0000000000
     18989      6301  TIP3      H1            -12.8860566503        7.7894453593       29.5912887288  SOLV      6290            0.0000000000
     18990      6301  TIP3      H2            -13.9734958402        7.2282473648       28.7158711891  SOLV      6290            0.0000000000
     18991      6302  TIP3      OH2           -12.5744583941        7.2663399098       25.1470182788  SOLV      6291            0.0000000000
     18992      6302  TIP3      H1            -12.1714261093        6.5909095684       24.5623067327  SOLV      6291            0.0000000000
     18993      6302  TIP3      H2            -11.9141814195        7.9865820704       25.1184527190  SOLV      6291            0.0000000000
     18994      6303  TIP3      OH2           -11.8350928940        7.3385322886       30.9570955978  SOLV      6292            0.0000000000
     18995      6303  TIP3      H1            -11.0514248937        6.8838169848       30.5842564890  SOLV      6292            0.0000000000
     18996      6303  TIP3      H2            -11.5011084513        8.2653230296       30.9244553529  SOLV      6292            0.0000000000
     18997      6304  TIP3      OH2           -15.0905388808        5.8503594722       28.6806774111  SOLV      6293            0.0000000000
     18998      6304  TIP3      H1            -15.9244494320        6.3143117124       28.9148175819  SOLV      6293            0.0000000000
     18999      6304  TIP3      H2            -15.2546386997        4.9733226703       29.0891467778  SOLV      6293            0.0000000000
     19000      6305  TIP3      OH2           -26.3009034963        5.0539678229       28.9017490078  SOLV      6294            0.0000000000
     19001      6305  TIP3      H1            -25.9884788061        4.3944457976       28.2643636894  SOLV      6294            0.0000000000
     19002      6305  TIP3      H2            -25.4582252529        5.5068899143       29.0901058514  SOLV      6294            0.0000000000
     19003      6306  TIP3      OH2           -20.8057653435        7.0732583878       29.3496412207  SOLV      6295            0.0000000000
     19004      6306  TIP3      H1            -21.2340814395        6.4884967119       29.9807441201  SOLV      6295            0.0000000000
     19005      6306  TIP3      H2            -20.6139349781        7.8754659487       29.8799752918  SOLV      6295            0.0000000000
     19006      6307  TIP3      OH2           -15.5497476999       22.1531122372       25.6280142670  SOLV      6296            0.0000000000
     19007      6307  TIP3      H1            -15.6166121183       21.1940755389       25.4253422391  SOLV      6296            0.0000000000
     19008      6307  TIP3      H2            -15.9070043237       22.5339345194       24.8042643547  SOLV      6296            0.0000000000
     19009      6308  TIP3      OH2            -0.5125765982       17.4533808832       25.0049214534  SOLV      6297            0.0000000000
     19010      6308  TIP3      H1             -0.8303064132       18.3491417957       24.7627741992  SOLV      6297            0.0000000000
     19011      6308  TIP3      H2             -1.2176476250       16.9164430387       24.5984303304  SOLV      6297            0.0000000000
     19012      6309  TIP3      OH2            -0.6479581836       17.5222185013       28.8938695465  SOLV      6298            0.0000000000
     19013      6309  TIP3      H1             -0.2297407076       17.2050504548       29.7180447967  SOLV      6298            0.0000000000
     19014      6309  TIP3      H2             -0.9445574044       16.6894145288       28.4922627164  SOLV      6298            0.0000000000
     19015      6310  TIP3      OH2            -7.4337985004       16.4892408243       32.3595922143  SOLV      6299            0.0000000000
     19016      6310  TIP3      H1             -7.1601160963       15.8777392500       33.0678492538  SOLV      6299            0.0000000000
     19017      6310  TIP3      H2             -6.5920616321       16.6223520528       31.8972146249  SOLV      6299            0.0000000000
     19018      6311  TIP3      OH2             1.9634049502       20.2565251021       25.5223540258  SOLV      6300            0.0000000000
     19019      6311  TIP3      H1              1.8330309050       19.6976156252       26.2971233618  SOLV      6300            0.0000000000
     19020      6311  TIP3      H2              2.1561550402       21.1256413814       25.9417166830  SOLV      6300            0.0000000000
     19021      6312  TIP3      OH2            -7.5056794473       20.6270737117       29.7530420343  SOLV      6301            0.0000000000
     19022      6312  TIP3      H1             -7.7092055771       19.6609115219       29.7404475121  SOLV      6301            0.0000000000
     19023      6312  TIP3      H2             -6.6234715355       20.5955937518       29.3318847472  SOLV      6301            0.0000000000
     19024      6313  TIP3      OH2           -10.7596099072       12.4800971950       27.5261586336  SOLV      6302            0.0000000000
     19025      6313  TIP3      H1            -11.2077656289       13.3297359591       27.6661265525  SOLV      6302            0.0000000000
     19026      6313  TIP3      H2            -11.4581866147       11.9854549664       27.0641527257  SOLV      6302            0.0000000000
     19027      6314  TIP3      OH2           -10.1322045620       15.4070942355       29.2823240384  SOLV      6303            0.0000000000
     19028      6314  TIP3      H1             -9.6094657537       14.6542870600       29.6394809944  SOLV      6303            0.0000000000
     19029      6314  TIP3      H2             -9.6125061866       15.6479580962       28.5038671188  SOLV      6303            0.0000000000
     19030      6315  TIP3      OH2            -1.5348741888       25.0400290742       25.8166228290  SOLV      6304            0.0000000000
     19031      6315  TIP3      H1             -1.2132779764       24.3217416546       25.2378385555  SOLV      6304            0.0000000000
     19032      6315  TIP3      H2             -1.1609200111       24.7752345040       26.6708574585  SOLV      6304            0.0000000000
     19033      6316  TIP3      OH2            -2.4806896116       19.6764291333       29.3151252391  SOLV      6305            0.0000000000
     19034      6316  TIP3      H1             -2.0448940338       18.8977783954       28.9123432734  SOLV      6305            0.0000000000
     19035      6316  TIP3      H2             -1.6693748632       20.1657606803       29.5716580044  SOLV      6305            0.0000000000
     19036      6317  TIP3      OH2             7.4633475216       12.6910862737       29.0445802254  SOLV      6306            0.0000000000
     19037      6317  TIP3      H1              7.6961278911       13.4531906320       29.6213063256  SOLV      6306            0.0000000000
     19038      6317  TIP3      H2              7.8869879782       12.9426442008       28.2076810730  SOLV      6306            0.0000000000
     19039      6318  TIP3      OH2             1.5316385296       14.7633934896       29.5782305283  SOLV      6307            0.0000000000
     19040      6318  TIP3      H1              1.9781298077       13.9189882893       29.7950441228  SOLV      6307            0.0000000000
     19041      6318  TIP3      H2              1.2446364626       14.5748705509       28.6641582155  SOLV      6307            0.0000000000
     19042      6319  TIP3      OH2            -5.0051685603       11.3060246577       29.2691245979  SOLV      6308            0.0000000000
     19043      6319  TIP3      H1             -5.1705916713       12.0301501872       28.6285247019  SOLV      6308            0.0000000000
     19044      6319  TIP3      H2             -5.4715434474       10.5739482004       28.8072910118  SOLV      6308            0.0000000000
     19045      6320  TIP3      OH2             1.9603768814       12.2413464288       25.4660772824  SOLV      6309            0.0000000000
     19046      6320  TIP3      H1              2.6779602666       12.1183270671       26.1323021310  SOLV      6309            0.0000000000
     19047      6320  TIP3      H2              2.4820131795       12.5805324749       24.7161630612  SOLV      6309            0.0000000000
     19048      6321  TIP3      OH2            -8.5991615737       13.3967115704       30.3001553512  SOLV      6310            0.0000000000
     19049      6321  TIP3      H1             -7.7985322518       13.1285899001       30.7876721163  SOLV      6310            0.0000000000
     19050      6321  TIP3      H2             -8.5090762037       12.8265907133       29.5048280606  SOLV      6310            0.0000000000
     19051      6322  TIP3      OH2            -4.3203011394       15.2865860908       28.4218189083  SOLV      6311            0.0000000000
     19052      6322  TIP3      H1             -3.3674707707       15.0595338068       28.4806074184  SOLV      6311            0.0000000000
     19053      6322  TIP3      H2             -4.6922137515       14.4637265265       28.0337229603  SOLV      6311            0.0000000000
     19054      6323  TIP3      OH2             7.8911860858       14.5813602935       30.9300225513  SOLV      6312            0.0000000000
     19055      6323  TIP3      H1              7.1594289041       15.2041292465       30.7324583117  SOLV      6312            0.0000000000
     19056      6323  TIP3      H2              7.8940482058       14.5917587222       31.8925812976  SOLV      6312            0.0000000000
     19057      6324  TIP3      OH2            -5.1215872420       11.1084457705       33.6486133239  SOLV      6313            0.0000000000
     19058      6324  TIP3      H1             -5.6719805221       11.5443663425       32.9624240748  SOLV      6313            0.0000000000
     19059      6324  TIP3      H2             -5.7810888703       10.8121272087       34.2813920433  SOLV      6313            0.0000000000
     19060      6325  TIP3      OH2            -1.7385613657       19.5890784367       23.7275675747  SOLV      6314            0.0000000000
     19061      6325  TIP3      H1             -1.9941024005       19.5090461943       22.7984475006  SOLV      6314            0.0000000000
     19062      6325  TIP3      H2             -2.1593489093       20.4363439265       23.9743892385  SOLV      6314            0.0000000000
     19063      6326  TIP3      OH2            -3.9496197578       18.9126920107       31.4718031926  SOLV      6315            0.0000000000
     19064      6326  TIP3      H1             -4.6686898614       19.5467725564       31.5493387672  SOLV      6315            0.0000000000
     19065      6326  TIP3      H2             -3.4398807402       19.2696196671       30.7092326855  SOLV      6315            0.0000000000
     19066      6327  TIP3      OH2             3.9693257943       12.3204094234       27.2781459815  SOLV      6316            0.0000000000
     19067      6327  TIP3      H1              3.9515612974       11.8457212458       28.1164000801  SOLV      6316            0.0000000000
     19068      6327  TIP3      H2              4.5380931690       13.0837766298       27.4999481575  SOLV      6316            0.0000000000
     19069      6328  TIP3      OH2            -6.2987601962       12.2917936921       31.4617446166  SOLV      6317            0.0000000000
     19070      6328  TIP3      H1             -5.6509153222       13.0163012773       31.6129535670  SOLV      6317            0.0000000000
     19071      6328  TIP3      H2             -5.8729288818       11.8606341106       30.6829646215  SOLV      6317            0.0000000000
     19072      6329  TIP3      OH2           -11.8728431763       17.7308320308       24.8787258580  SOLV      6318            0.0000000000
     19073      6329  TIP3      H1            -12.1624187283       17.9806296274       23.9801404645  SOLV      6318            0.0000000000
     19074      6329  TIP3      H2            -11.5590247552       18.5864342110       25.2382496581  SOLV      6318            0.0000000000
     19075      6330  TIP3      OH2             2.3932205254       22.5996759278       26.8011433310  SOLV      6319            0.0000000000
     19076      6330  TIP3      H1              1.6521987156       22.6867388537       27.4349548689  SOLV      6319            0.0000000000
     19077      6330  TIP3      H2              2.5605041269       23.5398321330       26.5808579860  SOLV      6319            0.0000000000
     19078      6331  TIP3      OH2             5.4341687169       11.7176699823       30.7718704444  SOLV      6320            0.0000000000
     19079      6331  TIP3      H1              4.6669326721       12.2367902147       30.5014424366  SOLV      6320            0.0000000000
     19080      6331  TIP3      H2              6.1384858663       12.0458593120       30.1744176329  SOLV      6320            0.0000000000
     19081      6332  TIP3      OH2            -1.5261897313        8.2984209457       30.6999661074  SOLV      6321            0.0000000000
     19082      6332  TIP3      H1             -1.6308603321        7.3462559945       30.8934137446  SOLV      6321            0.0000000000
     19083      6332  TIP3      H2             -2.2994865193        8.6632152772       31.1817839936  SOLV      6321            0.0000000000
     19084      6333  TIP3      OH2            -0.4591286551       23.3918614274       23.8626017190  SOLV      6322            0.0000000000
     19085      6333  TIP3      H1              0.0499521186       22.5562215578       23.7077778304  SOLV      6322            0.0000000000
     19086      6333  TIP3      H2              0.2068062242       24.0413340173       23.5470895636  SOLV      6322            0.0000000000
     19087      6334  TIP3      OH2             0.9648789964       21.1933267673       23.1408375048  SOLV      6323            0.0000000000
     19088      6334  TIP3      H1              0.8400082862       20.3903340101       22.6164056411  SOLV      6323            0.0000000000
     19089      6334  TIP3      H2              1.3728718119       20.8231918040       23.9558593231  SOLV      6323            0.0000000000
     19090      6335  TIP3      OH2            -2.1637613292       15.9901838950       23.3368169239  SOLV      6324            0.0000000000
     19091      6335  TIP3      H1             -2.9690323256       16.4977052780       23.1126915728  SOLV      6324            0.0000000000
     19092      6335  TIP3      H2             -1.7227148894       15.9224822624       22.4694470904  SOLV      6324            0.0000000000
     19093      6336  TIP3      OH2            -2.6000472390       13.8944856527       20.4277542086  SOLV      6325            0.0000000000
     19094      6336  TIP3      H1             -1.9041437845       14.4077658345       20.8736529777  SOLV      6325            0.0000000000
     19095      6336  TIP3      H2             -2.0562026180       13.2189752008       19.9782880714  SOLV      6325            0.0000000000
     19096      6337  TIP3      OH2             7.0415397276       18.3713482265       29.1403959249  SOLV      6326            0.0000000000
     19097      6337  TIP3      H1              6.1871346186       18.8609176514       29.2024999169  SOLV      6326            0.0000000000
     19098      6337  TIP3      H2              7.3460597638       18.6878442534       28.2640653203  SOLV      6326            0.0000000000
     19099      6338  TIP3      OH2             1.2815895719       16.8349552065       23.0161949684  SOLV      6327            0.0000000000
     19100      6338  TIP3      H1              0.7516591800       17.0785404614       23.8101650295  SOLV      6327            0.0000000000
     19101      6338  TIP3      H2              2.1247793481       16.5718761496       23.4406263863  SOLV      6327            0.0000000000
     19102      6339  TIP3      OH2             3.5770549835       16.9500557320       31.9396661224  SOLV      6328            0.0000000000
     19103      6339  TIP3      H1              3.7545584191       17.7720210085       32.4426428324  SOLV      6328            0.0000000000
     19104      6339  TIP3      H2              2.6920177210       17.1239973597       31.5745546601  SOLV      6328            0.0000000000
     19105      6340  TIP3      OH2            -6.3835346256       16.7946885947       27.2420077851  SOLV      6329            0.0000000000
     19106      6340  TIP3      H1             -6.8979770230       16.2089471247       26.6356647298  SOLV      6329            0.0000000000
     19107      6340  TIP3      H2             -5.6501752453       16.2068756515       27.5138117925  SOLV      6329            0.0000000000
     19108      6341  TIP3      OH2            -5.0037253203       20.7755898766       28.6343771336  SOLV      6330            0.0000000000
     19109      6341  TIP3      H1             -5.1809839228       20.5399339183       27.7089645839  SOLV      6330            0.0000000000
     19110      6341  TIP3      H2             -4.1007939251       20.4064450433       28.7638850854  SOLV      6330            0.0000000000
     19111      6342  TIP3      OH2            -5.1109247463       16.4922578782       30.7812948743  SOLV      6331            0.0000000000
     19112      6342  TIP3      H1             -4.8112408784       16.1957601973       29.8902293792  SOLV      6331            0.0000000000
     19113      6342  TIP3      H2             -4.5751683314       17.2994400424       30.9199891078  SOLV      6331            0.0000000000
     19114      6343  TIP3      OH2             0.1592581936       22.7798313954       28.4538705812  SOLV      6332            0.0000000000
     19115      6343  TIP3      H1              0.0716319567       23.6220125331       28.9146398437  SOLV      6332            0.0000000000
     19116      6343  TIP3      H2              0.0494081910       22.1140711727       29.1543392526  SOLV      6332            0.0000000000
     19117      6344  TIP3      OH2            -0.3230225328       15.3910901019       21.3013757896  SOLV      6333            0.0000000000
     19118      6344  TIP3      H1              0.2760223992       15.9951386755       21.7973888865  SOLV      6333            0.0000000000
     19119      6344  TIP3      H2             -0.0570366489       15.5911340308       20.3706872844  SOLV      6333            0.0000000000
     19120      6345  TIP3      OH2            -2.9080397038       22.1449494483       24.1200033063  SOLV      6334            0.0000000000
     19121      6345  TIP3      H1             -2.0643397634       22.6229776170       24.1111224658  SOLV      6334            0.0000000000
     19122      6345  TIP3      H2             -3.4744160420       22.7164641779       23.5820182172  SOLV      6334            0.0000000000
     19123      6346  TIP3      OH2             4.8305364518        7.7474439257       21.7890252057  SOLV      6335            0.0000000000
     19124      6346  TIP3      H1              4.0229470989        7.9858079186       22.2891156199  SOLV      6335            0.0000000000
     19125      6346  TIP3      H2              4.9792872549        8.5661753050       21.2709502395  SOLV      6335            0.0000000000
     19126      6347  TIP3      OH2            -7.9144758390       15.2419313576       25.5475275769  SOLV      6336            0.0000000000
     19127      6347  TIP3      H1             -8.5036712598       15.6355952960       24.8680419425  SOLV      6336            0.0000000000
     19128      6347  TIP3      H2             -7.8635110738       14.3340714460       25.2388414061  SOLV      6336            0.0000000000
     19129      6348  TIP3      OH2             2.8682450810       21.4524285882       17.2947069654  SOLV      6337            0.0000000000
     19130      6348  TIP3      H1              2.9541434762       22.4141151329       17.1204586972  SOLV      6337            0.0000000000
     19131      6348  TIP3      H2              3.7925127976       21.1524515065       17.1443921621  SOLV      6337            0.0000000000
     19132      6349  TIP3      OH2            -4.0293143863       24.5688225024       22.0748905549  SOLV      6338            0.0000000000
     19133      6349  TIP3      H1             -4.4880227437       24.3480295304       21.2428812017  SOLV      6338            0.0000000000
     19134      6349  TIP3      H2             -4.3919243861       25.4397636746       22.3016717869  SOLV      6338            0.0000000000
     19135      6350  TIP3      OH2            -9.5222102481       22.9074287199       25.7452387229  SOLV      6339            0.0000000000
     19136      6350  TIP3      H1             -9.2197293599       22.9430257802       26.6734906231  SOLV      6339            0.0000000000
     19137      6350  TIP3      H2            -10.3335300280       22.3913512648       25.8135696574  SOLV      6339            0.0000000000
     19138      6351  TIP3      OH2            -2.0629900085       23.6344898600       18.4573541910  SOLV      6340            0.0000000000
     19139      6351  TIP3      H1             -1.4916064661       22.9244553957       18.0869625820  SOLV      6340            0.0000000000
     19140      6351  TIP3      H2             -1.6833097972       23.7356846759       19.3547373145  SOLV      6340            0.0000000000
     19141      6352  TIP3      OH2            -1.4974581271       24.1518586260       21.1489393770  SOLV      6341            0.0000000000
     19142      6352  TIP3      H1             -2.3861361370       24.2191382959       21.5632750669  SOLV      6341            0.0000000000
     19143      6352  TIP3      H2             -0.9911639113       23.7430238718       21.8691254185  SOLV      6341            0.0000000000
     19144      6353  TIP3      OH2            -3.8631826688        9.0915673479       32.0254360006  SOLV      6342            0.0000000000
     19145      6353  TIP3      H1             -4.7593120329        8.7889692136       31.7617309362  SOLV      6342            0.0000000000
     19146      6353  TIP3      H2             -4.0731508951        9.9870495050       32.3397963248  SOLV      6342            0.0000000000
     19147      6354  TIP3      OH2             1.2926642003       10.3259744863       34.1992788423  SOLV      6343            0.0000000000
     19148      6354  TIP3      H1              1.8037612579       10.0807583305       34.9934684122  SOLV      6343            0.0000000000
     19149      6354  TIP3      H2              0.3985420226       10.0213991576       34.4698404388  SOLV      6343            0.0000000000
     19150      6355  TIP3      OH2             3.4421086496       14.5493915156       33.3934165116  SOLV      6344            0.0000000000
     19151      6355  TIP3      H1              4.1569675304       14.7581827581       33.9861206855  SOLV      6344            0.0000000000
     19152      6355  TIP3      H2              3.4896615823       15.2942351360       32.7563338179  SOLV      6344            0.0000000000
     19153      6356  TIP3      OH2             0.4734683730       15.7540664455       18.7456329829  SOLV      6345            0.0000000000
     19154      6356  TIP3      H1              0.0865371578       15.5771127654       17.8674871364  SOLV      6345            0.0000000000
     19155      6356  TIP3      H2              1.3169165273       16.1788602328       18.4919495644  SOLV      6345            0.0000000000
     19156      6357  TIP3      OH2            -2.4324254526        9.5387343178       21.7776177839  SOLV      6346            0.0000000000
     19157      6357  TIP3      H1             -2.7935651919        9.5301291916       22.6840676822  SOLV      6346            0.0000000000
     19158      6357  TIP3      H2             -2.8494847298        8.7297890164       21.4245232396  SOLV      6346            0.0000000000
     19159      6358  TIP3      OH2            -4.4981102129       14.2319031839       32.1398328013  SOLV      6347            0.0000000000
     19160      6358  TIP3      H1             -4.9938349214       14.4511203588       32.9570121516  SOLV      6347            0.0000000000
     19161      6358  TIP3      H2             -4.6359877190       15.0516757801       31.6185609546  SOLV      6347            0.0000000000
     19162      6359  TIP3      OH2            -5.7167789011       13.1296210578       27.3897901777  SOLV      6348            0.0000000000
     19163      6359  TIP3      H1             -6.6510774147       12.8751143293       27.5469598654  SOLV      6348            0.0000000000
     19164      6359  TIP3      H2             -5.5839169894       12.7292946426       26.4993250197  SOLV      6348            0.0000000000
     19165      6360  TIP3      OH2            -0.8386536736       13.9634142361       24.6889927590  SOLV      6349            0.0000000000
     19166      6360  TIP3      H1             -1.3300541668       14.6803081369       24.2314359315  SOLV      6349            0.0000000000
     19167      6360  TIP3      H2             -0.2753613330       13.6217523811       23.9653435139  SOLV      6349            0.0000000000
     19168      6361  TIP3      OH2             0.6961952268       14.2161486709       27.0185961531  SOLV      6350            0.0000000000
     19169      6361  TIP3      H1              0.0848771829       14.4515447821       26.2884265706  SOLV      6350            0.0000000000
     19170      6361  TIP3      H2              1.1015908102       13.4265637657       26.6011256852  SOLV      6350            0.0000000000
     19171      6362  TIP3      OH2            -6.2297838110       14.6109465925       34.2291585886  SOLV      6351            0.0000000000
     19172      6362  TIP3      H1             -5.9508499713       14.8041447443       35.1371628319  SOLV      6351            0.0000000000
     19173      6362  TIP3      H2             -6.8593575798       13.8896848514       34.3674929806  SOLV      6351            0.0000000000
     19174      6363  TIP3      OH2            -5.9013127049        9.2970128091       21.4447775410  SOLV      6352            0.0000000000
     19175      6363  TIP3      H1             -6.0067961236        9.3233077027       22.4151070102  SOLV      6352            0.0000000000
     19176      6363  TIP3      H2             -6.6266440498        9.8838383775       21.1667362811  SOLV      6352            0.0000000000
     19177      6364  TIP3      OH2           -10.5611514336        9.6151963945       30.1931664854  SOLV      6353            0.0000000000
     19178      6364  TIP3      H1             -9.8342416021        9.9894368751       30.7393189660  SOLV      6353            0.0000000000
     19179      6364  TIP3      H2            -10.1082945289        9.4067267378       29.3671398679  SOLV      6353            0.0000000000
     19180      6365  TIP3      OH2           -10.8543534868        9.5424477508       25.3410765551  SOLV      6354            0.0000000000
     19181      6365  TIP3      H1            -10.4259755784        9.9142961605       24.5357352542  SOLV      6354            0.0000000000
     19182      6365  TIP3      H2            -11.4576545349       10.2807313111       25.5419227346  SOLV      6354            0.0000000000
     19183      6366  TIP3      OH2             0.7124419528       16.7369317026       31.2151255020  SOLV      6355            0.0000000000
     19184      6366  TIP3      H1              1.0888739423       16.0432710590       30.6197646157  SOLV      6355            0.0000000000
     19185      6366  TIP3      H2              0.4665501789       16.1690892606       31.9789752210  SOLV      6355            0.0000000000
     19186      6367  TIP3      OH2            -2.3803196400       11.3168908222       27.9744817096  SOLV      6356            0.0000000000
     19187      6367  TIP3      H1             -3.1570834248       11.3112075651       28.5647542291  SOLV      6356            0.0000000000
     19188      6367  TIP3      H2             -1.6407180393       11.2028824710       28.5989527681  SOLV      6356            0.0000000000
     19189      6368  TIP3      OH2            -8.1136430603       11.9166709710       28.0372106455  SOLV      6357            0.0000000000
     19190      6368  TIP3      H1             -9.0521954474       11.9719582373       27.7409073357  SOLV      6357            0.0000000000
     19191      6368  TIP3      H2             -7.8616750170       11.0044206727       27.8029933551  SOLV      6357            0.0000000000
     19192      6369  TIP3      OH2            -5.4834043202       11.8802643915       24.9807631508  SOLV      6358            0.0000000000
     19193      6369  TIP3      H1             -4.5472627936       12.0278564915       24.7461652807  SOLV      6358            0.0000000000
     19194      6369  TIP3      H2             -5.9542405670       12.0704603765       24.1346446834  SOLV      6358            0.0000000000
     19195      6370  TIP3      OH2             2.3655723350       12.1804580189       30.0385890504  SOLV      6359            0.0000000000
     19196      6370  TIP3      H1              2.0364419176       12.2423051062       30.9601465494  SOLV      6359            0.0000000000
     19197      6370  TIP3      H2              1.7692649083       11.5137498608       29.6641684332  SOLV      6359            0.0000000000
     19198      6371  TIP3      OH2            -6.9400700305       12.0591486311       22.7005133432  SOLV      6360            0.0000000000
     19199      6371  TIP3      H1             -7.6365996856       11.7029292412       22.1201847917  SOLV      6360            0.0000000000
     19200      6371  TIP3      H2             -6.3832759479       12.5119358438       22.0229045128  SOLV      6360            0.0000000000
     19201      6372  TIP3      OH2            -1.6287333185       14.6258339466       28.9362716033  SOLV      6361            0.0000000000
     19202      6372  TIP3      H1             -0.9117169908       14.2619515027       28.3919522515  SOLV      6361            0.0000000000
     19203      6372  TIP3      H2             -1.5227246692       14.1331292573       29.7687396300  SOLV      6361            0.0000000000
     19204      6373  TIP3      OH2            -6.4519056980        9.4988653541       27.7773313926  SOLV      6362            0.0000000000
     19205      6373  TIP3      H1             -6.7851252204        8.7083481859       28.2527350815  SOLV      6362            0.0000000000
     19206      6373  TIP3      H2             -6.0708628443        9.1113602111       26.9788483748  SOLV      6362            0.0000000000
     19207      6374  TIP3      OH2            -1.8603748211       13.5128729988       31.8579352584  SOLV      6363            0.0000000000
     19208      6374  TIP3      H1             -2.7524449712       13.8991057686       31.9675529810  SOLV      6363            0.0000000000
     19209      6374  TIP3      H2             -1.2820799128       14.1633586978       32.3036944535  SOLV      6363            0.0000000000
     19210      6375  TIP3      OH2            -4.5104756547       17.4733073403       22.7926081114  SOLV      6364            0.0000000000
     19211      6375  TIP3      H1             -5.2938470657       16.9380142035       22.6035445011  SOLV      6364            0.0000000000
     19212      6375  TIP3      H2             -4.7209603058       17.8255566125       23.6913304322  SOLV      6364            0.0000000000
     19213      6376  TIP3      OH2             4.5768448332       19.5547820899       29.1638765585  SOLV      6365            0.0000000000
     19214      6376  TIP3      H1              4.7599456513       20.3993726228       28.7184936493  SOLV      6365            0.0000000000
     19215      6376  TIP3      H2              3.6583550518       19.3752029198       28.8910975123  SOLV      6365            0.0000000000
     19216      6377  TIP3      OH2             0.0818449914       10.5550221134       21.5511802907  SOLV      6366            0.0000000000
     19217      6377  TIP3      H1             -0.8859860095       10.3693314726       21.5970782056  SOLV      6366            0.0000000000
     19218      6377  TIP3      H2              0.1380988338       11.5115810558       21.7450284690  SOLV      6366            0.0000000000
     19219      6378  TIP3      OH2             0.7430251542       13.1009174805       22.5240601719  SOLV      6367            0.0000000000
     19220      6378  TIP3      H1              1.7108135200       13.1620146407       22.6468395516  SOLV      6367            0.0000000000
     19221      6378  TIP3      H2              0.5464072061       13.8926524946       21.9860748550  SOLV      6367            0.0000000000
     19222      6379  TIP3      OH2            -7.5118027080       17.9215700267       29.4889761438  SOLV      6368            0.0000000000
     19223      6379  TIP3      H1             -7.1383079470       17.5575234669       28.6563387404  SOLV      6368            0.0000000000
     19224      6379  TIP3      H2             -7.3506246257       17.1948071815       30.1057436819  SOLV      6368            0.0000000000
     19225      6380  TIP3      OH2            -2.9935159524       18.9977472472       21.0862975055  SOLV      6369            0.0000000000
     19226      6380  TIP3      H1             -3.4970461410       19.8428794096       21.1266776225  SOLV      6369            0.0000000000
     19227      6380  TIP3      H2             -3.5389296577       18.4253322098       21.6670279576  SOLV      6369            0.0000000000
     19228      6381  TIP3      OH2             5.1307902008       14.0380981238       20.8244857022  SOLV      6370            0.0000000000
     19229      6381  TIP3      H1              4.5233841291       13.5904592968       20.1885311333  SOLV      6370            0.0000000000
     19230      6381  TIP3      H2              5.1011816640       14.9328343623       20.4182450240  SOLV      6370            0.0000000000
     19231      6382  TIP3      OH2             2.1165237303       22.1718916839       19.8970614198  SOLV      6371            0.0000000000
     19232      6382  TIP3      H1              1.9554095462       21.4209655589       20.4825145790  SOLV      6371            0.0000000000
     19233      6382  TIP3      H2              2.3320217529       21.7454342033       19.0460240693  SOLV      6371            0.0000000000
     19234      6383  TIP3      OH2             1.9912705884       18.5206446317       28.2688281566  SOLV      6372            0.0000000000
     19235      6383  TIP3      H1              1.0751135140       18.1911780816       28.3065082526  SOLV      6372            0.0000000000
     19236      6383  TIP3      H2              2.4374902339       17.7595294661       27.8444434464  SOLV      6372            0.0000000000
     19237      6384  TIP3      OH2            -6.4913387795       20.9186163716       26.0082751274  SOLV      6373            0.0000000000
     19238      6384  TIP3      H1             -6.4922432477       21.6273262192       25.3325258619  SOLV      6373            0.0000000000
     19239      6384  TIP3      H2             -7.3916062230       20.5848144824       25.9113389522  SOLV      6373            0.0000000000
     19240      6385  TIP3      OH2           -10.8985911898       13.7711697157       22.8681622322  SOLV      6374            0.0000000000
     19241      6385  TIP3      H1            -10.3992637666       14.5931934215       23.0645394509  SOLV      6374            0.0000000000
     19242      6385  TIP3      H2            -11.6507751926       13.8578763754       23.4896714146  SOLV      6374            0.0000000000
     19243      6386  TIP3      OH2            -5.3108517362       18.4196789143       25.2225708306  SOLV      6375            0.0000000000
     19244      6386  TIP3      H1             -5.5627821475       19.3238578319       25.4679962256  SOLV      6375            0.0000000000
     19245      6386  TIP3      H2             -5.6520264804       17.8968626593       25.9723170717  SOLV      6375            0.0000000000
     19246      6387  TIP3      OH2            -7.2275267528       23.1689039885       24.3266319049  SOLV      6376            0.0000000000
     19247      6387  TIP3      H1             -8.1284773049       23.1626567993       24.7224803310  SOLV      6376            0.0000000000
     19248      6387  TIP3      H2             -7.0414602809       24.1313293291       24.2976983101  SOLV      6376            0.0000000000
     19249      6388  TIP3      OH2             0.0378805717       20.5103975202       30.1600524420  SOLV      6377            0.0000000000
     19250      6388  TIP3      H1              0.4066292158       20.3863158145       31.0407548480  SOLV      6377            0.0000000000
     19251      6388  TIP3      H2              0.6816667738       20.0353924314       29.6076260765  SOLV      6377            0.0000000000
     19252      6389  TIP3      OH2            -0.2022800060       19.5128217220       18.9467069327  SOLV      6378            0.0000000000
     19253      6389  TIP3      H1              0.3153858486       19.2795779265       19.7499092423  SOLV      6378            0.0000000000
     19254      6389  TIP3      H2             -1.0751195011       19.1626889600       19.1846683732  SOLV      6378            0.0000000000
     19255      6390  TIP3      OH2             3.1257200580       24.2410935351       17.0805335408  SOLV      6379            0.0000000000
     19256      6390  TIP3      H1              3.5549591095       25.0125267815       16.6673023510  SOLV      6379            0.0000000000
     19257      6390  TIP3      H2              2.3000987120       24.6668669064       17.3891342266  SOLV      6379            0.0000000000
     19258      6391  TIP3      OH2             1.3987769467       18.8825572107       21.1356435531  SOLV      6380            0.0000000000
     19259      6391  TIP3      H1              1.2928750017       18.1726018943       21.8020803478  SOLV      6380            0.0000000000
     19260      6391  TIP3      H2              2.3632327039       18.8088848552       20.9669088399  SOLV      6380            0.0000000000
     19261      6392  TIP3      OH2            -6.6667086365       19.2431066630       19.0576295336  SOLV      6381            0.0000000000
     19262      6392  TIP3      H1             -6.7581295990       18.3567131875       18.6645251468  SOLV      6381            0.0000000000
     19263      6392  TIP3      H2             -7.0023738793       19.0188569189       19.9431435647  SOLV      6381            0.0000000000
     19264      6393  TIP3      OH2            -7.3052331094       19.4368734166       21.8998784955  SOLV      6382            0.0000000000
     19265      6393  TIP3      H1             -6.4102634975       19.1373403506       22.0665422567  SOLV      6382            0.0000000000
     19266      6393  TIP3      H2             -7.1906502284       20.4126456080       21.8339547008  SOLV      6382            0.0000000000
     19267      6394  TIP3      OH2            -9.8089357735       16.1870175054       23.7045277831  SOLV      6383            0.0000000000
     19268      6394  TIP3      H1            -10.4713458298       16.7199532699       24.1844684107  SOLV      6383            0.0000000000
     19269      6394  TIP3      H2             -9.5981765104       16.7767149541       22.9538245880  SOLV      6383            0.0000000000
     19270      6395  TIP3      OH2             1.6067637002       12.6549517615       32.6764029318  SOLV      6384            0.0000000000
     19271      6395  TIP3      H1              2.4047187693       13.1388313900       32.9876365119  SOLV      6384            0.0000000000
     19272      6395  TIP3      H2              1.6037164643       11.8453155486       33.2271104293  SOLV      6384            0.0000000000
     19273      6396  TIP3      OH2             0.5539808573       10.0681043105       24.3173141622  SOLV      6385            0.0000000000
     19274      6396  TIP3      H1              0.4136960459       10.2867961990       23.3733558302  SOLV      6385            0.0000000000
     19275      6396  TIP3      H2              0.9690602180       10.8899679639       24.6554068896  SOLV      6385            0.0000000000
     19276      6397  TIP3      OH2            -4.4475205863       21.2748598769       21.1733924047  SOLV      6386            0.0000000000
     19277      6397  TIP3      H1             -5.3258315263       21.5601981037       21.4955352075  SOLV      6386            0.0000000000
     19278      6397  TIP3      H2             -4.3191629749       21.9065855891       20.4518680669  SOLV      6386            0.0000000000
     19279      6398  TIP3      OH2            -2.6422841990       11.9442098625       25.2824881273  SOLV      6387            0.0000000000
     19280      6398  TIP3      H1             -1.9960625139       12.6583560994       25.0942613099  SOLV      6387            0.0000000000
     19281      6398  TIP3      H2             -2.5452071592       11.8506582814       26.2541375464  SOLV      6387            0.0000000000
     19282      6399  TIP3      OH2             0.1048323667       14.9710049012       33.1941776408  SOLV      6388            0.0000000000
     19283      6399  TIP3      H1              0.1880248159       15.1771353722       34.1285545764  SOLV      6388            0.0000000000
     19284      6399  TIP3      H2              0.6625284287       14.1669451590       33.0928192455  SOLV      6388            0.0000000000
     19285      6400  TIP3      OH2            -1.1793743674        9.0805719062       26.2516363139  SOLV      6389            0.0000000000
     19286      6400  TIP3      H1             -1.2339995662        9.8509493472       26.8446047203  SOLV      6389            0.0000000000
     19287      6400  TIP3      H2             -0.5404503393        9.4203848293       25.5810727331  SOLV      6389            0.0000000000
     19288      6401  TIP3      OH2            -6.9638214584       22.1330176921       21.7912222305  SOLV      6390            0.0000000000
     19289      6401  TIP3      H1             -7.2884696626       22.8396041684       21.1912061482  SOLV      6390            0.0000000000
     19290      6401  TIP3      H2             -7.0981058164       22.5429248122       22.6721119942  SOLV      6390            0.0000000000
     19291      6402  TIP3      OH2            -6.0508496875        9.1873745622       24.2353177132  SOLV      6391            0.0000000000
     19292      6402  TIP3      H1             -6.1022884009       10.1142576370       24.5384979237  SOLV      6391            0.0000000000
     19293      6402  TIP3      H2             -5.0787811683        9.0558533033       24.2805540964  SOLV      6391            0.0000000000
     19294      6403  TIP3      OH2             2.9753832991       16.0839613944       27.0600457038  SOLV      6392            0.0000000000
     19295      6403  TIP3      H1              2.2425974413       15.4520157251       27.1505787771  SOLV      6392            0.0000000000
     19296      6403  TIP3      H2              3.7068599021       15.6157611932       27.5212996580  SOLV      6392            0.0000000000
     19297      6404  TIP3      OH2            -9.7911180304       18.2167118755       21.7064403758  SOLV      6393            0.0000000000
     19298      6404  TIP3      H1             -9.0323221936       18.8247541845       21.8486360473  SOLV      6393            0.0000000000
     19299      6404  TIP3      H2             -9.3567963253       17.6311997567       21.0433769318  SOLV      6393            0.0000000000
     19300      6405  TIP3      OH2           -10.5144338328       11.0509875336       23.1094818409  SOLV      6394            0.0000000000
     19301      6405  TIP3      H1            -10.3984307613       12.0237594482       23.0875262218  SOLV      6394            0.0000000000
     19302      6405  TIP3      H2            -11.1410942446       10.9209011357       22.3983302751  SOLV      6394            0.0000000000
     19303      6406  TIP3      OH2             2.8612981515       25.2594677516       26.1682231536  SOLV      6395            0.0000000000
     19304      6406  TIP3      H1              2.3000733114       25.8481205231       25.6250628679  SOLV      6395            0.0000000000
     19305      6406  TIP3      H2              3.4877525577       25.8997002222       26.5130254001  SOLV      6395            0.0000000000
     19306      6407  TIP3      OH2            -6.4819520816        8.2328873922       31.7748359359  SOLV      6396            0.0000000000
     19307      6407  TIP3      H1             -6.7999680446        7.9833533861       30.8779823135  SOLV      6396            0.0000000000
     19308      6407  TIP3      H2             -6.7408012556        7.4495384444       32.2942386947  SOLV      6396            0.0000000000
     19309      6408  TIP3      OH2           -11.3146473850       20.3836295242       25.6098307227  SOLV      6397            0.0000000000
     19310      6408  TIP3      H1            -12.1689805730       20.6913339092       25.9313073220  SOLV      6397            0.0000000000
     19311      6408  TIP3      H2            -11.3132944127       20.8009224472       24.7238392620  SOLV      6397            0.0000000000
     19312      6409  TIP3      OH2            -4.9912214882       21.2307509870       18.0815507451  SOLV      6398            0.0000000000
     19313      6409  TIP3      H1             -5.5331508270       20.5073861145       18.4789903288  SOLV      6398            0.0000000000
     19314      6409  TIP3      H2             -4.2418179395       20.7205159293       17.7259969959  SOLV      6398            0.0000000000
     19315      6410  TIP3      OH2            -0.6188070820       21.6697654817       17.1841333889  SOLV      6399            0.0000000000
     19316      6410  TIP3      H1             -0.2303024028       21.0181788127       17.8020765847  SOLV      6399            0.0000000000
     19317      6410  TIP3      H2             -0.0187901092       21.6204977771       16.4163466809  SOLV      6399            0.0000000000
     19318      6411  TIP3      OH2            -3.2525144143       18.5039097521       18.3666021684  SOLV      6400            0.0000000000
     19319      6411  TIP3      H1             -3.3103653074       18.5963571345       19.3374500483  SOLV      6400            0.0000000000
     19320      6411  TIP3      H2             -3.2391381427       17.5229125740       18.2822843577  SOLV      6400            0.0000000000
     19321      6412  TIP3      OH2            -5.3787585344       13.2325319405       20.8134731083  SOLV      6401            0.0000000000
     19322      6412  TIP3      H1             -5.8187294481       13.9380676587       20.3275455744  SOLV      6401            0.0000000000
     19323      6412  TIP3      H2             -4.4335373145       13.4285273397       20.6671407314  SOLV      6401            0.0000000000
     19324      6413  TIP3      OH2             2.7715627669       16.7414982906       17.5586154500  SOLV      6402            0.0000000000
     19325      6413  TIP3      H1              2.5762274436       16.3041161774       16.7070845610  SOLV      6402            0.0000000000
     19326      6413  TIP3      H2              2.4560777379       17.6503247727       17.3426498511  SOLV      6402            0.0000000000
     19327      6414  TIP3      OH2            -2.4749725268       11.7693833846       34.0726328411  SOLV      6403            0.0000000000
     19328      6414  TIP3      H1             -2.1464266873       12.2600135280       33.2921969481  SOLV      6403            0.0000000000
     19329      6414  TIP3      H2             -3.4223731929       11.6583916013       33.8557557205  SOLV      6403            0.0000000000
     19330      6415  TIP3      OH2            -2.0930036077       17.3195742697       32.8064564629  SOLV      6404            0.0000000000
     19331      6415  TIP3      H1             -1.3377718113       17.3528850498       32.2131740854  SOLV      6404            0.0000000000
     19332      6415  TIP3      H2             -2.7367528044       17.9208782631       32.3917285902  SOLV      6404            0.0000000000
     19333      6416  TIP3      OH2            -1.2166679482        9.4450302606       34.8307644167  SOLV      6405            0.0000000000
     19334      6416  TIP3      H1             -1.6680147895       10.2957879982       34.6389166906  SOLV      6405            0.0000000000
     19335      6416  TIP3      H2             -1.8504525352        8.7997399126       34.4847760520  SOLV      6405            0.0000000000
     19336      6417  TIP3      OH2            -7.2666490724       24.2131430867       19.9900867640  SOLV      6406            0.0000000000
     19337      6417  TIP3      H1             -6.3375463522       24.0171003320       19.7648708819  SOLV      6406            0.0000000000
     19338      6417  TIP3      H2             -7.5468757535       24.6367694520       19.1568141951  SOLV      6406            0.0000000000
     19339      6418  TIP3      OH2           -12.4739416491       17.8834196520       22.0906068541  SOLV      6407            0.0000000000
     19340      6418  TIP3      H1            -11.5234196626       18.0788743585       21.9144317622  SOLV      6407            0.0000000000
     19341      6418  TIP3      H2            -12.5578600656       17.0021433976       21.6610310890  SOLV      6407            0.0000000000
     19342      6419  TIP3      OH2             4.1544880215       18.6023641640       20.8494418067  SOLV      6408            0.0000000000
     19343      6419  TIP3      H1              4.8253335949       19.2334715065       20.5085567514  SOLV      6408            0.0000000000
     19344      6419  TIP3      H2              4.6244416721       18.2345746337       21.6296266522  SOLV      6408            0.0000000000
     19345      6420  TIP3      OH2             5.4440993848       17.2814784296       22.8949565552  SOLV      6409            0.0000000000
     19346      6420  TIP3      H1              4.7722400845       16.8691909512       23.4801665272  SOLV      6409            0.0000000000
     19347      6420  TIP3      H2              6.0938051273       17.6371227530       23.5348543325  SOLV      6409            0.0000000000
     19348      6421  TIP3      OH2             5.9917010387       21.2060048949       27.2653021834  SOLV      6410            0.0000000000
     19349      6421  TIP3      H1              6.4285256357       20.5447366206       26.7003746380  SOLV      6410            0.0000000000
     19350      6421  TIP3      H2              5.3049526100       21.5642439587       26.6972685619  SOLV      6410            0.0000000000
     19351      6422  TIP3      OH2             4.8049248347       16.3765890910       19.3510410527  SOLV      6411            0.0000000000
     19352      6422  TIP3      H1              4.0814349423       16.4008265272       18.6835635099  SOLV      6411            0.0000000000
     19353      6422  TIP3      H2              4.5459259261       17.1482160555       19.8953929834  SOLV      6411            0.0000000000
     19354      6423  TIP3      OH2             3.5099636997       13.0836223966       18.8720010580  SOLV      6412            0.0000000000
     19355      6423  TIP3      H1              3.0482934361       13.4345456692       18.1034724752  SOLV      6412            0.0000000000
     19356      6423  TIP3      H2              3.3077010821       12.1263800954       18.7858214169  SOLV      6412            0.0000000000
     19357      6424  TIP3      OH2             3.5423069261       15.8817538189       24.3380864550  SOLV      6413            0.0000000000
     19358      6424  TIP3      H1              3.6437192118       14.9179230746       24.2698289479  SOLV      6413            0.0000000000
     19359      6424  TIP3      H2              3.4076484271       16.0148875333       25.3007878866  SOLV      6413            0.0000000000
     19360      6425  TIP3      OH2           -10.3605529758       16.4489788285       31.8914354364  SOLV      6414            0.0000000000
     19361      6425  TIP3      H1            -10.2835611886       16.2291037825       30.9432636743  SOLV      6414            0.0000000000
     19362      6425  TIP3      H2             -9.4324330376       16.6616436456       32.1127553677  SOLV      6414            0.0000000000
     19363      6426  TIP3      OH2             2.9606225799       10.4169606410       18.6846640221  SOLV      6415            0.0000000000
     19364      6426  TIP3      H1              3.6770568885       10.0942903963       19.2679836481  SOLV      6415            0.0000000000
     19365      6426  TIP3      H2              2.2066017353        9.8464150941       18.9068960246  SOLV      6415            0.0000000000
     19366      6427  TIP3      OH2             3.5488033744       13.0509766313       23.2480892850  SOLV      6416            0.0000000000
     19367      6427  TIP3      H1              3.9728896927       12.1709452640       23.3919740049  SOLV      6416            0.0000000000
     19368      6427  TIP3      H2              4.1165033289       13.3922041050       22.5329880061  SOLV      6416            0.0000000000
     19369      6428  TIP3      OH2             5.1020824237       14.7528143317       28.2116848737  SOLV      6417            0.0000000000
     19370      6428  TIP3      H1              5.9699993118       14.9609593877       27.7918716449  SOLV      6417            0.0000000000
     19371      6428  TIP3      H2              5.2719125194       15.1275552290       29.0968073179  SOLV      6417            0.0000000000
     19372      6429  TIP3      OH2             5.8162985268       16.2546886964       30.4695727971  SOLV      6418            0.0000000000
     19373      6429  TIP3      H1              5.0045925006       16.5764104825       30.9175672767  SOLV      6418            0.0000000000
     19374      6429  TIP3      H2              6.1302010392       17.0497717363       29.9889661787  SOLV      6418            0.0000000000
     19375      6430  TIP3      OH2             4.6227319280       10.5479090661       23.6632907795  SOLV      6419            0.0000000000
     19376      6430  TIP3      H1              5.1130315554       10.3717495151       24.4951093948  SOLV      6419            0.0000000000
     19377      6430  TIP3      H2              4.0207950518        9.7765349290       23.6406964706  SOLV      6419            0.0000000000
     19378      6431  TIP3      OH2            -8.3268129516       10.2983410998       31.6218337164  SOLV      6420            0.0000000000
     19379      6431  TIP3      H1             -7.6775096528        9.5956097717       31.8022534983  SOLV      6420            0.0000000000
     19380      6431  TIP3      H2             -7.7836140833       11.0983939857       31.6875077519  SOLV      6420            0.0000000000
     19381      6432  TIP3      OH2           -10.2888818899       13.0229133116       32.5132625223  SOLV      6421            0.0000000000
     19382      6432  TIP3      H1             -9.7715172539       13.1724710498       31.7029574640  SOLV      6421            0.0000000000
     19383      6432  TIP3      H2            -10.4593048811       13.9162610266       32.8394269262  SOLV      6421            0.0000000000
     19384      6433  TIP3      OH2             5.3723787795        9.8266254969       20.0262533640  SOLV      6422            0.0000000000
     19385      6433  TIP3      H1              5.7879063647        9.1452857981       19.4577800551  SOLV      6422            0.0000000000
     19386      6433  TIP3      H2              6.0314335166       10.5478941852       20.0011518535  SOLV      6422            0.0000000000
     19387      6434  TIP3      OH2           -10.4845775936        8.0800972690       27.5776361707  SOLV      6423            0.0000000000
     19388      6434  TIP3      H1            -11.4021862012        8.0599979252       27.8942438073  SOLV      6423            0.0000000000
     19389      6434  TIP3      H2            -10.5494643536        8.6880260766       26.8110076943  SOLV      6423            0.0000000000
     19390      6435  TIP3      OH2             1.0695226138       25.3028897581       22.6830355243  SOLV      6424            0.0000000000
     19391      6435  TIP3      H1              1.5149912499       25.0679502432       21.8379082294  SOLV      6424            0.0000000000
     19392      6435  TIP3      H2              1.7567101367       25.8419851924       23.0972007637  SOLV      6424            0.0000000000
     19393      6436  TIP3      OH2             7.9933112024       11.0573719277       32.7108251849  SOLV      6425            0.0000000000
     19394      6436  TIP3      H1              7.0512490918       10.8993262290       32.5749522919  SOLV      6425            0.0000000000
     19395      6436  TIP3      H2              8.3501750012       10.1458659299       32.7410416716  SOLV      6425            0.0000000000
     19396      6437  TIP3      OH2             0.1398466165       25.9111219894       28.4016121027  SOLV      6426            0.0000000000
     19397      6437  TIP3      H1             -0.6123290260       25.8552690644       29.0262409054  SOLV      6426            0.0000000000
     19398      6437  TIP3      H2              0.2105304654       26.8716813511       28.2542870186  SOLV      6426            0.0000000000
     19399      6438  TIP3      OH2            -8.2791534989       22.7768661695       28.1920481295  SOLV      6427            0.0000000000
     19400      6438  TIP3      H1             -8.2157509878       21.9605942426       28.7321681805  SOLV      6427            0.0000000000
     19401      6438  TIP3      H2             -7.3557206483       22.8914934591       27.9136743719  SOLV      6427            0.0000000000
     19402      6439  TIP3      OH2            -5.4822355118       23.5988086122       28.1149678823  SOLV      6428            0.0000000000
     19403      6439  TIP3      H1             -5.2186168750       22.8644527608       27.5383996160  SOLV      6428            0.0000000000
     19404      6439  TIP3      H2             -5.0599759967       23.3209635630       28.9370546997  SOLV      6428            0.0000000000
     19405      6440  TIP3      OH2             0.0299451131       10.2554783019       29.1220393410  SOLV      6429            0.0000000000
     19406      6440  TIP3      H1             -0.3252004625        9.4991865218       29.6235403386  SOLV      6429            0.0000000000
     19407      6440  TIP3      H2              0.8056272447        9.8613000614       28.6732773332  SOLV      6429            0.0000000000
     19408      6441  TIP3      OH2             5.2594933667        9.0058027406       28.1383578916  SOLV      6430            0.0000000000
     19409      6441  TIP3      H1              5.6743526345        9.5548687239       27.4359333523  SOLV      6430            0.0000000000
     19410      6441  TIP3      H2              4.3529144133        9.3501234758       28.1595322151  SOLV      6430            0.0000000000
     19411      6442  TIP3      OH2             6.2620342410       10.0730156620       25.8226106173  SOLV      6431            0.0000000000
     19412      6442  TIP3      H1              7.0108642167        9.5347616340       25.4873993637  SOLV      6431            0.0000000000
     19413      6442  TIP3      H2              6.6357826011       10.9765431409       25.6981163716  SOLV      6431            0.0000000000
     19414      6443  TIP3      OH2            -7.4105791107        7.3751347177       29.3215759107  SOLV      6432            0.0000000000
     19415      6443  TIP3      H1             -8.3460806269        7.0869323305       29.2868597248  SOLV      6432            0.0000000000
     19416      6443  TIP3      H2             -6.9476362446        6.5126963922       29.2651771068  SOLV      6432            0.0000000000
     19417      6444  TIP3      OH2            -9.4305326542        6.0709784464       25.8284612846  SOLV      6433            0.0000000000
     19418      6444  TIP3      H1             -9.1689886609        6.6348627341       25.0762864708  SOLV      6433            0.0000000000
     19419      6444  TIP3      H2             -9.7579733917        6.7330967562       26.4697357780  SOLV      6433            0.0000000000
     19420      6445  TIP3      OH2            -2.9047779875        7.6581111853       28.1469022348  SOLV      6434            0.0000000000
     19421      6445  TIP3      H1             -2.4006591145        8.1221833439       27.4602204385  SOLV      6434            0.0000000000
     19422      6445  TIP3      H2             -2.5220151717        8.0275504333       28.9563169729  SOLV      6434            0.0000000000
     19423      6446  TIP3      OH2             2.3549395916        9.1653799872       27.9907922891  SOLV      6435            0.0000000000
     19424      6446  TIP3      H1              2.5205979827        8.7675149895       27.1304288936  SOLV      6435            0.0000000000
     19425      6446  TIP3      H2              2.2947777783        8.3619111258       28.5649731563  SOLV      6435            0.0000000000
     19426      6447  TIP3      OH2             2.7982558905        8.4223121041       23.5882169320  SOLV      6436            0.0000000000
     19427      6447  TIP3      H1              1.9511222948        8.8649240513       23.7799222351  SOLV      6436            0.0000000000
     19428      6447  TIP3      H2              2.6554824138        7.5560900533       24.0264243337  SOLV      6436            0.0000000000
     19429      6448  TIP3      OH2           -12.4115656611       21.8210431796       23.5558920880  SOLV      6437            0.0000000000
     19430      6448  TIP3      H1            -13.2845266017       21.5267409371       23.2365614672  SOLV      6437            0.0000000000
     19431      6448  TIP3      H2            -12.4242054641       22.7363552816       23.2240768856  SOLV      6437            0.0000000000
     19432      6449  TIP3      OH2            -8.3307563382        7.6099748298       23.4679243979  SOLV      6438            0.0000000000
     19433      6449  TIP3      H1             -7.8615594739        7.0118696969       22.8537730248  SOLV      6438            0.0000000000
     19434      6449  TIP3      H2             -7.5964500340        8.1707533536       23.7921075989  SOLV      6438            0.0000000000
     19435      6450  TIP3      OH2            -3.2921970154        9.4405927488       24.4201108074  SOLV      6439            0.0000000000
     19436      6450  TIP3      H1             -2.6536586398        9.0029474482       25.0090068758  SOLV      6439            0.0000000000
     19437      6450  TIP3      H2             -3.0993409235       10.3779511160       24.6460208707  SOLV      6439            0.0000000000
     19438      6451  TIP3      OH2            -4.6554604587       23.6007397893       19.4054114285  SOLV      6440            0.0000000000
     19439      6451  TIP3      H1             -3.7724546316       23.8190059594       19.0373784163  SOLV      6440            0.0000000000
     19440      6451  TIP3      H2             -4.8858287130       22.8479809773       18.8145270190  SOLV      6440            0.0000000000
     19441      6452  TIP3      OH2             2.4386900577       24.8203886052       20.3431994918  SOLV      6441            0.0000000000
     19442      6452  TIP3      H1              2.3905181269       23.8422850181       20.2135985199  SOLV      6441            0.0000000000
     19443      6452  TIP3      H2              2.0330212857       25.1321502731       19.5091304149  SOLV      6441            0.0000000000
     19444      6453  TIP3      OH2           -11.5942775783       21.9954851468       19.9294065691  SOLV      6442            0.0000000000
     19445      6453  TIP3      H1            -11.5498876992       22.1366864458       20.8835519083  SOLV      6442            0.0000000000
     19446      6453  TIP3      H2            -10.7302116865       21.5505258482       19.7514049074  SOLV      6442            0.0000000000
     19447      6454  TIP3      OH2             7.2009590789       15.0727688375       22.3624313965  SOLV      6443            0.0000000000
     19448      6454  TIP3      H1              6.7145768081       15.8936500136       22.5488428699  SOLV      6443            0.0000000000
     19449      6454  TIP3      H2              6.5026636457       14.5551825559       21.9237608276  SOLV      6443            0.0000000000
     19450      6455  TIP3      OH2             7.7802614421       17.9636005929       24.2217683373  SOLV      6444            0.0000000000
     19451      6455  TIP3      H1              8.2890243522       17.1735699750       24.5183336352  SOLV      6444            0.0000000000
     19452      6455  TIP3      H2              8.3275513119       18.2889082828       23.4961336033  SOLV      6444            0.0000000000
     19453      6456  TIP3      OH2            12.9056410597       13.9099038767       24.2309789736  SOLV      6445            0.0000000000
     19454      6456  TIP3      H1             12.7326995228       14.5928902316       23.5477625467  SOLV      6445            0.0000000000
     19455      6456  TIP3      H2             12.4301886553       13.1515301701       23.8314811286  SOLV      6445            0.0000000000
     19456      6457  TIP3      OH2            19.8951433803       14.4280892359       20.4347420594  SOLV      6446            0.0000000000
     19457      6457  TIP3      H1             20.0137183363       14.7396352207       21.3386591870  SOLV      6446            0.0000000000
     19458      6457  TIP3      H2             20.2140178500       15.1695786952       19.8928085734  SOLV      6446            0.0000000000
     19459      6458  TIP3      OH2             9.2914474893       15.9212674976       25.1873370441  SOLV      6447            0.0000000000
     19460      6458  TIP3      H1             10.1078380061       15.7000315568       25.6812162188  SOLV      6447            0.0000000000
     19461      6458  TIP3      H2              9.4216846076       15.3526746348       24.3974105949  SOLV      6447            0.0000000000
     19462      6459  TIP3      OH2            13.4342635534       17.9550256351       22.9316304294  SOLV      6448            0.0000000000
     19463      6459  TIP3      H1             14.3833367646       17.8223469947       23.0290129498  SOLV      6448            0.0000000000
     19464      6459  TIP3      H2             13.1145638333       17.0512102088       22.7189261525  SOLV      6448            0.0000000000
     19465      6460  TIP3      OH2            12.9355946168       13.5923929707       28.3672677097  SOLV      6449            0.0000000000
     19466      6460  TIP3      H1             12.2549981425       14.1440401505       27.9541703474  SOLV      6449            0.0000000000
     19467      6460  TIP3      H2             12.8377207634       13.7732119822       29.3069724080  SOLV      6449            0.0000000000
     19468      6461  TIP3      OH2            11.5987751430       15.0625201287       26.3771002452  SOLV      6450            0.0000000000
     19469      6461  TIP3      H1             12.1468888251       15.8163908921       26.6555088450  SOLV      6450            0.0000000000
     19470      6461  TIP3      H2             12.1735130509       14.6377191414       25.6963351722  SOLV      6450            0.0000000000
     19471      6462  TIP3      OH2             6.0930869015       20.2207859437       19.7240980498  SOLV      6451            0.0000000000
     19472      6462  TIP3      H1              5.7386628111       20.5596028251       18.8842903888  SOLV      6451            0.0000000000
     19473      6462  TIP3      H2              6.3818792175       21.0611833152       20.1536596300  SOLV      6451            0.0000000000
     19474      6463  TIP3      OH2            16.2435478535       10.7809424220       25.4425730319  SOLV      6452            0.0000000000
     19475      6463  TIP3      H1             16.2353764702        9.8621188525       25.7876753434  SOLV      6452            0.0000000000
     19476      6463  TIP3      H2             15.5016067331       11.1642648342       25.9639336509  SOLV      6452            0.0000000000
     19477      6464  TIP3      OH2            15.7931537800       18.4801769851       18.1240776868  SOLV      6453            0.0000000000
     19478      6464  TIP3      H1             14.9676036271       19.0068847846       18.1436433494  SOLV      6453            0.0000000000
     19479      6464  TIP3      H2             16.0011320002       18.5137487891       17.1810433569  SOLV      6453            0.0000000000
     19480      6465  TIP3      OH2            15.3045761748       16.3967627420       15.2700724907  SOLV      6454            0.0000000000
     19481      6465  TIP3      H1             15.9527588560       16.8001516064       15.8720652609  SOLV      6454            0.0000000000
     19482      6465  TIP3      H2             15.8881130540       15.7937513759       14.7693908389  SOLV      6454            0.0000000000
     19483      6466  TIP3      OH2            11.3618186319       19.4242831325       22.0024709121  SOLV      6455            0.0000000000
     19484      6466  TIP3      H1             11.0301447745       18.8354172931       21.2910984171  SOLV      6455            0.0000000000
     19485      6466  TIP3      H2             12.1777973912       18.9399409666       22.2739690832  SOLV      6455            0.0000000000
     19486      6467  TIP3      OH2            17.6589622136       17.8831682536       16.0711178231  SOLV      6456            0.0000000000
     19487      6467  TIP3      H1             18.0456144906       18.5738227370       16.6541143010  SOLV      6456            0.0000000000
     19488      6467  TIP3      H2             17.9201649749       18.2008349529       15.1728461433  SOLV      6456            0.0000000000
     19489      6468  TIP3      OH2            22.7970122303       10.2743663836       16.7219080334  SOLV      6457            0.0000000000
     19490      6468  TIP3      H1             21.9687935662       10.4717593590       17.2073271937  SOLV      6457            0.0000000000
     19491      6468  TIP3      H2             22.8666088936       11.0579543297       16.1418390987  SOLV      6457            0.0000000000
     19492      6469  TIP3      OH2            10.2392621888       17.7806726816       20.0328502377  SOLV      6458            0.0000000000
     19493      6469  TIP3      H1              9.5084476926       18.2023504318       19.5321824802  SOLV      6458            0.0000000000
     19494      6469  TIP3      H2              9.8937491181       16.8934558995       20.1781783444  SOLV      6458            0.0000000000
     19495      6470  TIP3      OH2             7.7833372834       25.6120265327       20.5239039774  SOLV      6459            0.0000000000
     19496      6470  TIP3      H1              8.7017467936       25.7693009099       20.8119846834  SOLV      6459            0.0000000000
     19497      6470  TIP3      H2              7.5074519792       24.9487668409       21.1708033747  SOLV      6459            0.0000000000
     19498      6471  TIP3      OH2            15.4637899154       25.5084371060       13.3820794546  SOLV      6460            0.0000000000
     19499      6471  TIP3      H1             16.1231788427       24.9457718879       12.9090703501  SOLV      6460            0.0000000000
     19500      6471  TIP3      H2             15.3242078441       25.0001136215       14.1904436587  SOLV      6460            0.0000000000
     19501      6472  TIP3      OH2            14.0849448893       11.6545334758       26.8829650304  SOLV      6461            0.0000000000
     19502      6472  TIP3      H1             13.1930868283       11.3503679862       26.6174843647  SOLV      6461            0.0000000000
     19503      6472  TIP3      H2             13.8091621245       12.4393583353       27.4140126929  SOLV      6461            0.0000000000
     19504      6473  TIP3      OH2            18.4177800741       18.5446897043       13.5718094694  SOLV      6462            0.0000000000
     19505      6473  TIP3      H1             18.0327785639       18.2337633322       12.7296617298  SOLV      6462            0.0000000000
     19506      6473  TIP3      H2             19.3134010522       18.8010279411       13.2844209837  SOLV      6462            0.0000000000
     19507      6474  TIP3      OH2            15.5314669681       12.1047329653       16.6429655048  SOLV      6463            0.0000000000
     19508      6474  TIP3      H1             15.1958904742       12.1047885056       17.5621743585  SOLV      6463            0.0000000000
     19509      6474  TIP3      H2             15.1093100832       11.2850051471       16.3186509948  SOLV      6463            0.0000000000
     19510      6475  TIP3      OH2            12.1872429596       15.6034592895       22.2409573391  SOLV      6464            0.0000000000
     19511      6475  TIP3      H1             11.2659358583       15.3274476347       22.4315390236  SOLV      6464            0.0000000000
     19512      6475  TIP3      H2             12.3162978220       15.1793755715       21.3630816252  SOLV      6464            0.0000000000
     19513      6476  TIP3      OH2            16.9753324748       16.3475204794       19.3702409887  SOLV      6465            0.0000000000
     19514      6476  TIP3      H1             16.5440974163       17.1477125311       18.9990164168  SOLV      6465            0.0000000000
     19515      6476  TIP3      H2             17.5849075650       16.0942247443       18.6554019275  SOLV      6465            0.0000000000
     19516      6477  TIP3      OH2            12.1122432830       11.8983709207       16.2830510772  SOLV      6466            0.0000000000
     19517      6477  TIP3      H1             12.0114386936       11.8792228348       17.2577185022  SOLV      6466            0.0000000000
     19518      6477  TIP3      H2             11.3270857212       12.4183406116       16.0320525605  SOLV      6466            0.0000000000
     19519      6478  TIP3      OH2             7.5564768267       12.3016616017       25.0174007897  SOLV      6467            0.0000000000
     19520      6478  TIP3      H1              8.2963150714       12.6363403500       25.5661738467  SOLV      6467            0.0000000000
     19521      6478  TIP3      H2              7.9972041330       12.0021465000       24.2122621071  SOLV      6467            0.0000000000
     19522      6479  TIP3      OH2             7.1085568667       12.1012747195       20.1726702948  SOLV      6468            0.0000000000
     19523      6479  TIP3      H1              7.5721501868       12.4774646191       19.3929081476  SOLV      6468            0.0000000000
     19524      6479  TIP3      H2              6.5148214062       12.8464005499       20.3809317949  SOLV      6468            0.0000000000
     19525      6480  TIP3      OH2            15.3222294164       14.2730540041       22.8444641533  SOLV      6469            0.0000000000
     19526      6480  TIP3      H1             14.6062202662       14.0333275839       23.4678713303  SOLV      6469            0.0000000000
     19527      6480  TIP3      H2             16.0539990364       13.7057458495       23.1380574178  SOLV      6469            0.0000000000
     19528      6481  TIP3      OH2             9.8121646612       14.4480341352       22.9262192520  SOLV      6470            0.0000000000
     19529      6481  TIP3      H1              8.8740561850       14.4941455196       22.6296304474  SOLV      6470            0.0000000000
     19530      6481  TIP3      H2             10.0750463874       13.5314858211       22.7138788089  SOLV      6470            0.0000000000
     19531      6482  TIP3      OH2            12.4338531225       14.3494448898       19.8381100663  SOLV      6471            0.0000000000
     19532      6482  TIP3      H1             13.3865384654       14.5252768577       19.6869894366  SOLV      6471            0.0000000000
     19533      6482  TIP3      H2             12.0124008582       14.6261138395       18.9935941195  SOLV      6471            0.0000000000
     19534      6483  TIP3      OH2            10.9974359651       14.7705159268       17.5545696543  SOLV      6472            0.0000000000
     19535      6483  TIP3      H1             10.3040294417       14.3113176813       17.0491352694  SOLV      6472            0.0000000000
     19536      6483  TIP3      H2             11.5260341085       15.1601685761       16.8270885461  SOLV      6472            0.0000000000
     19537      6484  TIP3      OH2            11.4619600020       12.0585958359       22.7161180992  SOLV      6473            0.0000000000
     19538      6484  TIP3      H1             11.1282965850       11.2732067746       23.2043381304  SOLV      6473            0.0000000000
     19539      6484  TIP3      H2             11.9905800545       11.6435901808       22.0240835379  SOLV      6473            0.0000000000
     19540      6485  TIP3      OH2            13.5616328322       19.9856052336       17.6942367060  SOLV      6474            0.0000000000
     19541      6485  TIP3      H1             12.7454155436       19.4722851313       17.5274002303  SOLV      6474            0.0000000000
     19542      6485  TIP3      H2             13.3592568873       20.3959755612       18.5636852753  SOLV      6474            0.0000000000
     19543      6486  TIP3      OH2            17.9575600855       13.1882993214       16.1279463835  SOLV      6475            0.0000000000
     19544      6486  TIP3      H1             17.0323295065       12.9363540274       16.3629628327  SOLV      6475            0.0000000000
     19545      6486  TIP3      H2             18.0541915978       14.0824982337       16.5200648489  SOLV      6475            0.0000000000
     19546      6487  TIP3      OH2            18.6339535270       15.5804086865       17.2673347092  SOLV      6476            0.0000000000
     19547      6487  TIP3      H1             19.5909178135       15.6081977920       17.4905920336  SOLV      6476            0.0000000000
     19548      6487  TIP3      H2             18.4902674809       16.4208488587       16.7892726673  SOLV      6476            0.0000000000
     19549      6488  TIP3      OH2            10.4888885617       20.1146580492       24.4877403457  SOLV      6477            0.0000000000
     19550      6488  TIP3      H1             10.6861455627       20.0155474851       23.5336160300  SOLV      6477            0.0000000000
     19551      6488  TIP3      H2             10.9338858004       19.3507371442       24.8569636536  SOLV      6477            0.0000000000
     19552      6489  TIP3      OH2            14.9587824459       21.4748251796       15.7877348087  SOLV      6478            0.0000000000
     19553      6489  TIP3      H1             14.5759898677       22.3757740923       15.8959242695  SOLV      6478            0.0000000000
     19554      6489  TIP3      H2             14.4770257935       20.9877868268       16.4946688957  SOLV      6478            0.0000000000
     19555      6490  TIP3      OH2            23.1292510781       16.2943958662       15.0120847450  SOLV      6479            0.0000000000
     19556      6490  TIP3      H1             22.3408757677       15.9480523392       14.5287228284  SOLV      6479            0.0000000000
     19557      6490  TIP3      H2             23.1622702023       17.1867923251       14.6149692108  SOLV      6479            0.0000000000
     19558      6491  TIP3      OH2             7.0620370740       16.3590862334       17.7661660527  SOLV      6480            0.0000000000
     19559      6491  TIP3      H1              7.5127248872       17.2059415900       17.9741793567  SOLV      6480            0.0000000000
     19560      6491  TIP3      H2              6.2868327744       16.4145409538       18.3674007910  SOLV      6480            0.0000000000
     19561      6492  TIP3      OH2            12.9650159456       20.9934293433       20.2090614670  SOLV      6481            0.0000000000
     19562      6492  TIP3      H1             12.6067318878       21.7927238033       19.7622549286  SOLV      6481            0.0000000000
     19563      6492  TIP3      H2             12.2411289884       20.7123344016       20.7938077107  SOLV      6481            0.0000000000
     19564      6493  TIP3      OH2            17.5542425983       22.0531213974       13.7004276056  SOLV      6482            0.0000000000
     19565      6493  TIP3      H1             17.8980047433       21.9165516713       14.5946839609  SOLV      6482            0.0000000000
     19566      6493  TIP3      H2             16.6697735385       21.6555291457       13.7920847339  SOLV      6482            0.0000000000
     19567      6494  TIP3      OH2            11.4051248083       21.7410866803       13.7292665576  SOLV      6483            0.0000000000
     19568      6494  TIP3      H1             11.4888357117       20.7890029540       13.5283436084  SOLV      6483            0.0000000000
     19569      6494  TIP3      H2             11.1864740715       21.7013724558       14.6864277821  SOLV      6483            0.0000000000
     19570      6495  TIP3      OH2            10.6742379103       21.7673872074       16.3272020687  SOLV      6484            0.0000000000
     19571      6495  TIP3      H1             11.3253486320       21.8102805982       17.0649972634  SOLV      6484            0.0000000000
     19572      6495  TIP3      H2             10.4839793948       22.7340024703       16.2992027002  SOLV      6484            0.0000000000
     19573      6496  TIP3      OH2             8.1295759839       18.7911232086       18.5597927395  SOLV      6485            0.0000000000
     19574      6496  TIP3      H1              7.4486030021       19.2409549272       19.1057946005  SOLV      6485            0.0000000000
     19575      6496  TIP3      H2              8.2791223069       19.4777982482       17.8810424730  SOLV      6485            0.0000000000
     19576      6497  TIP3      OH2            18.5225102379       12.5179186983       19.0820804450  SOLV      6486            0.0000000000
     19577      6497  TIP3      H1             18.3359646115       12.9111205482       18.2166386556  SOLV      6486            0.0000000000
     19578      6497  TIP3      H2             18.9597717135       13.2676276076       19.5563931019  SOLV      6486            0.0000000000
     19579      6498  TIP3      OH2            13.8704303771       24.0233694887       15.8437439677  SOLV      6487            0.0000000000
     19580      6498  TIP3      H1             13.4246152022       23.8080650645       16.7031002794  SOLV      6487            0.0000000000
     19581      6498  TIP3      H2             13.3202537160       24.7235883595       15.5382060204  SOLV      6487            0.0000000000
     19582      6499  TIP3      OH2            15.1876825911       14.4762047610       20.1175422404  SOLV      6488            0.0000000000
     19583      6499  TIP3      H1             15.8660769555       15.1565781536       19.8958416009  SOLV      6488            0.0000000000
     19584      6499  TIP3      H2             15.2480426642       14.4841951855       21.1008613469  SOLV      6488            0.0000000000
     19585      6500  TIP3      OH2            16.7908954956       11.5724744254       21.0417107128  SOLV      6489            0.0000000000
     19586      6500  TIP3      H1             17.0780471908       12.0751173178       21.8283087412  SOLV      6489            0.0000000000
     19587      6500  TIP3      H2             17.3959697305       11.9464035434       20.3594929390  SOLV      6489            0.0000000000
     19588      6501  TIP3      OH2            10.2344449067       24.4586475084       16.2357018278  SOLV      6490            0.0000000000
     19589      6501  TIP3      H1             10.2154135960       25.4007067236       15.9992850246  SOLV      6490            0.0000000000
     19590      6501  TIP3      H2             10.7547290711       24.4499456693       17.0677598370  SOLV      6490            0.0000000000
     19591      6502  TIP3      OH2            11.9233783448       11.7282299555       19.0290193700  SOLV      6491            0.0000000000
     19592      6502  TIP3      H1             11.8718941821       12.6231947801       19.4225798502  SOLV      6491            0.0000000000
     19593      6502  TIP3      H2             12.8873355936       11.5697701107       19.1276881739  SOLV      6491            0.0000000000
     19594      6503  TIP3      OH2             8.0790588743       20.8380009392       16.6057189845  SOLV      6492            0.0000000000
     19595      6503  TIP3      H1              8.7589778979       21.5188041221       16.7639301855  SOLV      6492            0.0000000000
     19596      6503  TIP3      H2              8.5726886159       20.2943179025       15.9538192862  SOLV      6492            0.0000000000
     19597      6504  TIP3      OH2             7.5038365073       13.6398851560       17.9360000486  SOLV      6493            0.0000000000
     19598      6504  TIP3      H1              7.5529126390       14.6177101733       17.9346890117  SOLV      6493            0.0000000000
     19599      6504  TIP3      H2              6.6989668262       13.4844889419       17.4372440455  SOLV      6493            0.0000000000
     19600      6505  TIP3      OH2            11.4210928874       10.8376682047       26.6248029018  SOLV      6494            0.0000000000
     19601      6505  TIP3      H1             11.1150720045       10.4520826726       25.7795295797  SOLV      6494            0.0000000000
     19602      6505  TIP3      H2             11.3363440499       10.0827007142       27.2424922295  SOLV      6494            0.0000000000
     19603      6506  TIP3      OH2             6.6580148632       22.7437289293       20.5449198489  SOLV      6495            0.0000000000
     19604      6506  TIP3      H1              5.9680606029       23.2591271767       20.9789115244  SOLV      6495            0.0000000000
     19605      6506  TIP3      H2              6.8314058106       23.2987833101       19.7611202825  SOLV      6495            0.0000000000
     19606      6507  TIP3      OH2            12.7869856172       23.8288364778       12.7768227452  SOLV      6496            0.0000000000
     19607      6507  TIP3      H1             12.2097201172       23.1346745282       13.1745283961  SOLV      6496            0.0000000000
     19608      6507  TIP3      H2             13.6251168829       23.3488802076       12.7570710546  SOLV      6496            0.0000000000
     19609      6508  TIP3      OH2            17.4627700920       24.3153652419       12.1283728251  SOLV      6497            0.0000000000
     19610      6508  TIP3      H1             17.8086521174       23.5693266833       12.6612299770  SOLV      6497            0.0000000000
     19611      6508  TIP3      H2             17.8550870332       24.1601903852       11.2356194319  SOLV      6497            0.0000000000
     19612      6509  TIP3      OH2             9.4979938878       18.9592199871       15.1644031728  SOLV      6498            0.0000000000
     19613      6509  TIP3      H1             10.0708376504       18.7379799096       15.9242186098  SOLV      6498            0.0000000000
     19614      6509  TIP3      H2             10.1790350058       19.0415628391       14.4637143261  SOLV      6498            0.0000000000
     19615      6510  TIP3      OH2            14.7286823084       21.0219633416       13.1425243463  SOLV      6499            0.0000000000
     19616      6510  TIP3      H1             14.6192250816       21.1229748511       14.1150868014  SOLV      6499            0.0000000000
     19617      6510  TIP3      H2             14.6768345115       20.0404397811       13.0754521299  SOLV      6499            0.0000000000
     19618      6511  TIP3      OH2            11.4602203533       18.1289963060       17.2709601744  SOLV      6500            0.0000000000
     19619      6511  TIP3      H1             11.2317920012       17.7748533904       18.1465491084  SOLV      6500            0.0000000000
     19620      6511  TIP3      H2             11.8512983229       17.3510532563       16.8247871022  SOLV      6500            0.0000000000
     19621      6512  TIP3      OH2            12.5593392230       16.0481777214       15.7124576317  SOLV      6501            0.0000000000
     19622      6512  TIP3      H1             12.2976191352       16.1468164407       14.7751550637  SOLV      6501            0.0000000000
     19623      6512  TIP3      H2             13.5353341879       16.0882160123       15.6346795146  SOLV      6501            0.0000000000
     19624      6513  TIP3      OH2            20.8150783952       19.3304151254       12.4980943163  SOLV      6502            0.0000000000
     19625      6513  TIP3      H1             20.6700622392       18.8946171264       11.6346289235  SOLV      6502            0.0000000000
     19626      6513  TIP3      H2             20.5747844296       20.2595530728       12.2633811010  SOLV      6502            0.0000000000
     19627      6514  TIP3      OH2            10.4842226671       26.9952087359       14.9662904650  SOLV      6503            0.0000000000
     19628      6514  TIP3      H1             11.4254371301       26.7639507281       14.8257523331  SOLV      6503            0.0000000000
     19629      6514  TIP3      H2             10.2770973069       27.3269887147       14.0741886751  SOLV      6503            0.0000000000
     19630      6515  TIP3      OH2             5.4101329648       20.4634954892       16.8848847643  SOLV      6504            0.0000000000
     19631      6515  TIP3      H1              6.3666089852       20.6803803347       16.7943892065  SOLV      6504            0.0000000000
     19632      6515  TIP3      H2              5.3823995235       19.5696054777       16.4816401376  SOLV      6504            0.0000000000
     19633      6516  TIP3      OH2             4.4678302899       26.5314222409       20.9663794492  SOLV      6505            0.0000000000
     19634      6516  TIP3      H1              3.7938989962       25.8821470994       20.6688663759  SOLV      6505            0.0000000000
     19635      6516  TIP3      H2              5.0128230614       25.9586307242       21.5522741998  SOLV      6505            0.0000000000
     19636      6517  TIP3      OH2             5.8690967743       24.9776459197       22.7790566672  SOLV      6506            0.0000000000
     19637      6517  TIP3      H1              6.4296877814       24.4169529410       23.3108767190  SOLV      6506            0.0000000000
     19638      6517  TIP3      H2              6.0001311627       25.8625493534       23.1993262813  SOLV      6506            0.0000000000
     19639      6518  TIP3      OH2            22.5029444525       19.0134419546       14.5645648862  SOLV      6507            0.0000000000
     19640      6518  TIP3      H1             21.8125507236       19.0233737748       13.8577856146  SOLV      6507            0.0000000000
     19641      6518  TIP3      H2             23.1963334119       19.5167983497       14.1271081283  SOLV      6507            0.0000000000
     19642      6519  TIP3      OH2            21.0267147817       15.6386845735       13.4414756822  SOLV      6508            0.0000000000
     19643      6519  TIP3      H1             20.5828537199       15.7866585544       12.5946847360  SOLV      6508            0.0000000000
     19644      6519  TIP3      H2             20.9417699097       14.6625292035       13.4998783269  SOLV      6508            0.0000000000
     19645      6520  TIP3      OH2             7.9807683272       19.2059565871       26.6655353035  SOLV      6509            0.0000000000
     19646      6520  TIP3      H1              7.8249252843       18.7638602752       25.8003769878  SOLV      6509            0.0000000000
     19647      6520  TIP3      H2              8.8583521117       19.5858125491       26.5144448603  SOLV      6509            0.0000000000
     19648      6521  TIP3      OH2            20.8647020820       12.9343570955       13.4809987470  SOLV      6510            0.0000000000
     19649      6521  TIP3      H1             21.5624847980       12.6186302246       14.0913768737  SOLV      6510            0.0000000000
     19650      6521  TIP3      H2             20.0985356688       12.3746704939       13.7019964226  SOLV      6510            0.0000000000
     19651      6522  TIP3      OH2            21.2807060795       15.3510280649       18.1026868458  SOLV      6511            0.0000000000
     19652      6522  TIP3      H1             21.7110550649       14.4757842030       18.1660406876  SOLV      6511            0.0000000000
     19653      6522  TIP3      H2             22.0205513199       15.9605220610       18.0234796023  SOLV      6511            0.0000000000
     19654      6523  TIP3      OH2            22.6877432306       12.9236746394       18.7463808605  SOLV      6512            0.0000000000
     19655      6523  TIP3      H1             23.2560058477       12.4264134086       19.3591803163  SOLV      6512            0.0000000000
     19656      6523  TIP3      H2             21.9427168917       12.2895830025       18.6466481087  SOLV      6512            0.0000000000
     19657      6524  TIP3      OH2             9.6376566684       12.9836428183       26.7203215688  SOLV      6513            0.0000000000
     19658      6524  TIP3      H1             10.2430128404       12.2191668195       26.8229106642  SOLV      6513            0.0000000000
     19659      6524  TIP3      H2             10.2771897725       13.7132466939       26.6642385728  SOLV      6513            0.0000000000
     19660      6525  TIP3      OH2             7.5272403896       15.6788394912       27.3764997269  SOLV      6514            0.0000000000
     19661      6525  TIP3      H1              8.0796295903       15.5962688969       26.5752927632  SOLV      6514            0.0000000000
     19662      6525  TIP3      H2              7.8278346973       16.5190638882       27.7359575066  SOLV      6514            0.0000000000
     19663      6526  TIP3      OH2            23.1952316516       12.2709563238       14.8636084786  SOLV      6515            0.0000000000
     19664      6526  TIP3      H1             23.6042972544       11.5865307915       14.2923737471  SOLV      6515            0.0000000000
     19665      6526  TIP3      H2             23.8778129374       12.9745755645       14.8425317350  SOLV      6515            0.0000000000
     19666      6527  TIP3      OH2             7.4464683894       10.6651952498       22.4472284719  SOLV      6516            0.0000000000
     19667      6527  TIP3      H1              6.5301498648       10.6479726005       22.7694317576  SOLV      6516            0.0000000000
     19668      6527  TIP3      H2              7.3829854359       11.2734720548       21.6824508632  SOLV      6516            0.0000000000
     19669      6528  TIP3      OH2             9.5801706329       11.6829977137       30.5636871719  SOLV      6517            0.0000000000
     19670      6528  TIP3      H1              9.0897028943       11.5728204093       31.4054285876  SOLV      6517            0.0000000000
     19671      6528  TIP3      H2              8.8435057659       11.8461211920       29.9487138649  SOLV      6517            0.0000000000
     19672      6529  TIP3      OH2            17.3889232804       12.6514209987       23.5404647818  SOLV      6518            0.0000000000
     19673      6529  TIP3      H1             17.2377229274       12.0245634963       24.2780879967  SOLV      6518            0.0000000000
     19674      6529  TIP3      H2             18.3408529391       12.4795082585       23.3434581860  SOLV      6518            0.0000000000
     19675      6530  TIP3      OH2            10.5280760593        9.8856409227       24.1490623310  SOLV      6519            0.0000000000
     19676      6530  TIP3      H1              9.6148995865        9.5387591057       24.2149066500  SOLV      6519            0.0000000000
     19677      6530  TIP3      H2             11.0335397047        9.0432274465       24.1162058759  SOLV      6519            0.0000000000
     19678      6531  TIP3      OH2             8.4138886532        8.6479679624       20.6669061205  SOLV      6520            0.0000000000
     19679      6531  TIP3      H1              8.7275263179        9.2220025382       19.9460255403  SOLV      6520            0.0000000000
     19680      6531  TIP3      H2              8.1466744621        9.3043759621       21.3423083062  SOLV      6520            0.0000000000
     19681      6532  TIP3      OH2            14.9802026423       10.2568384802       22.9775110571  SOLV      6521            0.0000000000
     19682      6532  TIP3      H1             15.5364971890       10.7418452230       22.3517795296  SOLV      6521            0.0000000000
     19683      6532  TIP3      H2             15.3820024008       10.4937244035       23.8343261950  SOLV      6521            0.0000000000
     19684      6533  TIP3      OH2            19.8415872420       11.7501886791       22.6826968190  SOLV      6522            0.0000000000
     19685      6533  TIP3      H1             20.3361585697       11.7185922767       21.8586790416  SOLV      6522            0.0000000000
     19686      6533  TIP3      H2             20.4257136028       11.2440580721       23.2740249408  SOLV      6522            0.0000000000
     19687      6534  TIP3      OH2            20.7458645910       10.9734371252       18.4611603992  SOLV      6523            0.0000000000
     19688      6534  TIP3      H1             19.8876095770       11.4176761183       18.6341708322  SOLV      6523            0.0000000000
     19689      6534  TIP3      H2             20.5740518016       10.1065843859       18.8931345210  SOLV      6523            0.0000000000
     19690      6535  TIP3      OH2             5.5858367520       24.2241063048       18.3815705513  SOLV      6524            0.0000000000
     19691      6535  TIP3      H1              4.6843622720       24.0993675241       18.0374799050  SOLV      6524            0.0000000000
     19692      6535  TIP3      H2              5.6392020396       25.1835290625       18.4582973835  SOLV      6524            0.0000000000
     19693      6536  TIP3      OH2             9.6297460821       10.2182473969       18.2815235069  SOLV      6525            0.0000000000
     19694      6536  TIP3      H1             10.1131534899        9.5860785507       17.7167686250  SOLV      6525            0.0000000000
     19695      6536  TIP3      H2             10.3658018484       10.7554766589       18.6425212695  SOLV      6525            0.0000000000
     19696      6537  TIP3      OH2            14.6800574023       11.9625124188       19.2651239201  SOLV      6526            0.0000000000
     19697      6537  TIP3      H1             15.3028126362       11.5416384557       19.8872063685  SOLV      6526            0.0000000000
     19698      6537  TIP3      H2             14.8229022650       12.9017170673       19.5239174841  SOLV      6526            0.0000000000
     19699      6538  TIP3      OH2            12.9341868279       26.2202019550       14.1093113006  SOLV      6527            0.0000000000
     19700      6538  TIP3      H1             13.8740263641       26.2877122877       13.8535607054  SOLV      6527            0.0000000000
     19701      6538  TIP3      H2             12.6814810730       25.4412596638       13.5687458747  SOLV      6527            0.0000000000
     19702      6539  TIP3      OH2             6.3242751412       24.5728659113       14.8860499691  SOLV      6528            0.0000000000
     19703      6539  TIP3      H1              6.4101099437       24.6316495116       15.8476052215  SOLV      6528            0.0000000000
     19704      6539  TIP3      H2              7.1902314443       24.1730510454       14.6333947354  SOLV      6528            0.0000000000
     19705      6540  TIP3      OH2            30.3110700285       14.6253350811       11.4926893993  SOLV      6529            0.0000000000
     19706      6540  TIP3      H1             30.1869888847       14.2665893581       12.3811569748  SOLV      6529            0.0000000000
     19707      6540  TIP3      H2             29.5487975936       15.2378378411       11.4309230408  SOLV      6529            0.0000000000
     19708      6541  TIP3      OH2            25.0292664607       14.3343555170       15.0292240779  SOLV      6530            0.0000000000
     19709      6541  TIP3      H1             25.5036245037       14.5403365669       14.1961372006  SOLV      6530            0.0000000000
     19710      6541  TIP3      H2             24.4186753398       15.1010535060       15.0499412637  SOLV      6530            0.0000000000
     19711      6542  TIP3      OH2            25.2578856074       15.6222624973       12.6350169267  SOLV      6531            0.0000000000
     19712      6542  TIP3      H1             25.3152310116       16.5930994979       12.7798447422  SOLV      6531            0.0000000000
     19713      6542  TIP3      H2             24.4304608593       15.5425911175       12.1626872555  SOLV      6531            0.0000000000
     19714      6543  TIP3      OH2            25.1200679355       12.9018087869       17.2923471078  SOLV      6532            0.0000000000
     19715      6543  TIP3      H1             24.1981883311       12.8875943538       17.6035476036  SOLV      6532            0.0000000000
     19716      6543  TIP3      H2             25.0653552228       13.4924347966       16.5078745209  SOLV      6532            0.0000000000
     19717      6544  TIP3      OH2            26.3254260889       11.1175180749       15.4114622881  SOLV      6533            0.0000000000
     19718      6544  TIP3      H1             26.5731707033       11.7342874397       14.6972015613  SOLV      6533            0.0000000000
     19719      6544  TIP3      H2             26.0458356863       11.7308005617       16.1209566791  SOLV      6533            0.0000000000
     19720      6545  TIP3      OH2            27.2482194343       12.7662681723       13.2119074506  SOLV      6534            0.0000000000
     19721      6545  TIP3      H1             27.9475772629       12.2833689208       12.7388121823  SOLV      6534            0.0000000000
     19722      6545  TIP3      H2             27.7235159067       13.4861023343       13.6654353852  SOLV      6534            0.0000000000
     19723      6546  TIP3      OH2           -16.9507016673       23.1189060397       23.4379344436  SOLV      6535            0.0000000000
     19724      6546  TIP3      H1            -17.8800994931       23.1878454433       23.7071612742  SOLV      6535            0.0000000000
     19725      6546  TIP3      H2            -16.6915384723       24.0641954921       23.5244020503  SOLV      6535            0.0000000000
     19726      6547  TIP3      OH2           -18.5882676856       25.8705243141       20.0018940634  SOLV      6536            0.0000000000
     19727      6547  TIP3      H1            -17.9310900553       25.4891250690       20.6015112329  SOLV      6536            0.0000000000
     19728      6547  TIP3      H2            -19.4222436102       25.4541412418       20.2967631297  SOLV      6536            0.0000000000
     19729      6548  TIP3      OH2           -15.9333090017       25.3961508411       21.1464433006  SOLV      6537            0.0000000000
     19730      6548  TIP3      H1            -15.7079995588       24.5973538983       20.6207940925  SOLV      6537            0.0000000000
     19731      6548  TIP3      H2            -15.8103464454       26.1281778331       20.5355848961  SOLV      6537            0.0000000000
     19732      6549  TIP3      OH2            -1.7725105086       30.0758280890       21.7513921157  SOLV      6538            0.0000000000
     19733      6549  TIP3      H1             -1.0988454625       29.9231137662       22.4512163455  SOLV      6538            0.0000000000
     19734      6549  TIP3      H2             -1.3361793313       30.7779704223       21.2451280082  SOLV      6538            0.0000000000
     19735      6550  TIP3      OH2             0.3344684528       30.0433812021       23.4645768235  SOLV      6539            0.0000000000
     19736      6550  TIP3      H1              0.3961308999       29.8589252161       24.4029750846  SOLV      6539            0.0000000000
     19737      6550  TIP3      H2              0.9374137155       30.7990723551       23.3489830367  SOLV      6539            0.0000000000
     19738      6551  TIP3      OH2            -5.3382017614       26.2584548593       27.0574825219  SOLV      6540            0.0000000000
     19739      6551  TIP3      H1             -5.2301561138       25.3007006037       27.2044492015  SOLV      6540            0.0000000000
     19740      6551  TIP3      H2             -6.0703848688       26.4834668173       27.6399037092  SOLV      6540            0.0000000000
     19741      6552  TIP3      OH2            -6.1170372335       31.9799595199       16.9552117396  SOLV      6541            0.0000000000
     19742      6552  TIP3      H1             -5.3962363896       32.5495539440       17.2942422517  SOLV      6541            0.0000000000
     19743      6552  TIP3      H2             -5.5953980742       31.3616956018       16.4021371398  SOLV      6541            0.0000000000
     19744      6553  TIP3      OH2            -2.5469107446       35.1254762832       19.5342156069  SOLV      6542            0.0000000000
     19745      6553  TIP3      H1             -2.5130309501       35.5099829934       20.4203595377  SOLV      6542            0.0000000000
     19746      6553  TIP3      H2             -1.7152329608       34.5871716968       19.6014471080  SOLV      6542            0.0000000000
     19747      6554  TIP3      OH2            -3.9864279336       33.5172154708       17.7421782879  SOLV      6543            0.0000000000
     19748      6554  TIP3      H1             -3.5679532307       34.2223739986       18.2736734922  SOLV      6543            0.0000000000
     19749      6554  TIP3      H2             -3.6524419589       33.7482080362       16.8396345713  SOLV      6543            0.0000000000
     19750      6555  TIP3      OH2             1.1772402914       25.9142218227       18.1394239090  SOLV      6544            0.0000000000
     19751      6555  TIP3      H1              0.3787204241       26.1521445821       18.6529388448  SOLV      6544            0.0000000000
     19752      6555  TIP3      H2              1.3278096206       26.7325023890       17.6236660756  SOLV      6544            0.0000000000
     19753      6556  TIP3      OH2            -2.9886976465       34.0321586702       15.3107151172  SOLV      6545            0.0000000000
     19754      6556  TIP3      H1             -3.4224547573       33.7633968491       14.4738914986  SOLV      6545            0.0000000000
     19755      6556  TIP3      H2             -2.0967802601       34.2338885762       14.9669289350  SOLV      6545            0.0000000000
     19756      6557  TIP3      OH2            -6.0844572014       27.7424091275       18.1588833531  SOLV      6546            0.0000000000
     19757      6557  TIP3      H1             -6.4344205442       27.6850781575       19.0677087405  SOLV      6546            0.0000000000
     19758      6557  TIP3      H2             -6.4382553618       26.9095883903       17.7896479524  SOLV      6546            0.0000000000
     19759      6558  TIP3      OH2            -4.7541338310       32.0744763291       20.6160630580  SOLV      6547            0.0000000000
     19760      6558  TIP3      H1             -5.1398696916       32.7169017185       20.0039773573  SOLV      6547            0.0000000000
     19761      6558  TIP3      H2             -4.0820875691       31.6507091653       20.0355355418  SOLV      6547            0.0000000000
     19762      6559  TIP3      OH2            -9.3823831045       27.4588640257       17.7511757992  SOLV      6548            0.0000000000
     19763      6559  TIP3      H1             -9.5658636189       27.4556806092       18.7184627771  SOLV      6548            0.0000000000
     19764      6559  TIP3      H2            -10.2271696796       27.7781571297       17.3901212699  SOLV      6548            0.0000000000
     19765      6560  TIP3      OH2            -8.6452547389       30.6105976810       20.8365169083  SOLV      6549            0.0000000000
     19766      6560  TIP3      H1             -7.8008425554       30.4858556194       21.3251512161  SOLV      6549            0.0000000000
     19767      6560  TIP3      H2             -9.0877035668       29.7700025206       21.0256509713  SOLV      6549            0.0000000000
     19768      6561  TIP3      OH2           -10.5830731671       30.1050614585       18.8364170220  SOLV      6550            0.0000000000
     19769      6561  TIP3      H1            -11.1919869361       29.3753621126       19.0249449868  SOLV      6550            0.0000000000
     19770      6561  TIP3      H2            -10.5552525743       30.0004636965       17.8654134785  SOLV      6550            0.0000000000
     19771      6562  TIP3      OH2            -9.6766409358       26.8851304729       23.2502810195  SOLV      6551            0.0000000000
     19772      6562  TIP3      H1             -9.9928360559       26.2814003645       23.9481161430  SOLV      6551            0.0000000000
     19773      6562  TIP3      H2             -8.8334515921       27.1576693921       23.6249382372  SOLV      6551            0.0000000000
     19774      6563  TIP3      OH2            -3.5536880812       28.6917995713       17.8844566855  SOLV      6552            0.0000000000
     19775      6563  TIP3      H1             -4.5238775998       28.5260278747       17.9513867240  SOLV      6552            0.0000000000
     19776      6563  TIP3      H2             -3.4651834214       29.6430332470       18.0907239336  SOLV      6552            0.0000000000
     19777      6564  TIP3      OH2            -2.8384138145       31.2143461267       18.8527374195  SOLV      6553            0.0000000000
     19778      6564  TIP3      H1             -1.8761641869       31.2348271994       19.0405815657  SOLV      6553            0.0000000000
     19779      6564  TIP3      H2             -2.9585136141       32.0059343304       18.2948410575  SOLV      6553            0.0000000000
     19780      6565  TIP3      OH2             1.4520741919       32.0492188138       17.2601536976  SOLV      6554            0.0000000000
     19781      6565  TIP3      H1              0.8403158149       31.6216095889       16.6169306158  SOLV      6554            0.0000000000
     19782      6565  TIP3      H2              1.5027156454       32.9208657175       16.8041843507  SOLV      6554            0.0000000000
     19783      6566  TIP3      OH2            -2.0376791741       36.9622437682       17.3893948550  SOLV      6555            0.0000000000
     19784      6566  TIP3      H1             -2.3082748895       36.3107522304       18.0814616862  SOLV      6555            0.0000000000
     19785      6566  TIP3      H2             -1.1621955910       36.6429391672       17.1473278476  SOLV      6555            0.0000000000
     19786      6567  TIP3      OH2            -3.2537061539       28.1381655728       20.6309821709  SOLV      6556            0.0000000000
     19787      6567  TIP3      H1             -3.2807664373       28.3592383892       19.6793420995  SOLV      6556            0.0000000000
     19788      6567  TIP3      H2             -2.7066637950       28.8762447969       20.9912298055  SOLV      6556            0.0000000000
     19789      6568  TIP3      OH2            -6.1705728485       30.0929864252       21.8694547390  SOLV      6557            0.0000000000
     19790      6568  TIP3      H1             -5.6436019400       30.7716704177       21.3881883073  SOLV      6557            0.0000000000
     19791      6568  TIP3      H2             -5.5931456174       29.9030567630       22.6150463850  SOLV      6557            0.0000000000
     19792      6569  TIP3      OH2            -4.7058494966       27.3251102001       22.8146878705  SOLV      6558            0.0000000000
     19793      6569  TIP3      H1             -4.1647565125       27.6808440644       23.5263618239  SOLV      6558            0.0000000000
     19794      6569  TIP3      H2             -4.1979218407       27.6320817575       22.0184847975  SOLV      6558            0.0000000000
     19795      6570  TIP3      OH2            -9.7477824263       27.2885114430       20.5380632616  SOLV      6559            0.0000000000
     19796      6570  TIP3      H1             -9.9130666198       27.1810359685       21.4609164368  SOLV      6559            0.0000000000
     19797      6570  TIP3      H2             -8.7487905171       27.2208723546       20.5451928309  SOLV      6559            0.0000000000
     19798      6571  TIP3      OH2           -14.1348896520       29.3359080529       19.8129748013  SOLV      6560            0.0000000000
     19799      6571  TIP3      H1            -14.5458255876       30.0672101575       19.3334616734  SOLV      6560            0.0000000000
     19800      6571  TIP3      H2            -14.8349413534       28.6696367687       19.7507509772  SOLV      6560            0.0000000000
     19801      6572  TIP3      OH2            -8.7553901793       31.7670536616       17.4031084185  SOLV      6561            0.0000000000
     19802      6572  TIP3      H1             -9.1423311605       31.7306831514       16.4977033812  SOLV      6561            0.0000000000
     19803      6572  TIP3      H2             -7.7969360535       31.8130691773       17.1687619891  SOLV      6561            0.0000000000
     19804      6573  TIP3      OH2            -0.7152556922       34.5745109006       13.8902740003  SOLV      6562            0.0000000000
     19805      6573  TIP3      H1             -0.9657200195       34.1639674655       13.0322961260  SOLV      6562            0.0000000000
     19806      6573  TIP3      H2             -0.6778759966       35.4990544020       13.6141767315  SOLV      6562            0.0000000000
     19807      6574  TIP3      OH2             0.6481131870       36.6119260087       16.8267525103  SOLV      6563            0.0000000000
     19808      6574  TIP3      H1              1.2510929931       37.2538443075       16.2780185632  SOLV      6563            0.0000000000
     19809      6574  TIP3      H2              0.8171935002       36.8869036276       17.6846492408  SOLV      6563            0.0000000000
     19810      6575  TIP3      OH2             1.2997090365       34.2500731313       15.6952110135  SOLV      6564            0.0000000000
     19811      6575  TIP3      H1              0.5567382119       34.1915166647       15.0534620352  SOLV      6564            0.0000000000
     19812      6575  TIP3      H2              1.0646316878       35.1147486074       16.1315686934  SOLV      6564            0.0000000000
     19813      6576  TIP3      OH2            -0.1983495885       31.2562906963       15.2243416566  SOLV      6565            0.0000000000
     19814      6576  TIP3      H1             -0.5576486287       31.5142181190       14.3685371412  SOLV      6565            0.0000000000
     19815      6576  TIP3      H2             -0.3806039859       30.2897903897       15.2062317137  SOLV      6565            0.0000000000
     19816      6577  TIP3      OH2            -0.1844694082       33.9808605626       20.1961265451  SOLV      6566            0.0000000000
     19817      6577  TIP3      H1              0.0627273986       33.0355948334       20.1477620156  SOLV      6566            0.0000000000
     19818      6577  TIP3      H2              0.5449165413       34.3988283602       20.6612311418  SOLV      6566            0.0000000000
     19819      6578  TIP3      OH2            -0.6838980567       28.5976778996       15.1187519424  SOLV      6567            0.0000000000
     19820      6578  TIP3      H1              0.0750566274       28.2466696359       15.6290465085  SOLV      6567            0.0000000000
     19821      6578  TIP3      H2             -1.3930762851       27.9593325150       15.2923345638  SOLV      6567            0.0000000000
     19822      6579  TIP3      OH2            -0.0402980129       31.1934475671       19.5629660559  SOLV      6568            0.0000000000
     19823      6579  TIP3      H1              0.3161620021       30.3038656588       19.7825566594  SOLV      6568            0.0000000000
     19824      6579  TIP3      H2              0.5197599667       31.4186534217       18.7952033803  SOLV      6568            0.0000000000
     19825      6580  TIP3      OH2             0.9891843094       28.6671832024       20.0628239334  SOLV      6569            0.0000000000
     19826      6580  TIP3      H1              1.4508644469       28.4731280010       20.9053715865  SOLV      6569            0.0000000000
     19827      6580  TIP3      H2              0.3608262203       27.9161718545       20.0280354369  SOLV      6569            0.0000000000
     19828      6581  TIP3      OH2             1.7588232120       27.9899345380       16.3757720309  SOLV      6570            0.0000000000
     19829      6581  TIP3      H1              2.1697363673       27.2687679137       15.8527663737  SOLV      6570            0.0000000000
     19830      6581  TIP3      H2              2.4561629227       28.6732497279       16.3517021596  SOLV      6570            0.0000000000
     19831      6582  TIP3      OH2            -3.1241839948       28.1124886888       25.3505438333  SOLV      6571            0.0000000000
     19832      6582  TIP3      H1             -3.0531119691       27.2670488976       25.8269075507  SOLV      6571            0.0000000000
     19833      6582  TIP3      H2             -2.2961147155       28.1368831200       24.8887404361  SOLV      6571            0.0000000000
     19834      6583  TIP3      OH2             1.7959547508       27.3735665485       24.7199474603  SOLV      6572            0.0000000000
     19835      6583  TIP3      H1              2.1515766034       27.7803097109       23.9001189670  SOLV      6572            0.0000000000
     19836      6583  TIP3      H2              0.8363722126       27.4091475715       24.5420661451  SOLV      6572            0.0000000000
     19837      6584  TIP3      OH2             2.6760954863       28.1569209579       22.2392261730  SOLV      6573            0.0000000000
     19838      6584  TIP3      H1              3.3688438906       27.5975410318       21.8226598149  SOLV      6573            0.0000000000
     19839      6584  TIP3      H2              3.0818634458       29.0413137003       22.1101774272  SOLV      6573            0.0000000000
     19840      6585  TIP3      OH2           -13.0244634007       24.1457377522       22.0723522676  SOLV      6574            0.0000000000
     19841      6585  TIP3      H1            -12.7181344846       24.6405545671       21.2893024225  SOLV      6574            0.0000000000
     19842      6585  TIP3      H2            -13.6456455798       24.7677474381       22.4674133763  SOLV      6574            0.0000000000
     19843      6586  TIP3      OH2            -6.6497098560       25.9400669139       24.3623067689  SOLV      6575            0.0000000000
     19844      6586  TIP3      H1             -5.9968344294       26.3931842360       23.7964585790  SOLV      6575            0.0000000000
     19845      6586  TIP3      H2             -6.3646211843       26.2204741585       25.2431612783  SOLV      6575            0.0000000000
     19846      6587  TIP3      OH2            -0.9013828124       27.0786334626       24.1303739354  SOLV      6576            0.0000000000
     19847      6587  TIP3      H1             -0.6521487211       26.6179393939       23.3137670078  SOLV      6576            0.0000000000
     19848      6587  TIP3      H2             -1.0992572257       26.3176522385       24.7270465584  SOLV      6576            0.0000000000
     19849      6588  TIP3      OH2            -0.8411186565       26.5606548304       19.9574910541  SOLV      6577            0.0000000000
     19850      6588  TIP3      H1             -1.7310430357       26.9271150589       20.0977261052  SOLV      6577            0.0000000000
     19851      6588  TIP3      H2             -0.9391793768       25.6857294737       20.3928644692  SOLV      6577            0.0000000000
     19852      6589  TIP3      OH2           -12.0019666512       25.6930038511       19.8124694925  SOLV      6578            0.0000000000
     19853      6589  TIP3      H1            -11.5315554482       25.0542864587       19.2359173036  SOLV      6578            0.0000000000
     19854      6589  TIP3      H2            -11.2607080146       26.2548923434       20.1142395234  SOLV      6578            0.0000000000
     19855      6590  TIP3      OH2            -6.9756631791       27.6040542152       20.8143953854  SOLV      6579            0.0000000000
     19856      6590  TIP3      H1             -6.4867560867       26.9512206552       21.3344940975  SOLV      6579            0.0000000000
     19857      6590  TIP3      H2             -6.6197217927       28.4364100150       21.1807623612  SOLV      6579            0.0000000000
     19858      6591  TIP3      OH2             3.6717030518       33.1876097673       18.7310395740  SOLV      6580            0.0000000000
     19859      6591  TIP3      H1              3.3676208354       33.8361574234       19.3735268972  SOLV      6580            0.0000000000
     19860      6591  TIP3      H2              2.8475101420       32.8176745430       18.3777556157  SOLV      6580            0.0000000000
     19861      6592  TIP3      OH2            11.7309048017       30.4794821738       12.6711793589  SOLV      6581            0.0000000000
     19862      6592  TIP3      H1             11.6856664076       30.7159189401       13.6140500938  SOLV      6581            0.0000000000
     19863      6592  TIP3      H2             11.3230186384       29.5891008386       12.6477791822  SOLV      6581            0.0000000000
     19864      6593  TIP3      OH2             8.3509685023       29.9857727516       12.5680934911  SOLV      6582            0.0000000000
     19865      6593  TIP3      H1              8.2602242919       29.9518077477       13.5429185103  SOLV      6582            0.0000000000
     19866      6593  TIP3      H2              7.6703523396       30.6267481132       12.3398826738  SOLV      6582            0.0000000000
     19867      6594  TIP3      OH2             4.0728877394       30.3730562020       21.5130429622  SOLV      6583            0.0000000000
     19868      6594  TIP3      H1              5.0025757592       30.6118509525       21.5035440832  SOLV      6583            0.0000000000
     19869      6594  TIP3      H2              3.9560308969       30.0294393013       20.5982442455  SOLV      6583            0.0000000000
     19870      6595  TIP3      OH2             3.5424840968       30.2217366596       16.5641097285  SOLV      6584            0.0000000000
     19871      6595  TIP3      H1              3.9318367911       30.5842062657       15.7391370582  SOLV      6584            0.0000000000
     19872      6595  TIP3      H2              2.9564264761       30.9617763061       16.8093492726  SOLV      6584            0.0000000000
     19873      6596  TIP3      OH2             7.0368999811       32.4386914561       13.8821079707  SOLV      6585            0.0000000000
     19874      6596  TIP3      H1              6.1989502234       32.1547064280       13.4833309453  SOLV      6585            0.0000000000
     19875      6596  TIP3      H2              7.4784062512       32.8342960109       13.0909243998  SOLV      6585            0.0000000000
     19876      6597  TIP3      OH2             3.4923207293       34.4259041665       14.1379832243  SOLV      6586            0.0000000000
     19877      6597  TIP3      H1              3.8036833574       35.3270366583       14.2654485803  SOLV      6586            0.0000000000
     19878      6597  TIP3      H2              2.7287155864       34.3953174649       14.7610428584  SOLV      6586            0.0000000000
     19879      6598  TIP3      OH2             8.2141062899       29.7654376858       15.3270361109  SOLV      6587            0.0000000000
     19880      6598  TIP3      H1              8.3559465141       30.6795666786       15.6104729358  SOLV      6587            0.0000000000
     19881      6598  TIP3      H2              8.9212523717       29.2793224159       15.7707711587  SOLV      6587            0.0000000000
     19882      6599  TIP3      OH2             3.8554244007       31.6993675552       14.2890591506  SOLV      6588            0.0000000000
     19883      6599  TIP3      H1              3.9076876140       32.6764812124       14.3302295800  SOLV      6588            0.0000000000
     19884      6599  TIP3      H2              3.0471177813       31.5582247789       13.7891205810  SOLV      6588            0.0000000000
     19885      6600  TIP3      OH2             5.7532302991       36.4673792827       11.5131316031  SOLV      6589            0.0000000000
     19886      6600  TIP3      H1              6.1745148318       36.8387106250       12.3044152044  SOLV      6589            0.0000000000
     19887      6600  TIP3      H2              6.5230677382       36.4830868958       10.8839851176  SOLV      6589            0.0000000000
     19888      6601  TIP3      OH2             8.3705776643       33.5877740197       11.8715678082  SOLV      6590            0.0000000000
     19889      6601  TIP3      H1              8.3048567404       33.6858341547       10.8972407280  SOLV      6590            0.0000000000
     19890      6601  TIP3      H2              8.9293982263       34.3315596321       12.1265518362  SOLV      6590            0.0000000000
     19891      6602  TIP3      OH2             3.6682783826       29.1840798014       19.0704407850  SOLV      6591            0.0000000000
     19892      6602  TIP3      H1              2.7504152596       28.8679837348       19.1346990914  SOLV      6591            0.0000000000
     19893      6602  TIP3      H2              3.7005150616       29.5403823294       18.1574672848  SOLV      6591            0.0000000000
     19894      6603  TIP3      OH2             6.6146707077       28.0414941517       19.9868986000  SOLV      6592            0.0000000000
     19895      6603  TIP3      H1              5.7362594177       27.6897592438       20.2369941692  SOLV      6592            0.0000000000
     19896      6603  TIP3      H2              7.1366504658       27.2112125240       20.0435730655  SOLV      6592            0.0000000000
     19897      6604  TIP3      OH2             4.6117001349       26.8188989698       16.9371812593  SOLV      6593            0.0000000000
     19898      6604  TIP3      H1              5.0439673220       27.3189089942       16.2204128125  SOLV      6593            0.0000000000
     19899      6604  TIP3      H2              4.6619880781       27.4351593136       17.6781266225  SOLV      6593            0.0000000000
     19900      6605  TIP3      OH2             5.9505572684       28.2990191400       14.6292644105  SOLV      6594            0.0000000000
     19901      6605  TIP3      H1              6.4232611940       27.6528145914       14.0672967032  SOLV      6594            0.0000000000
     19902      6605  TIP3      H2              6.6950960444       28.8564650974       14.9370627433  SOLV      6594            0.0000000000
     19903      6606  LIT       LIT           -21.9319982650        0.2541526393      -18.7437329733  IONS      1               1.0000000000
     19904      6607  LIT       LIT            22.2204074986       21.4219536925       -0.6732246118  IONS      2               1.0000000000
     19905      6608  LIT       LIT           -10.9883217325        1.2978960688       16.4240930481  IONS      3               1.0000000000
     19906      6609  LIT       LIT            16.9826142468      -10.8387793182       19.5705986310  IONS      4               1.0000000000
     19907      6610  LIT       LIT            16.4643542701      -29.0211578270       -2.6366783263  IONS      5               1.0000000000
     19908      6611  LIT       LIT            17.4915129862        9.3581607466        5.8777576317  IONS      6               1.0000000000
     19909      6612  LIT       LIT             6.4500874734       15.3141507223      -25.5946971463  IONS      7               1.0000000000
     19910      6613  LIT       LIT           -18.8515617575       -0.5829979448        5.1837879520  IONS      8               1.0000000000
     19911      6614  LIT       LIT            21.4041727040       -4.6600331007        9.8295783352  IONS      9               1.0000000000
     19912      6615  LIT       LIT            34.2580925467        8.2184038697        6.1298246000  IONS      10              1.0000000000
     19913      6616  LIT       LIT            16.4066725638       26.0701047998        7.3045440774  IONS      11              1.0000000000
     19914      6617  LIT       LIT            -9.2226362800       31.4453065206       19.2221459194  IONS      12              1.0000000000
     19915      6618  LIT       LIT            31.9025878545      -14.8341728162       15.5194721441  IONS      13              1.0000000000
     19916      6619  LIT       LIT           -27.8001212102      -13.6003444851        8.9144386906  IONS      14              1.0000000000
     19917      6620  LIT       LIT           -21.1284091094       13.2102664356       25.9285963450  IONS      15              1.0000000000
     19918      6621  LIT       LIT            -4.3516417744       27.7180105325      -16.9512014817  IONS      16              1.0000000000
     19919      6622  LIT       LIT             2.0165412061      -10.7194561023        0.9937240493  IONS      17              1.0000000000
     19920      6623  LIT       LIT           -18.8192503744      -25.0013181286        9.2775772594  IONS      18              1.0000000000
     19921      6624  LIT       LIT            -1.3621068844       -5.2179819799       26.2891163604  IONS      19              1.0000000000
     19922      6625  LIT       LIT            -9.1659379278        5.5885263894        7.8613220184  IONS      20              1.0000000000
     19923      6626  LIT       LIT            -9.1476218997        6.9646031491      -33.9879836800  IONS      21              1.0000000000
     19924      6627  LIT       LIT             9.3856217908      -25.9080470992       -9.5542376010  IONS      22              1.0000000000
     19925      6628  CLA       CLA            19.8293403562       17.1437514312        6.4274717087  IONS      23             -1.0000000000
     19926      6629  CLA       CLA            13.4547078879        5.1399891344       28.8099463221  IONS      24             -1.0000000000
     19927      6630  CLA       CLA           -18.1547368190       15.7315993664      -15.8637877198  IONS      25             -1.0000000000
     19928      6631  CLA       CLA             0.0389970069      -29.8106676225       20.1876326603  IONS      26             -1.0000000000
     19929      6632  CLA       CLA           -19.8796612341      -19.7954690943       12.2488492691  IONS      27             -1.0000000000
     19930      6633  CLA       CLA             0.6498702723       28.8260910077      -22.7595030053  IONS      28             -1.0000000000
     19931      6634  CLA       CLA           -23.2634818707      -10.6127416431        3.9449683707  IONS      29             -1.0000000000
     19932      6635  CLA       CLA            31.6118668493      -12.7003829804       16.3300198388  IONS      30             -1.0000000000
     19933      6636  CLA       CLA            23.1106700215        8.2775791017      -22.9214135488  IONS      31             -1.0000000000
     19934      6637  CLA       CLA            12.2339371169       23.3245802150       18.3546252599  IONS      32             -1.0000000000
     19935      6638  CLA       CLA            22.6189897454       16.7280439210       -5.3167647038  IONS      33             -1.0000000000
     19936      6639  CLA       CLA            13.8560352001       30.8721280467      -16.2132258775  IONS      34             -1.0000000000
     19937      6640  CLA       CLA           -26.9479714611       -0.3637942938       19.4632202608  IONS      35             -1.0000000000
     19938      6641  CLA       CLA           -10.9455341107        2.1046284998       14.5382959038  IONS      36             -1.0000000000
     19939      6642  CLA       CLA           -19.8840784675       -5.2350863476      -28.6536036761  IONS      37             -1.0000000000
     19940      6643  CLA       CLA            14.7439630832        7.7312680395       -4.0316435309  IONS      38             -1.0000000000
     19941      6644  CLA       CLA            23.4589521676       -6.2816444588       13.5583209918  IONS      39             -1.0000000000
     19942      6645  CLA       CLA            -7.9608536823       16.4057033054       19.8994066350  IONS      40             -1.0000000000
