PSF EXT CMAP XPLOR

         3 !NTITLE
* GENERATED BY CHARMM-GUI (HTTP://WWW.CHARMM-GUI.ORG) V3.7 ON JUN, 17. 2026. JOB
* READ PDB, MANIPULATE STRUCTURE IF NEEDED, AND GENERATE TOPOLOGY FILE          
*  DATE:     6/17/26     23:40:26      CREATED BY USER: charmm-gui              

       120 !NATOM
         1 PROA     1        ASP      N        NH3     -0.300000       14.0070           0
         2 PROA     1        ASP      HT1      HC       0.330000       1.00800           0
         3 PROA     1        ASP      HT2      HC       0.330000       1.00800           0
         4 PROA     1        ASP      HT3      HC       0.330000       1.00800           0
         5 PROA     1        ASP      CA       CT1      0.210000       12.0110           0
         6 PROA     1        ASP      HA       HB1      0.100000       1.00800           0
         7 PROA     1        ASP      CB       CT2A    -0.280000       12.0110           0
         8 PROA     1        ASP      HB1      HA2      0.900000E-01   1.00800           0
         9 PROA     1        ASP      HB2      HA2      0.900000E-01   1.00800           0
        10 PROA     1        ASP      CG       CC       0.620000       12.0110           0
        11 PROA     1        ASP      OD1      OC      -0.760000       15.9994           0
        12 PROA     1        ASP      OD2      OC      -0.760000       15.9994           0
        13 PROA     1        ASP      C        C        0.510000       12.0110           0
        14 PROA     1        ASP      O        O       -0.510000       15.9994           0
        15 PROA     2        ALA      N        NH1     -0.470000       14.0070           0
        16 PROA     2        ALA      HN       H        0.310000       1.00800           0
        17 PROA     2        ALA      CA       CT1      0.700000E-01   12.0110           0
        18 PROA     2        ALA      HA       HB1      0.900000E-01   1.00800           0
        19 PROA     2        ALA      CB       CT3     -0.270000       12.0110           0
        20 PROA     2        ALA      HB1      HA3      0.900000E-01   1.00800           0
        21 PROA     2        ALA      HB2      HA3      0.900000E-01   1.00800           0
        22 PROA     2        ALA      HB3      HA3      0.900000E-01   1.00800           0
        23 PROA     2        ALA      C        C        0.510000       12.0110           0
        24 PROA     2        ALA      O        O       -0.510000       15.9994           0
        25 PROA     3        ASP      N        NH1     -0.470000       14.0070           0
        26 PROA     3        ASP      HN       H        0.310000       1.00800           0
        27 PROA     3        ASP      CA       CT1      0.700000E-01   12.0110           0
        28 PROA     3        ASP      HA       HB1      0.900000E-01   1.00800           0
        29 PROA     3        ASP      CB       CT2A    -0.280000       12.0110           0
        30 PROA     3        ASP      HB1      HA2      0.900000E-01   1.00800           0
        31 PROA     3        ASP      HB2      HA2      0.900000E-01   1.00800           0
        32 PROA     3        ASP      CG       CC       0.620000       12.0110           0
        33 PROA     3        ASP      OD1      OC      -0.760000       15.9994           0
        34 PROA     3        ASP      OD2      OC      -0.760000       15.9994           0
        35 PROA     3        ASP      C        C        0.510000       12.0110           0
        36 PROA     3        ASP      O        O       -0.510000       15.9994           0
        37 PROA     4        GLY      N        NH1     -0.470000       14.0070           0
        38 PROA     4        GLY      HN       H        0.310000       1.00800           0
        39 PROA     4        GLY      CA       CT2     -0.200000E-01   12.0110           0
        40 PROA     4        GLY      HA1      HB2      0.900000E-01   1.00800           0
        41 PROA     4        GLY      HA2      HB2      0.900000E-01   1.00800           0
        42 PROA     4        GLY      C        C        0.510000       12.0110           0
        43 PROA     4        GLY      O        O       -0.510000       15.9994           0
        44 PROA     5        PRO      N        N       -0.290000       14.0070           0
        45 PROA     5        PRO      CD       CP3       0.00000       12.0110           0
        46 PROA     5        PRO      HD1      HA2      0.900000E-01   1.00800           0
        47 PROA     5        PRO      HD2      HA2      0.900000E-01   1.00800           0
        48 PROA     5        PRO      CA       CP1      0.200000E-01   12.0110           0
        49 PROA     5        PRO      HA       HB1      0.900000E-01   1.00800           0
        50 PROA     5        PRO      CB       CP2     -0.180000       12.0110           0
        51 PROA     5        PRO      HB1      HA2      0.900000E-01   1.00800           0
        52 PROA     5        PRO      HB2      HA2      0.900000E-01   1.00800           0
        53 PROA     5        PRO      CG       CP2     -0.180000       12.0110           0
        54 PROA     5        PRO      HG1      HA2      0.900000E-01   1.00800           0
        55 PROA     5        PRO      HG2      HA2      0.900000E-01   1.00800           0
        56 PROA     5        PRO      C        C        0.510000       12.0110           0
        57 PROA     5        PRO      O        O       -0.510000       15.9994           0
        58 PROA     6        GLY      N        NH1     -0.470000       14.0070           0
        59 PROA     6        GLY      HN       H        0.310000       1.00800           0
        60 PROA     6        GLY      CA       CT2     -0.200000E-01   12.0110           0
        61 PROA     6        GLY      HA1      HB2      0.900000E-01   1.00800           0
        62 PROA     6        GLY      HA2      HB2      0.900000E-01   1.00800           0
        63 PROA     6        GLY      C        C        0.510000       12.0110           0
        64 PROA     6        GLY      O        O       -0.510000       15.9994           0
        65 PROA     7        ASP      N        NH1     -0.470000       14.0070           0
        66 PROA     7        ASP      HN       H        0.310000       1.00800           0
        67 PROA     7        ASP      CA       CT1      0.700000E-01   12.0110           0
        68 PROA     7        ASP      HA       HB1      0.900000E-01   1.00800           0
        69 PROA     7        ASP      CB       CT2A    -0.280000       12.0110           0
        70 PROA     7        ASP      HB1      HA2      0.900000E-01   1.00800           0
        71 PROA     7        ASP      HB2      HA2      0.900000E-01   1.00800           0
        72 PROA     7        ASP      CG       CC       0.620000       12.0110           0
        73 PROA     7        ASP      OD1      OC      -0.760000       15.9994           0
        74 PROA     7        ASP      OD2      OC      -0.760000       15.9994           0
        75 PROA     7        ASP      C        C        0.510000       12.0110           0
        76 PROA     7        ASP      O        O       -0.510000       15.9994           0
        77 PROA     8        PRO      N        N       -0.290000       14.0070           0
        78 PROA     8        PRO      CD       CP3       0.00000       12.0110           0
        79 PROA     8        PRO      HD1      HA2      0.900000E-01   1.00800           0
        80 PROA     8        PRO      HD2      HA2      0.900000E-01   1.00800           0
        81 PROA     8        PRO      CA       CP1      0.200000E-01   12.0110           0
        82 PROA     8        PRO      HA       HB1      0.900000E-01   1.00800           0
        83 PROA     8        PRO      CB       CP2     -0.180000       12.0110           0
        84 PROA     8        PRO      HB1      HA2      0.900000E-01   1.00800           0
        85 PROA     8        PRO      HB2      HA2      0.900000E-01   1.00800           0
        86 PROA     8        PRO      CG       CP2     -0.180000       12.0110           0
        87 PROA     8        PRO      HG1      HA2      0.900000E-01   1.00800           0
        88 PROA     8        PRO      HG2      HA2      0.900000E-01   1.00800           0
        89 PROA     8        PRO      C        C        0.510000       12.0110           0
        90 PROA     8        PRO      O        O       -0.510000       15.9994           0
        91 PROA     9        ASP      N        NH1     -0.470000       14.0070           0
        92 PROA     9        ASP      HN       H        0.310000       1.00800           0
        93 PROA     9        ASP      CA       CT1      0.700000E-01   12.0110           0
        94 PROA     9        ASP      HA       HB1      0.900000E-01   1.00800           0
        95 PROA     9        ASP      CB       CT2A    -0.280000       12.0110           0
        96 PROA     9        ASP      HB1      HA2      0.900000E-01   1.00800           0
        97 PROA     9        ASP      HB2      HA2      0.900000E-01   1.00800           0
        98 PROA     9        ASP      CG       CC       0.620000       12.0110           0
        99 PROA     9        ASP      OD1      OC      -0.760000       15.9994           0
       100 PROA     9        ASP      OD2      OC      -0.760000       15.9994           0
       101 PROA     9        ASP      C        C        0.510000       12.0110           0
       102 PROA     9        ASP      O        O       -0.510000       15.9994           0
       103 PROA     10       ALA      N        NH1     -0.470000       14.0070           0
       104 PROA     10       ALA      HN       H        0.310000       1.00800           0
       105 PROA     10       ALA      CA       CT1      0.700000E-01   12.0110           0
       106 PROA     10       ALA      HA       HB1      0.900000E-01   1.00800           0
       107 PROA     10       ALA      CB       CT3     -0.270000       12.0110           0
       108 PROA     10       ALA      HB1      HA3      0.900000E-01   1.00800           0
       109 PROA     10       ALA      HB2      HA3      0.900000E-01   1.00800           0
       110 PROA     10       ALA      HB3      HA3      0.900000E-01   1.00800           0
       111 PROA     10       ALA      C        C        0.510000       12.0110           0
       112 PROA     10       ALA      O        O       -0.510000       15.9994           0
       113 PROA     11       GLY      N        NH1     -0.470000       14.0070           0
       114 PROA     11       GLY      HN       H        0.310000       1.00800           0
       115 PROA     11       GLY      CA       CT2     -0.200000E-01   12.0110           0
       116 PROA     11       GLY      HA1      HB2      0.900000E-01   1.00800           0
       117 PROA     11       GLY      HA2      HB2      0.900000E-01   1.00800           0
       118 PROA     11       GLY      C        CC       0.340000       12.0110           0
       119 PROA     11       GLY      OT1      OC      -0.670000       15.9994           0
       120 PROA     11       GLY      OT2      OC      -0.670000       15.9994           0

       121 !NBOND: bonds
         2         1         3         1         4         1         7         5
        10         7        12        10         1         5        13         5
        13        15         5         6         7         8         7         9
        14        13        10        11        19        17        15        16
        15        17        23        17        23        25        17        18
        19        20        19        21        19        22        24        23
        29        27        32        29        34        32        25        26
        25        27        35        27        35        37        27        28
        29        30        29        31        36        35        32        33
        37        38        37        39        42        39        42        44
        39        40        39        41        43        42        56        48
        56        58        44        48        48        50        50        53
        53        45        44        45        49        48        54        53
        55        53        46        45        47        45        51        50
        52        50        57        56        58        59        58        60
        63        60        63        65        60        61        60        62
        64        63        69        67        72        69        74        72
        65        66        65        67        75        67        75        77
        67        68        69        70        69        71        76        75
        72        73        89        81        89        91        77        81
        81        83        83        86        86        78        77        78
        82        81        87        86        88        86        79        78
        80        78        84        83        85        83        90        89
        95        93        98        95       100        98        91        92
        91        93       101        93       101       103        93        94
        95        96        95        97       102       101        98        99
       107       105       103       104       103       105       111       105
       111       113       105       106       107       108       107       109
       107       110       112       111       113       114       113       115
       118       115       115       116       115       117       118       120
       118       119

       219 !NTHETA: angles
         2         1         3         2         1         4         2         1         5
         3         1         4         3         1         5         4         1         5
         1         5         6         1         5         7         1         5        13
         6         5         7         6         5        13         7         5        13
         5         7         8         5         7         9         5         7        10
         8         7         9         8         7        10         9         7        10
         7        10        11         7        10        12        11        10        12
         5        13        14         5        13        15        14        13        15
        13        15        16        13        15        17        16        15        17
        15        17        18        15        17        19        15        17        23
        18        17        19        18        17        23        19        17        23
        17        19        20        17        19        21        17        19        22
        20        19        21        20        19        22        21        19        22
        17        23        24        17        23        25        24        23        25
        23        25        26        23        25        27        26        25        27
        25        27        28        25        27        29        25        27        35
        28        27        29        28        27        35        29        27        35
        27        29        30        27        29        31        27        29        32
        30        29        31        30        29        32        31        29        32
        29        32        33        29        32        34        33        32        34
        27        35        36        27        35        37        36        35        37
        35        37        38        35        37        39        38        37        39
        37        39        40        37        39        41        37        39        42
        40        39        41        40        39        42        41        39        42
        39        42        43        39        42        44        43        42        44
        42        44        45        42        44        48        45        44        48
        44        45        46        44        45        47        44        45        53
        46        45        47        46        45        53        47        45        53
        44        48        49        44        48        50        44        48        56
        49        48        50        49        48        56        50        48        56
        48        50        51        48        50        52        48        50        53
        51        50        52        51        50        53        52        50        53
        45        53        50        45        53        54        45        53        55
        50        53        54        50        53        55        54        53        55
        48        56        57        48        56        58        57        56        58
        56        58        59        56        58        60        59        58        60
        58        60        61        58        60        62        58        60        63
        61        60        62        61        60        63        62        60        63
        60        63        64        60        63        65        64        63        65
        63        65        66        63        65        67        66        65        67
        65        67        68        65        67        69        65        67        75
        68        67        69        68        67        75        69        67        75
        67        69        70        67        69        71        67        69        72
        70        69        71        70        69        72        71        69        72
        69        72        73        69        72        74        73        72        74
        67        75        76        67        75        77        76        75        77
        75        77        78        75        77        81        78        77        81
        77        78        79        77        78        80        77        78        86
        79        78        80        79        78        86        80        78        86
        77        81        82        77        81        83        77        81        89
        82        81        83        82        81        89        83        81        89
        81        83        84        81        83        85        81        83        86
        84        83        85        84        83        86        85        83        86
        78        86        83        78        86        87        78        86        88
        83        86        87        83        86        88        87        86        88
        81        89        90        81        89        91        90        89        91
        89        91        92        89        91        93        92        91        93
        91        93        94        91        93        95        91        93       101
        94        93        95        94        93       101        95        93       101
        93        95        96        93        95        97        93        95        98
        96        95        97        96        95        98        97        95        98
        95        98        99        95        98       100        99        98       100
        93       101       102        93       101       103       102       101       103
       101       103       104       101       103       105       104       103       105
       103       105       106       103       105       107       103       105       111
       106       105       107       106       105       111       107       105       111
       105       107       108       105       107       109       105       107       110
       108       107       109       108       107       110       109       107       110
       105       111       112       105       111       113       112       111       113
       111       113       114       111       113       115       114       113       115
       113       115       116       113       115       117       113       115       118
       116       115       117       116       115       118       117       115       118
       115       118       119       115       118       120       119       118       120

       319 !NPHI: dihedrals
         1         5         7         8         1         5         7         9
         1         5         7        10         1         5        13        14
         1         5        13        15         2         1         5         6
         2         1         5         7         2         1         5        13
         3         1         5         6         3         1         5         7
         3         1         5        13         4         1         5         6
         4         1         5         7         4         1         5        13
         5         7        10        11         5         7        10        12
         5        13        15        16         5        13        15        17
         6         5         7         8         6         5         7         9
         6         5         7        10         6         5        13        14
         6         5        13        15         7         5        13        14
         7         5        13        15         8         7         5        13
         8         7        10        11         8         7        10        12
         9         7         5        13         9         7        10        11
         9         7        10        12        10         7         5        13
        13        15        17        18        13        15        17        19
        13        15        17        23        14        13        15        16
        14        13        15        17        15        17        19        20
        15        17        19        21        15        17        19        22
        15        17        23        24        15        17        23        25
        16        15        17        18        16        15        17        19
        16        15        17        23        17        23        25        26
        17        23        25        27        18        17        19        20
        18        17        19        21        18        17        19        22
        18        17        23        24        18        17        23        25
        19        17        23        24        19        17        23        25
        20        19        17        23        21        19        17        23
        22        19        17        23        23        25        27        28
        23        25        27        29        23        25        27        35
        24        23        25        26        24        23        25        27
        25        27        29        30        25        27        29        31
        25        27        29        32        25        27        35        36
        25        27        35        37        26        25        27        28
        26        25        27        29        26        25        27        35
        27        29        32        33        27        29        32        34
        27        35        37        38        27        35        37        39
        28        27        29        30        28        27        29        31
        28        27        29        32        28        27        35        36
        28        27        35        37        29        27        35        36
        29        27        35        37        30        29        27        35
        30        29        32        33        30        29        32        34
        31        29        27        35        31        29        32        33
        31        29        32        34        32        29        27        35
        35        37        39        40        35        37        39        41
        35        37        39        42        36        35        37        38
        36        35        37        39        37        39        42        43
        37        39        42        44        38        37        39        40
        38        37        39        41        38        37        39        42
        39        42        44        45        39        42        44        48
        40        39        42        43        40        39        42        44
        41        39        42        43        41        39        42        44
        42        44        45        46        42        44        45        47
        42        44        45        53        42        44        48        49
        42        44        48        50        42        44        48        56
        43        42        44        45        43        42        44        48
        44        45        53        50        44        45        53        54
        44        45        53        55        44        48        50        51
        44        48        50        52        44        48        50        53
        44        48        56        57        44        48        56        58
        45        44        48        49        45        44        48        50
        45        44        48        56        45        53        50        48
        45        53        50        51        45        53        50        52
        46        45        44        48        46        45        53        50
        46        45        53        54        46        45        53        55
        47        45        44        48        47        45        53        50
        47        45        53        54        47        45        53        55
        48        44        45        53        48        50        53        54
        48        50        53        55        48        56        58        59
        48        56        58        60        49        48        50        51
        49        48        50        52        49        48        50        53
        49        48        56        57        49        48        56        58
        50        48        56        57        50        48        56        58
        51        50        48        56        51        50        53        54
        51        50        53        55        52        50        48        56
        52        50        53        54        52        50        53        55
        53        50        48        56        56        58        60        61
        56        58        60        62        56        58        60        63
        57        56        58        59        57        56        58        60
        58        60        63        64        58        60        63        65
        59        58        60        61        59        58        60        62
        59        58        60        63        60        63        65        66
        60        63        65        67        61        60        63        64
        61        60        63        65        62        60        63        64
        62        60        63        65        63        65        67        68
        63        65        67        69        63        65        67        75
        64        63        65        66        64        63        65        67
        65        67        69        70        65        67        69        71
        65        67        69        72        65        67        75        76
        65        67        75        77        66        65        67        68
        66        65        67        69        66        65        67        75
        67        69        72        73        67        69        72        74
        67        75        77        78        67        75        77        81
        68        67        69        70        68        67        69        71
        68        67        69        72        68        67        75        76
        68        67        75        77        69        67        75        76
        69        67        75        77        70        69        67        75
        70        69        72        73        70        69        72        74
        71        69        67        75        71        69        72        73
        71        69        72        74        72        69        67        75
        75        77        78        79        75        77        78        80
        75        77        78        86        75        77        81        82
        75        77        81        83        75        77        81        89
        76        75        77        78        76        75        77        81
        77        78        86        83        77        78        86        87
        77        78        86        88        77        81        83        84
        77        81        83        85        77        81        83        86
        77        81        89        90        77        81        89        91
        78        77        81        82        78        77        81        83
        78        77        81        89        78        86        83        81
        78        86        83        84        78        86        83        85
        79        78        77        81        79        78        86        83
        79        78        86        87        79        78        86        88
        80        78        77        81        80        78        86        83
        80        78        86        87        80        78        86        88
        81        77        78        86        81        83        86        87
        81        83        86        88        81        89        91        92
        81        89        91        93        82        81        83        84
        82        81        83        85        82        81        83        86
        82        81        89        90        82        81        89        91
        83        81        89        90        83        81        89        91
        84        83        81        89        84        83        86        87
        84        83        86        88        85        83        81        89
        85        83        86        87        85        83        86        88
        86        83        81        89        89        91        93        94
        89        91        93        95        89        91        93       101
        90        89        91        92        90        89        91        93
        91        93        95        96        91        93        95        97
        91        93        95        98        91        93       101       102
        91        93       101       103        92        91        93        94
        92        91        93        95        92        91        93       101
        93        95        98        99        93        95        98       100
        93       101       103       104        93       101       103       105
        94        93        95        96        94        93        95        97
        94        93        95        98        94        93       101       102
        94        93       101       103        95        93       101       102
        95        93       101       103        96        95        93       101
        96        95        98        99        96        95        98       100
        97        95        93       101        97        95        98        99
        97        95        98       100        98        95        93       101
       101       103       105       106       101       103       105       107
       101       103       105       111       102       101       103       104
       102       101       103       105       103       105       107       108
       103       105       107       109       103       105       107       110
       103       105       111       112       103       105       111       113
       104       103       105       106       104       103       105       107
       104       103       105       111       105       111       113       114
       105       111       113       115       106       105       107       108
       106       105       107       109       106       105       107       110
       106       105       111       112       106       105       111       113
       107       105       111       112       107       105       111       113
       108       107       105       111       109       107       105       111
       110       107       105       111       111       113       115       116
       111       113       115       117       111       113       115       118
       112       111       113       114       112       111       113       115
       113       115       118       119       113       115       118       120
       114       113       115       116       114       113       115       117
       114       113       115       118       116       115       118       119
       116       115       118       120       117       115       118       119
       117       115       118       120

        25 !NIMPHI: impropers
        13         5        15        14        10         7        12        11
        15        13        17        16        23        17        25        24
        25        23        27        26        35        27        37        36
        32        29        34        33        37        35        39        38
        42        39        44        43        44        42        48        45
        56        48        58        57        58        56        60        59
        63        60        65        64        65        63        67        66
        75        67        77        76        72        69        74        73
        77        75        81        78        89        81        91        90
        91        89        93        92       101        93       103       102
        98        95       100        99       103       101       105       104
       111       105       113       112       113       111       115       114
       118       115       120       119

        11 !NDON: donors
         1         2         1         3         1         4        15        16
        25        26        37        38        58        59        65        66
        91        92       103       104       113       114

        20 !NACC: acceptors
        11        10        12        10        14        13        24        23
        33        32        34        32        36        35        43        42
        57        56        64        63        73        72        74        72
        76        75        90        89        99        98       100        98
       102       101       112       111       119       118       120       118

         0 !NNB

         0         0         0         0         0         0         0         0
         0         0         0         0         0         0         0         0
         0         0         0         0         0         0         0         0
         0         0         0         0         0         0         0         0
         0         0         0         0         0         0         0         0
         0         0         0         0         0         0         0         0
         0         0         0         0         0         0         0         0
         0         0         0         0         0         0         0         0
         0         0         0         0         0         0         0         0
         0         0         0         0         0         0         0         0
         0         0         0         0         0         0         0         0
         0         0         0         0         0         0         0         0
         0         0         0         0         0         0         0         0
         0         0         0         0         0         0         0         0
         0         0         0         0         0         0         0         0

        32         0 !NGRP NST2
         0         2         0         6         2         0        12         1         0
        14         1         0        18         1         0        22         1         0
        24         1         0        28         2         0        34         1         0
        36         1         0        41         1         0        43         1         0
        49         1         0        52         1         0        55         1         0
        57         1         0        62         1         0        64         1         0
        68         2         0        74         1         0        76         1         0
        82         1         0        85         1         0        88         1         0
        90         1         0        94         2         0       100         1         0
       102         1         0       106         1         0       110         1         0
       112         1         0       117         2         0

         0         0 !NUMLP NUMLPH

         9 !NCRTERM: cross-terms
        13        15        17        23        15        17        23        25
        23        25        27        35        25        27        35        37
        35        37        39        42        37        39        42        44
        42        44        48        56        44        48        56        58
        56        58        60        63        58        60        63        65
        63        65        67        75        65        67        75        77
        75        77        81        89        77        81        89        91
        89        91        93       101        91        93       101       103
       101       103       105       111       103       105       111       113
