* GENERATED BY CHARMM-GUI (HTTP://WWW.CHARMM-GUI.ORG) V3.7 ON JUN, 17. 2026. JOB
* GENERATES IONS
*  DATE:     6/17/26     23:41:51      CREATED BY USER: charmm-gui
*
       120  EXT
         1         1  ASP       N              11.2249258924        1.1904736530       -0.1043256255  PROA      1              55.7300000000
         2         1  ASP       HT1            11.9077371025        0.5831770132       -0.6008733499  PROA      1               0.0000000000
         3         1  ASP       HT2            11.7351334328        1.8470540060        0.5203263910  PROA      1               0.0000000000
         4         1  ASP       HT3            10.6732306041        1.7324067830       -0.7996963378  PROA      1               0.0000000000
         5         1  ASP       CA             10.3246083727        0.3617302481        0.6919203996  PROA      1              56.5200000000
         6         1  ASP       HA             10.9291693361       -0.3149471230        1.2773642091  PROA      1               0.0000000000
         7         1  ASP       CB              9.4599399777        1.2333569952        1.6050273924  PROA      1              51.6900000000
         8         1  ASP       HB1             8.7453549294        1.8100870394        0.9801892542  PROA      1               0.0000000000
         9         1  ASP       HB2            10.1169844949        1.9402767790        2.1547809331  PROA      1               0.0000000000
        10         1  ASP       CG              8.6680969355        0.4268500722        2.6190940469  PROA      1              51.7500000000
        11         1  ASP       OD1             9.2789677295       -0.3017598140        3.4306096085  PROA      1              57.2000000000
        12         1  ASP       OD2             7.4216925730        0.5165458528        2.6043688272  PROA      1              63.8800000000
        13         1  ASP       C               9.4389403143       -0.5019596011       -0.2021785518  PROA      1              58.3300000000
        14         1  ASP       O               8.8370216689       -0.0037879639       -1.1559898351  PROA      1              55.5100000000
        15         2  ALA       N               9.8408210555       -1.6614442596       -0.5409708135  PROA      2              60.5500000000
        16         2  ALA       HN             10.5333014700       -2.1754601232       -0.0408677130  PROA      2               0.0000000000
        17         2  ALA       CA              9.2596728142       -2.2816316490       -1.7287621772  PROA      2              58.5100000000
        18         2  ALA       HA              9.3870945359       -1.6024890847       -2.5586447025  PROA      2               0.0000000000
        19         2  ALA       CB              9.9452856607       -3.6144063978       -2.0219404394  PROA      2              55.1000000000
        20         2  ALA       HB1             9.8195832841       -4.3058554131       -1.1614648896  PROA      2               0.0000000000
        21         2  ALA       HB2            11.0312790124       -3.4519288342       -2.1906816082  PROA      2               0.0000000000
        22         2  ALA       HB3             9.4927388821       -4.0824901311       -2.9221366028  PROA      2               0.0000000000
        23         2  ALA       C               7.7573984516       -2.4869234692       -1.5605807037  PROA      2              60.2700000000
        24         2  ALA       O               7.0211116241       -2.5632773517       -2.5468822764  PROA      2              58.2100000000
        25         3  ASP       N               7.1837305026       -2.3135235963       -0.4147593526  PROA      3              62.5500000000
        26         3  ASP       HN              7.7034940380       -2.1649134167        0.4228483734  PROA      3               0.0000000000
        27         3  ASP       CA              5.7296755905       -2.3251434495       -0.2784534775  PROA      3              61.3700000000
        28         3  ASP       HA              5.3092583426       -2.6877001745       -1.2047189689  PROA      3               0.0000000000
        29         3  ASP       CB              5.3066464596       -3.2239313972        0.8855948804  PROA      3              56.9300000000
        30         3  ASP       HB1             4.2303009594       -3.0525219016        1.0995572824  PROA      3               0.0000000000
        31         3  ASP       HB2             5.9042332464       -2.9557375259        1.7826137430  PROA      3               0.0000000000
        32         3  ASP       CG              5.5095667605       -4.7013076645        0.5976422515  PROA      3              53.7400000000
        33         3  ASP       OD1             5.4888947045       -5.0996747042       -0.5866593856  PROA      3              58.9600000000
        34         3  ASP       OD2             5.6888897077       -5.4741739948        1.5636887908  PROA      3              63.6200000000
        35         3  ASP       C               5.1865415000       -0.9121887881       -0.0745331880  PROA      3              62.8200000000
        36         3  ASP       O               5.3583805707       -0.3234404998        0.9948749599  PROA      3              60.9300000000
        37         4  GLY       N               6.0215646275        0.0850278982       -0.6085381106  PROA      4              67.9800000000
        38         4  GLY       HN              6.9633320489       -0.0417735952       -0.9062614642  PROA      4               0.0000000000
        39         4  GLY       CA              5.4017719680        1.3959429402       -0.7112990561  PROA      4              66.1300000000
        40         4  GLY       HA1             5.1711737165        1.5715070505       -1.7516326577  PROA      4               0.0000000000
        41         4  GLY       HA2             6.1147382446        2.1267590955       -0.3593343584  PROA      4               0.0000000000
        42         4  GLY       C               4.1275607411        1.5179848918        0.1035668907  PROA      4              67.0600000000
        43         4  GLY       O               3.6680171464        0.5409696444        0.6967665965  PROA      4              62.6200000000
        44         5  PRO       N               3.7145987296        2.5133168039        0.6538965754  PROA      5              71.2200000000
        45         5  PRO       CD              3.9556930640        3.4445778494       -0.3648891660  PROA      5              63.5500000000
        46         5  PRO       HD1             3.8583327672        2.9490271543       -1.3539431993  PROA      5               0.0000000000
        47         5  PRO       HD2             4.9770077778        3.8656475089       -0.2513374293  PROA      5               0.0000000000
        48         5  PRO       CA              2.4694120829        2.7514119434        1.3869381291  PROA      5              69.6800000000
        49         5  PRO       HA              2.6046833154        2.5415553909        2.4358350593  PROA      5               0.0000000000
        50         5  PRO       CB              2.1436830275        4.2121078296        1.0635048122  PROA      5              66.2800000000
        51         5  PRO       HB1             2.4662001019        4.8804054018        1.8902047866  PROA      5               0.0000000000
        52         5  PRO       HB2             1.0532718705        4.3457484343        0.8985337439  PROA      5               0.0000000000
        53         5  PRO       CG              2.9091434714        4.5063424538       -0.1857554869  PROA      5              63.6700000000
        54         5  PRO       HG1             2.2212839291        4.5095738693       -1.0581850098  PROA      5               0.0000000000
        55         5  PRO       HG2             3.3925621454        5.5034911333       -0.1064121751  PROA      5               0.0000000000
        56         5  PRO       C               1.3360489601        1.8289460738        0.9412703703  PROA      5              71.0500000000
        57         5  PRO       O               1.2504910517        1.4760072189       -0.2372774687  PROA      5              66.7300000000
        58         6  GLY       N               1.0392756368        0.7808712438        1.6157373786  PROA      6              76.0500000000
        59         6  GLY       HN              1.6854841019        0.4808703916        2.3067893740  PROA      6               0.0000000000
        60         6  GLY       CA             -0.1224733455       -0.0922199913        1.5547128161  PROA      6              75.3600000000
        61         6  GLY       HA1            -0.4119491548       -0.3278209866        2.5681164688  PROA      6               0.0000000000
        62         6  GLY       HA2             0.1674631250       -0.9913975063        1.0315420257  PROA      6               0.0000000000
        63         6  GLY       C              -1.3029870220        0.5358549003        0.8383271727  PROA      6              76.0900000000
        64         6  GLY       O              -1.3792721015        1.7599583999        0.7122152825  PROA      6              73.8700000000
        65         7  ASP       N              -2.1626303939       -0.4104420904       -0.1911038734  PROA      7              75.5800000000
        66         7  ASP       HN             -1.8903405293       -1.3575646135       -0.3294708869  PROA      7               0.0000000000
        67         7  ASP       CA             -3.3343673958       -0.0220160147       -0.9691370231  PROA      7              77.0100000000
        68         7  ASP       HA             -3.0585344855        0.8127839860       -1.5961871001  PROA      7               0.0000000000
        69         7  ASP       CB             -3.8219369674       -1.1926684737       -1.8257452959  PROA      7              73.6300000000
        70         7  ASP       HB1            -4.2149049031       -1.9879383360       -1.1573220266  PROA      7               0.0000000000
        71         7  ASP       HB2            -2.9646703480       -1.5946508943       -2.4064101701  PROA      7               0.0000000000
        72         7  ASP       CG             -4.9186534727       -0.7992781039       -2.7996056165  PROA      7              71.2600000000
        73         7  ASP       OD1            -5.3374806310        0.3784927067       -2.8027247989  PROA      7              73.9100000000
        74         7  ASP       OD2            -5.3689063911       -1.6749417707       -3.5687034335  PROA      7              76.1900000000
        75         7  ASP       C              -4.4599496419        0.4686583579       -0.0620508820  PROA      7              78.5400000000
        76         7  ASP       O              -4.9587500226       -0.2829488393        0.7782745320  PROA      7              77.8600000000
        77         8  PRO       N              -4.5949256496        1.9813530424        0.1082701932  PROA      8              77.5900000000
        78         8  PRO       CD             -3.9556916367        2.9183514807       -0.5653534432  PROA      8              74.1900000000
        79         8  PRO       HD1            -4.0788373779        2.7390220456       -1.6544960493  PROA      8               0.0000000000
        80         8  PRO       HD2            -2.8780265821        2.8952642414       -0.2976585693  PROA      8               0.0000000000
        81         8  PRO       CA             -5.6475512320        2.4324597771        1.0214985858  PROA      8              77.7400000000
        82         8  PRO       HA             -5.4014546890        2.1698065553        2.0378521472  PROA      8               0.0000000000
        83         8  PRO       CB             -5.7276953549        3.9369537898        0.7511290514  PROA      8              75.7300000000
        84         8  PRO       HB1            -5.6320646723        4.5128958037        1.6962345006  PROA      8               0.0000000000
        85         8  PRO       HB2            -6.6923589524        4.1995374434        0.2668226305  PROA      8               0.0000000000
        86         8  PRO       CG             -4.5810690451        4.2231101439       -0.1621352294  PROA      8              73.8700000000
        87         8  PRO       HG1            -4.9417851680        4.7634886064       -1.0633399723  PROA      8               0.0000000000
        88         8  PRO       HG2            -3.8315723028        4.8559042624        0.3595171735  PROA      8               0.0000000000
        89         8  PRO       C              -6.9907575252        1.7576324325        0.7523018013  PROA      8              78.9400000000
        90         8  PRO       O              -7.8516557834        1.7140343267        1.6345825924  PROA      8              78.2700000000
        91         9  ASP       N              -7.1415691229        1.2378463590       -0.3479455799  PROA      9              75.0800000000
        92         9  ASP       HN             -6.4067865229        1.1532321303       -1.0164782534  PROA      9               0.0000000000
        93         9  ASP       CA             -8.4485518267        0.7089277438       -0.7240231124  PROA      9              74.7600000000
        94         9  ASP       HA             -9.1836039624        1.1208606063       -0.0486157402  PROA      9               0.0000000000
        95         9  ASP       CB             -8.7843880938        1.0843947862       -2.1691222445  PROA      9              71.2300000000
        96         9  ASP       HB1            -9.7348801417        0.5876388023       -2.4580394852  PROA      9               0.0000000000
        97         9  ASP       HB2            -7.9689144411        0.7258423501       -2.8325359051  PROA      9               0.0000000000
        98         9  ASP       CG             -8.9443194417        2.5807295843       -2.3710854493  PROA      9              69.1300000000
        99         9  ASP       OD1            -8.9275594245        3.3362838527       -1.3755640536  PROA      9              69.2800000000
       100         9  ASP       OD2            -9.0911637653        3.0083118622       -3.5369945968  PROA      9              70.6800000000
       101         9  ASP       C              -8.4989452038       -0.8073094925       -0.5502095606  PROA      9              73.3700000000
       102         9  ASP       O              -9.5403793400       -1.4283352261       -0.7708064287  PROA      9              70.5400000000
       103        10  ALA       N              -7.2758037132       -1.4234459420       -0.1175321176  PROA      10             75.6900000000
       104        10  ALA       HN             -6.4354582006       -0.9358723816        0.1032759944  PROA      10              0.0000000000
       105        10  ALA       CA             -7.3033187230       -2.8792186610       -0.0039067910  PROA      10             73.6500000000
       106        10  ALA       HA             -7.6628796196       -3.2821453583       -0.9390752334  PROA      10              0.0000000000
       107        10  ALA       CB             -5.9074578013       -3.4155657040        0.3043936091  PROA      10             72.1700000000
       108        10  ALA       HB1            -5.3949905451       -2.7505019770        1.0319845316  PROA      10              0.0000000000
       109        10  ALA       HB2            -5.3031638331       -3.4547199871       -0.6270299480  PROA      10              0.0000000000
       110        10  ALA       HB3            -5.9819824163       -4.4326951042        0.7450158573  PROA      10              0.0000000000
       111        10  ALA       C              -8.2909553424       -3.3273408266        1.0690771011  PROA      10             73.8400000000
       112        10  ALA       O              -8.1967475793       -2.9045733579        2.2239998538  PROA      10             72.3800000000
       113        11  GLY       N              -9.4390004759       -3.0294893339        1.4824145655  PROA      11             76.0100000000
       114        11  GLY       HN             -9.6510989382       -2.0786731251        1.3644980908  PROA      11              0.0000000000
       115        11  GLY       CA            -10.6022023081       -3.6466557244        2.1005117618  PROA      11             75.7400000000
       116        11  GLY       HA1           -10.8631140654       -3.0618198968        2.9700985868  PROA      11              0.0000000000
       117        11  GLY       HA2           -10.3270281306       -4.6487442535        2.3944282267  PROA      11              0.0000000000
       118        11  GLY       C             -11.8022914018       -3.7165831934        1.1757094497  PROA      11             76.8600000000
       119        11  GLY       OT1           -11.6792343347       -3.2524310076        0.0107975618  PROA      11              0.0000000000
       120        11  GLY       OT2           -12.8614546952       -4.2352809454        1.6192472272  PROA      11              0.0000000000
