* SET NIONTYPES = 1
* SET NPOSTOT = 22
* SET NNEGTOT = 18
* SET NIONTOT = 40
*  DATE:     6/17/26     23:42:40      CREATED BY USER: charmm-gui
*
        40  EXT
         1         1  LIT       LIT           -14.7683892819        8.7252773835      -22.9489043627  IONS      1               1.0000000000
         2         2  LIT       LIT            25.2122674536       17.4947916827        9.4969219015  IONS      2               1.0000000000
         3         3  LIT       LIT           -13.8195299008        1.4318589434       10.5881963620  IONS      3               1.0000000000
         4         4  LIT       LIT             7.8178953141      -16.7694245785       19.1313084993  IONS      4               1.0000000000
         5         5  LIT       LIT            12.7387687779       34.8177646582       -6.7259710044  IONS      5               1.0000000000
         6         6  LIT       LIT            16.3122495234        4.2409663941       10.7002391930  IONS      6               1.0000000000
         7         7  LIT       LIT            14.0258068485       19.5510746972      -19.4318516911  IONS      7               1.0000000000
         8         8  LIT       LIT           -21.1680728536        2.1894489659        0.5761371267  IONS      8               1.0000000000
         9         9  LIT       LIT            17.4363998462       -8.9967764816       12.3565597939  IONS      9               1.0000000000
        10        10  LIT       LIT            31.1810577497       -0.3844209541       16.2485699141  IONS      10              1.0000000000
        11        11  LIT       LIT           -13.5580708298       -0.9125660352      -35.8280955813  IONS      11              1.0000000000
        12        12  LIT       LIT            21.1754735166      -15.1706856984      -28.9292693456  IONS      12              1.0000000000
        13        13  LIT       LIT            24.2294182556      -24.3642212969       17.8516497938  IONS      13              1.0000000000
        14        14  LIT       LIT           -30.0704728709       -9.0455792631       -1.2552715391  IONS      14              1.0000000000
        15        15  LIT       LIT           -25.2793764308       10.7405059247       23.0102516358  IONS      15              1.0000000000
        16        16  LIT       LIT             3.0305369139       31.8915407774      -10.8603601333  IONS      16              1.0000000000
        17        17  LIT       LIT             0.1171227837      -10.2979521990       -0.4233214725  IONS      17              1.0000000000
        18        18  LIT       LIT           -24.1978440162      -22.6973816432       -2.8353671110  IONS      18              1.0000000000
        19        19  LIT       LIT            -9.8521900196       -8.4729151662       24.9906851179  IONS      19              1.0000000000
        20        20  LIT       LIT           -11.0841509521        4.6329402037        7.7453446060  IONS      20              1.0000000000
        21        21  LIT       LIT           -29.6492016860       -7.9513918936       20.5591294239  IONS      21              1.0000000000
        22        22  LIT       LIT             8.6464236722      -24.6744414974      -13.9671421442  IONS      22              1.0000000000
        23        23  CLA       CLA            18.9919673241       12.1372217196       12.5822636737  IONS      23             -1.0000000000
        24        24  CLA       CLA             5.8935694848       -3.3785661154       32.2180294682  IONS      24             -1.0000000000
        25        25  CLA       CLA           -10.3477422152       21.3941583097      -16.2389029825  IONS      25             -1.0000000000
        26        26  CLA       CLA            -9.3682651592       33.2147550355       11.7885115658  IONS      26             -1.0000000000
        27        27  CLA       CLA           -24.4197666541      -17.6187431365        2.4463306451  IONS      27             -1.0000000000
        28        28  CLA       CLA            10.9289410419       32.1336080687      -14.7339139443  IONS      28             -1.0000000000
        29        29  CLA       CLA           -25.1021921953       -6.9775581295       -4.1982937183  IONS      29             -1.0000000000
        30        30  CLA       CLA            23.4419772929      -20.8299699390       20.7774034515  IONS      30             -1.0000000000
        31        31  CLA       CLA            29.4516431100        8.5998265225      -13.5782265737  IONS      31             -1.0000000000
        32        32  CLA       CLA             8.2833319453       18.2105189218       28.6072574377  IONS      32             -1.0000000000
        33        33  CLA       CLA            26.2246890749       12.1790656104        3.6927510406  IONS      33             -1.0000000000
        34        34  CLA       CLA            21.5007633887       31.1740822188       -4.7905228387  IONS      34             -1.0000000000
        35        35  CLA       CLA            30.2454769842      -20.8959086613       11.6050093278  IONS      35             -1.0000000000
        36        36  CLA       CLA           -14.4023097007        1.8427966392       15.1002835994  IONS      36             -1.0000000000
        37        37  CLA       CLA           -12.4813623170        4.5467081268      -33.9695246043  IONS      37             -1.0000000000
        38        38  CLA       CLA            16.3107985180        4.5492765931        2.3228212525  IONS      38             -1.0000000000
        39        39  CLA       CLA            17.6412881984      -13.0289928583       16.2667077257  IONS      39             -1.0000000000
        40        40  CLA       CLA            -9.8187698268       12.4658521547       20.6517589246  IONS      40             -1.0000000000
